<event>
 5    0  0.3040647E+000  0.2554957E+03  0.7546771E-02  0.1109880E+00
         21   -1    0    0  503  502  0.00000000000E+00  0.00000000000E+00  0.85507774487E+02  0.85507774487E+02  0.00000000000E+00 0.  1.
          2   -1    0    0  502    0 -0.00000000000E+00 -0.00000000000E+00 -0.10618981819E+04  0.10618981819E+04  0.00000000000E+00 0.  1.
         25    1    1    2    0    0  0.80961562783E+02 -0.20568171568E+03 -0.19555876216E+03  0.32051204699E+03  0.12500000000E+03 0.  0.
         21    1    1    2  503  501 -0.25140730115E+02 -0.10871122115E+02 -0.20103598806E+02  0.33976349005E+02  0.00000000000E+00 0.  1.
          2    1    1    2  501    0 -0.55820832668E+02  0.21655283779E+03 -0.76072804647E+03  0.79291756041E+03  0.00000000000E+00 0.  1.
<mgrwt>
<rscale>  4 0.25549570E+03</rscale>
<asrwt>0</asrwt>
<pdfrwt beam="1">  1       21 0.13155043E-01 0.25549570E+03</pdfrwt>
<pdfrwt beam="2">  1        2 0.16336895E+00 0.25549570E+03</pdfrwt>
<totfact> 0.15022254E+04</totfact>
</mgrwt>
</event>
<event>
 5    0  0.3040647E+000  0.2859777E+03  0.7546771E-02  0.1092468E+00
          1   -1    0    0  502    0 -0.00000000000E+00  0.00000000000E+00  0.12133258663E+04  0.12133258663E+04  0.00000000000E+00 0. -1.
         21   -1    0    0  503  502  0.00000000000E+00 -0.00000000000E+00 -0.14047475314E+04  0.14047475314E+04  0.00000000000E+00 0. -1.
         25    1    1    2    0    0  0.21570746669E+03 -0.71184522053E+02 -0.69872534742E+03  0.74527783979E+03  0.12500000000E+03 0.  0.
         21    1    1    2  503  501  0.21193758457E+02 -0.30520855726E+02 -0.66826085167E+03  0.66929310762E+03  0.00000000000E+00 0.  1.
          1    1    1    2  501    0 -0.23690122514E+03  0.10170537778E+03  0.11755645339E+04  0.12035024503E+04  0.00000000000E+00 0. -1.
<mgrwt>
<rscale>  4 0.28597770E+03</rscale>
<asrwt>0</asrwt>
<pdfrwt beam="1">  1       21 0.21611501E+00 0.28597770E+03</pdfrwt>
<pdfrwt beam="2">  1        1 0.18666552E+00 0.28597770E+03</pdfrwt>
<totfact> 0.12159088E+01</totfact>
</mgrwt>
</event>
<event>
 5    0  0.3040647E+000  0.2021370E+03  0.7546771E-02  0.1147948E+00
          1   -1    0    0  502    0 -0.00000000000E+00  0.00000000000E+00  0.12546926521E+04  0.12546926521E+04  0.00000000000E+00 0.  1.
         21   -1    0    0  503  502  0.00000000000E+00 -0.00000000000E+00 -0.97274382024E+02  0.97274382024E+02  0.00000000000E+00 0. -1.
         25    1    1    2    0    0  0.19678927955E+03  0.62307487720E+02  0.28027020310E+03  0.36984406217E+03  0.12500000000E+03 0.  0.
         21    1    1    2  503  501 -0.44147606608E+02 -0.54998000762E+02 -0.18999209641E+02  0.73039449779E+02  0.00000000000E+00 0. -1.
          1    1    1    2  501    0 -0.15264167294E+03 -0.73094869585E+01  0.89614727662E+03  0.90908352219E+03  0.00000000000E+00 0.  1.
<mgrwt>
<rscale>  4 0.20213702E+03</rscale>
<asrwt>0</asrwt>
<pdfrwt beam="1">  1       21 0.14965290E-01 0.20213702E+03</pdfrwt>
<pdfrwt beam="2">  1        1 0.19302963E+00 0.20213702E+03</pdfrwt>
<totfact> 0.46527391E+03</totfact>
</mgrwt>
</event>
<event>
 5    0  0.3040647E+000  0.2980199E+03  0.7546771E-02  0.1086235E+00
          2   -1    0    0  502    0 -0.00000000000E+00  0.00000000000E+00  0.18660145815E+04  0.18660145815E+04  0.00000000000E+00 0. -1.
         21   -1    0    0  503  502  0.00000000000E+00 -0.00000000000E+00 -0.68266377008E+02  0.68266377008E+02  0.00000000000E+00 0. -1.
         25    1    1    2    0    0 -0.23293096040E+03  0.12556691017E+03  0.37225325866E+03  0.47352018946E+03  0.12500000000E+03 0.  0.
         21    1    1    2  503  501 -0.18405911130E+02  0.18627607352E+02  0.72475804790E+02  0.77061712932E+02  0.00000000000E+00 0.  1.
          2    1    1    2  501    0  0.25133687153E+03 -0.14419451752E+03  0.13530191410E+04  0.13836990561E+04  0.00000000000E+00 0. -1.
<mgrwt>
<rscale>  4 0.29801989E+03</rscale>
<asrwt>0</asrwt>
<pdfrwt beam="1">  1       21 0.10502521E-01 0.29801989E+03</pdfrwt>
<pdfrwt beam="2">  1        2 0.28707913E+00 0.29801989E+03</pdfrwt>
<totfact> 0.80996315E+03</totfact>
</mgrwt>
</event>
<event>
 5    0  0.3040647E+000  0.2449575E+03  0.7546771E-02  0.1116534E+00
         21   -1    0    0  503  502  0.00000000000E+00  0.00000000000E+00  0.21158818536E+03  0.21158818536E+03  0.00000000000E+00 0. -1.
          2   -1    0    0  502    0 -0.00000000000E+00 -0.00000000000E+00 -0.29503912691E+03  0.29503912691E+03  0.00000000000E+00 0. -1.
         25    1    1    2    0    0 -0.44765722934E+02 -0.21642781985E+03 -0.72491676002E+02  0.26405494550E+03  0.12500000000E+03 0.  0.
         21    1    1    2  503  501  0.13039761004E+02  0.17092190016E+02  0.29709014795E+02  0.36671567825E+02  0.00000000000E+00 0. -1.
          2    1    1    2  501    0  0.31725961930E+02  0.19933562983E+03 -0.40668280350E+02  0.20590079895E+03  0.00000000000E+00 0. -1.
<mgrwt>
<rscale>  4 0.24495748E+03</rscale>
<asrwt>0</asrwt>
<pdfrwt beam="1">  1       21 0.32552029E-01 0.24495748E+03</pdfrwt>
<pdfrwt beam="2">  1        2 0.45390634E-01 0.24495748E+03</pdfrwt>
<totfact> 0.12417633E+04</totfact>
</mgrwt>
</event>
<event>
 5    0  0.3040647E+000  0.2939455E+03  0.7546771E-02  0.1088307E+00
         21   -1    0    0  503  502  0.00000000000E+00  0.00000000000E+00  0.47213317224E+03  0.47213317224E+03  0.00000000000E+00 0.  1.
          1   -1    0    0  502    0 -0.00000000000E+00 -0.00000000000E+00 -0.75690315109E+03  0.75690315109E+03  0.00000000000E+00 0. -1.
         25    1    1    2    0    0  0.24540658970E+03 -0.97891175643E+01  0.32326793325E+03  0.42479098126E+03  0.12500000000E+03 0.  0.
         21    1    1    2  503  501  0.21334124979E+02  0.30536255755E+02  0.67809714605E+02  0.77367727115E+02  0.00000000000E+00 0.  1.
          1    1    1    2  501    0 -0.26674071467E+03 -0.20747138191E+02 -0.67584762670E+03  0.72687761496E+03  0.00000000000E+00 0. -1.
<mgrwt>
<rscale>  4 0.29394554E+03</rscale>
<asrwt>0</asrwt>
<pdfrwt beam="1">  1       21 0.72635874E-01 0.29394554E+03</pdfrwt>
<pdfrwt beam="2">  1        1 0.11644664E+00 0.29394554E+03</pdfrwt>
<totfact> 0.45277951E+02</totfact>
</mgrwt>
</event>
<event>
 5    0  0.3040647E+000  0.2851547E+03  0.7546771E-02  0.1092906E+00
          2   -1    0    0  502    0 -0.00000000000E+00  0.00000000000E+00  0.19709724184E+03  0.19709724184E+03  0.00000000000E+00 0.  1.
         21   -1    0    0  503  502  0.00000000000E+00 -0.00000000000E+00 -0.51766663207E+03  0.51766663207E+03  0.00000000000E+00 0. -1.
         25    1    1    2    0    0 -0.11578018848E+03  0.19156928974E+03 -0.52743836503E+02  0.26174559615E+03  0.12500000000E+03 0.  0.
         21    1    1    2  503  501  0.13168203260E+03 -0.23939636579E+03 -0.28957342486E+03  0.39812503821E+03  0.00000000000E+00 0. -1.
          2    1    1    2  501    0 -0.15901844121E+02  0.47827076054E+02  0.21747871129E+02  0.54893239556E+02  0.00000000000E+00 0.  1.
<mgrwt>
<rscale>  4 0.28515468E+03</rscale>
<asrwt>0</asrwt>
<pdfrwt beam="1">  1       21 0.79641020E-01 0.28515468E+03</pdfrwt>
<pdfrwt beam="2">  1        2 0.30322653E-01 0.28515468E+03</pdfrwt>
<totfact> 0.28793209E+03</totfact>
</mgrwt>
</event>
<event>
 5    0  0.3040647E+000  0.4642619E+03  0.7546771E-02  0.1023552E+00
         21   -1    0    0  503  502  0.00000000000E+00  0.00000000000E+00  0.11885840325E+03  0.11885840325E+03  0.00000000000E+00 0.  1.
          1   -1    0    0  502    0 -0.00000000000E+00 -0.00000000000E+00 -0.37541759870E+04  0.37541759870E+04  0.00000000000E+00 0. -1.
         25    1    1    2    0    0  0.47371989769E+03 -0.94616320349E+02 -0.13888075832E+04  0.14757283940E+04  0.12500000000E+03 0.  0.
         21    1    1    2  503  501 -0.52944397992E+02  0.34755009786E+01  0.42610602811E+02  0.68050362657E+02  0.00000000000E+00 0.  1.
          1    1    1    2  501    0 -0.42077549970E+03  0.91140819370E+02 -0.22891206034E+04  0.23292556337E+04  0.00000000000E+00 0. -1.
<mgrwt>
<rscale>  4 0.46426187E+03</rscale>
<asrwt>0</asrwt>
<pdfrwt beam="1">  1       21 0.18285912E-01 0.46426187E+03</pdfrwt>
<pdfrwt beam="2">  1        1 0.57756540E+00 0.46426187E+03</pdfrwt>
<totfact> 0.53543217E+01</totfact>
</mgrwt>
</event>
<event>
 5    0  0.3040647E+000  0.2950052E+03  0.7546771E-02  0.1087764E+00
         21   -1    0    0  503  502  0.00000000000E+00  0.00000000000E+00  0.42218987196E+03  0.42218987196E+03  0.00000000000E+00 0.  1.
          1   -1    0    0  502    0 -0.00000000000E+00 -0.00000000000E+00 -0.28104816795E+03  0.28104816795E+03  0.00000000000E+00 0.  1.
         25    1    1    2    0    0 -0.29245392486E+02 -0.27778883784E+03  0.21782673201E+03  0.37562669845E+03  0.12500000000E+03 0.  0.
         21    1    1    2  503  501  0.19195568652E+02  0.14205347597E+02  0.34005263253E+02  0.41552613458E+02  0.00000000000E+00 0.  1.
          1    1    1    2  501    0  0.10049823833E+02  0.26358349024E+03 -0.11069029125E+03  0.28605872800E+03  0.00000000000E+00 0.  1.
<mgrwt>
<rscale>  4 0.29500522E+03</rscale>
<asrwt>0</asrwt>
<pdfrwt beam="1">  1       21 0.64952288E-01 0.29500522E+03</pdfrwt>
<pdfrwt beam="2">  1        1 0.43238180E-01 0.29500522E+03</pdfrwt>
<totfact> 0.21928798E+03</totfact>
</mgrwt>
</event>
<event>
 5    0  0.3040647E+000  0.3425897E+03  0.7546771E-02  0.1065698E+00
         21   -1    0    0  503  502  0.00000000000E+00  0.00000000000E+00  0.11100193680E+03  0.11100193680E+03  0.00000000000E+00 0.  1.
          2   -1    0    0  502    0 -0.00000000000E+00 -0.00000000000E+00 -0.19592009662E+04  0.19592009662E+04  0.00000000000E+00 0.  1.
         25    1    1    2    0    0 -0.16796909428E+03  0.28092289126E+03 -0.13121308088E+04  0.13581029221E+04  0.12500000000E+03 0.  0.
         21    1    1    2  503  501  0.68309122955E+00 -0.25294191836E+02  0.47264218030E+02  0.53611277361E+02  0.00000000000E+00 0.  1.
          2    1    1    2  501    0  0.16728600305E+03 -0.25562869942E+03 -0.58333243861E+03  0.65848870357E+03  0.00000000000E+00 0.  1.
<mgrwt>
<rscale>  4 0.34258973E+03</rscale>
<asrwt>0</asrwt>
<pdfrwt beam="1">  1       21 0.17077222E-01 0.34258973E+03</pdfrwt>
<pdfrwt beam="2">  1        2 0.30141551E+00 0.34258973E+03</pdfrwt>
<totfact> 0.29356489E+03</totfact>
</mgrwt>
</event>
<event>
 5    0  0.3040647E+000  0.2267246E+03  0.7546771E-02  0.1128967E+00
          1   -1    0    0  502    0 -0.00000000000E+00  0.00000000000E+00  0.15383374546E+04  0.15383374546E+04  0.00000000000E+00 0. -1.
         21   -1    0    0  503  502  0.00000000000E+00 -0.00000000000E+00 -0.17266896451E+03  0.17266896451E+03  0.00000000000E+00 0.  1.
         25    1    1    2    0    0 -0.34490479515E+02 -0.20361119813E+03  0.93741450048E+03  0.96799693124E+03  0.12500000000E+03 0.  0.
         21    1    1    2  503  501 -0.92199407711E+01  0.34533290724E+02 -0.14209588454E+03  0.14652233918E+03  0.00000000000E+00 0.  1.
          1    1    1    2  501    0  0.43710420286E+02  0.16907790740E+03  0.57034987414E+03  0.59648714868E+03  0.00000000000E+00 0. -1.
<mgrwt>
<rscale>  4 0.22672457E+03</rscale>
<asrwt>0</asrwt>
<pdfrwt beam="1">  1       21 0.26564457E-01 0.22672457E+03</pdfrwt>
<pdfrwt beam="2">  1        1 0.23666729E+00 0.22672457E+03</pdfrwt>
<totfact> 0.10139611E+03</totfact>
</mgrwt>
</event>
<event>
 5    0  0.3040647E+000  0.2614100E+03  0.7546771E-02  0.1106299E+00
         -3   -1    0    0    0  501 -0.00000000000E+00  0.00000000000E+00  0.68558279815E+02  0.68558279815E+02  0.00000000000E+00 0.  1.
         21   -1    0    0  501  502  0.00000000000E+00 -0.00000000000E+00 -0.10212815908E+04  0.10212815908E+04  0.00000000000E+00 0.  1.
         25    1    1    2    0    0  0.18477023474E+03 -0.11471959714E+03 -0.52058067532E+03  0.57786664996E+03  0.12500000000E+03 0.  0.
         21    1    1    2  503  502  0.24090807273E+02  0.99054891795E+00 -0.10373155778E+03  0.10649687442E+03  0.00000000000E+00 0.  1.
         -3    1    1    2    0  503 -0.20886104201E+03  0.11372904823E+03 -0.32841107789E+03  0.40547634624E+03  0.00000000000E+00 0.  1.
<mgrwt>
<rscale>  4 0.26141000E+03</rscale>
<asrwt>0</asrwt>
<pdfrwt beam="1">  1       21 0.15712025E+00 0.26141000E+03</pdfrwt>
<pdfrwt beam="2">  1       -3 0.10547428E-01 0.26141000E+03</pdfrwt>
<totfact> 0.86392755E+02</totfact>
</mgrwt>
</event>
<event>
 5    0  0.3040647E+000  0.3178368E+03  0.7546771E-02  0.1076649E+00
          1   -1    0    0  502    0 -0.00000000000E+00  0.00000000000E+00  0.13897375027E+04  0.13897375027E+04  0.00000000000E+00 0. -1.
         21   -1    0    0  503  502  0.00000000000E+00 -0.00000000000E+00 -0.24188315790E+03  0.24188315790E+03  0.00000000000E+00 0.  1.
         25    1    1    2    0    0 -0.34412107993E+03 -0.18899842709E+02  0.83624636049E+02  0.37602473517E+03  0.12500000000E+03 0.  0.
         21    1    1    2  503  501  0.62138685361E+02 -0.29208744296E+02 -0.62666507518E+02  0.92959443449E+02  0.00000000000E+00 0. -1.
          1    1    1    2  501    0  0.28198239457E+03  0.48108587005E+02  0.11268962162E+04  0.11626364819E+04  0.00000000000E+00 0. -1.
<mgrwt>
<rscale>  4 0.31783682E+03</rscale>
<asrwt>0</asrwt>
<pdfrwt beam="1">  1       21 0.37212794E-01 0.31783682E+03</pdfrwt>
<pdfrwt beam="2">  1        1 0.21380577E+00 0.31783682E+03</pdfrwt>
<totfact> 0.62716680E+02</totfact>
</mgrwt>
</event>
<event>
 5    0  0.3040647E+000  0.3695528E+03  0.7546771E-02  0.1054864E+00
          2   -1    0    0  502    0 -0.00000000000E+00  0.00000000000E+00  0.40840037013E+04  0.40840037013E+04  0.00000000000E+00 0. -1.
         21   -1    0    0  503  502  0.00000000000E+00 -0.00000000000E+00 -0.10207655290E+03  0.10207655290E+03  0.00000000000E+00 0. -1.
         25    1    1    2    0    0  0.13473388390E+03 -0.32061047783E+03  0.27290815741E+03  0.45939978270E+03  0.12500000000E+03 0.  0.
         21    1    1    2  503  501 -0.74321583793E+01  0.33741747646E+02  0.15367721475E+03  0.15751326562E+03  0.00000000000E+00 0.  1.
          2    1    1    2  501    0 -0.12730172552E+03  0.28686873019E+03  0.35553417762E+04  0.35691672058E+04  0.00000000000E+00 0. -1.
<mgrwt>
<rscale>  4 0.36955284E+03</rscale>
<asrwt>0</asrwt>
<pdfrwt beam="1">  1       21 0.15704088E-01 0.36955284E+03</pdfrwt>
<pdfrwt beam="2">  1        2 0.62830814E+00 0.36955284E+03</pdfrwt>
<totfact> 0.16287903E+02</totfact>
</mgrwt>
</event>
<event>
 5    0  0.3040647E+000  0.2536428E+03  0.7546771E-02  0.1111024E+00
         21   -1    0    0  503  502  0.00000000000E+00  0.00000000000E+00  0.74363553052E+02  0.74363553052E+02  0.00000000000E+00 0.  1.
          2   -1    0    0  502    0 -0.00000000000E+00 -0.00000000000E+00 -0.14035283789E+04  0.14035283789E+04  0.00000000000E+00 0. -1.
         25    1    1    2    0    0 -0.96838564347E+02  0.25332323853E+03 -0.41962265678E+03  0.51503256674E+03  0.12500000000E+03 0.  0.
         21    1    1    2  503  501  0.57694947221E+01 -0.66768309789E+02 -0.65675148441E+02  0.93832400503E+02  0.00000000000E+00 0. -1.
          2    1    1    2  501    0  0.91069069625E+02 -0.18655492874E+03 -0.84386702061E+03  0.86902696469E+03  0.00000000000E+00 0. -1.
<mgrwt>
<rscale>  4 0.25364281E+03</rscale>
<asrwt>0</asrwt>
<pdfrwt beam="1">  1       21 0.11440546E-01 0.25364281E+03</pdfrwt>
<pdfrwt beam="2">  1        2 0.21592745E+00 0.25364281E+03</pdfrwt>
<totfact> 0.12392092E+04</totfact>
</mgrwt>
</event>
<event>
 5    0  0.3040647E+000  0.2153453E+03  0.7546771E-02  0.1137402E+00
         21   -1    0    0  503  502  0.00000000000E+00  0.00000000000E+00  0.19197164044E+03  0.19197164044E+03  0.00000000000E+00 0. -1.
          2   -1    0    0  502    0 -0.00000000000E+00 -0.00000000000E+00 -0.14151064627E+04  0.14151064627E+04  0.00000000000E+00 0.  1.
         25    1    1    2    0    0 -0.60689273821E+02 -0.26474931449E+03 -0.97145277882E+03  0.10164255452E+04  0.12500000000E+03 0.  0.
         21    1    1    2  503  501  0.72091284239E+02  0.15529102137E+03  0.11603213178E+03  0.20682337921E+03  0.00000000000E+00 0. -1.
          2    1    1    2  501    0 -0.11402010417E+02  0.10945829312E+03 -0.36771417524E+03  0.38382917873E+03  0.00000000000E+00 0.  1.
<mgrwt>
<rscale>  4 0.21534532E+03</rscale>
<asrwt>0</asrwt>
<pdfrwt beam="1">  1       21 0.29534098E-01 0.21534532E+03</pdfrwt>
<pdfrwt beam="2">  1        2 0.21770869E+00 0.21534532E+03</pdfrwt>
<totfact> 0.21135775E+03</totfact>
</mgrwt>
</event>
<event>
 5    0  0.3040647E+000  0.3331717E+03  0.7546771E-02  0.1069742E+00
          2   -1    0    0  502    0 -0.00000000000E+00  0.00000000000E+00  0.28281487330E+04  0.28281487330E+04  0.00000000000E+00 0.  1.
         21   -1    0    0  503  502  0.00000000000E+00 -0.00000000000E+00 -0.32554986665E+03  0.32554986665E+03  0.00000000000E+00 0.  1.
         25    1    1    2    0    0 -0.78225782669E+02  0.37267410413E+03  0.21362728514E+03  0.45416613471E+03  0.12500000000E+03 0.  0.
         21    1    1    2  503  501  0.18532588423E+02 -0.75305268071E+02 -0.18836153748E+03  0.20370176493E+03  0.00000000000E+00 0.  1.
          2    1    1    2  501    0  0.59693194246E+02 -0.29736883606E+03  0.24773331187E+04  0.24958307000E+04  0.00000000000E+00 0.  1.
<mgrwt>
<rscale>  4 0.33317167E+03</rscale>
<asrwt>0</asrwt>
<pdfrwt beam="1">  1       21 0.50084597E-01 0.33317167E+03</pdfrwt>
<pdfrwt beam="2">  1        2 0.43509979E+00 0.33317167E+03</pdfrwt>
<totfact> 0.11738918E+02</totfact>
</mgrwt>
</event>
<event>
 5    0  0.3040647E+000  0.3147394E+03  0.7546771E-02  0.1078096E+00
          1   -1    0    0  502    0 -0.00000000000E+00  0.00000000000E+00  0.10934348262E+04  0.10934348262E+04  0.00000000000E+00 0. -1.
         21   -1    0    0  503  502  0.00000000000E+00 -0.00000000000E+00 -0.19951207999E+03  0.19951207999E+03  0.00000000000E+00 0. -1.
         25    1    1    2    0    0  0.16724479424E+03 -0.21454284305E+03  0.50033163150E+03  0.58305762510E+03  0.12500000000E+03 0.  0.
         21    1    1    2  503  501  0.14624348242E+02 -0.31888962841E+02 -0.11277315003E+03  0.11810402567E+03  0.00000000000E+00 0. -1.
          1    1    1    2  501    0 -0.18186914248E+03  0.24643180589E+03  0.50636426475E+03  0.59178525544E+03  0.00000000000E+00 0. -1.
<mgrwt>
<rscale>  4 0.31473942E+03</rscale>
<asrwt>0</asrwt>
<pdfrwt beam="1">  1       21 0.30694167E-01 0.31473942E+03</pdfrwt>
<pdfrwt beam="2">  1        1 0.16822074E+00 0.31473942E+03</pdfrwt>
<totfact> 0.14871466E+03</totfact>
</mgrwt>
</event>
<event>
 5    0  0.3040647E+000  0.2261427E+03  0.7546771E-02  0.1129385E+00
         21   -1    0    0  503  502  0.00000000000E+00  0.00000000000E+00  0.13194697908E+02  0.13194697908E+02  0.00000000000E+00 0. -1.
          1   -1    0    0  502    0 -0.00000000000E+00 -0.00000000000E+00 -0.54906253326E+04  0.54906253326E+04  0.00000000000E+00 0.  1.
         25    1    1    2    0    0  0.15127155073E+03 -0.13410943866E+03 -0.14670041509E+04  0.14861341131E+04  0.12500000000E+03 0.  0.
         21    1    1    2  503  501 -0.22504767861E+02  0.67882075290E+00 -0.86555097953E+02  0.89435509479E+02  0.00000000000E+00 0.  1.
          1    1    1    2  501    0 -0.12876678287E+03  0.13343061791E+03 -0.39238713859E+04  0.39282504079E+04  0.00000000000E+00 0.  1.
<mgrwt>
<rscale>  4 0.22614269E+03</rscale>
<asrwt>0</asrwt>
<pdfrwt beam="1">  1       21 0.20299490E-02 0.22614269E+03</pdfrwt>
<pdfrwt beam="2">  1        1 0.84471347E+00 0.22614269E+03</pdfrwt>
<totfact> 0.35181410E+01</totfact>
</mgrwt>
</event>
<event>
 5    0  0.3040647E+000  0.2259799E+03  0.7546771E-02  0.1129502E+00
         21   -1    0    0  503  502  0.00000000000E+00  0.00000000000E+00  0.15216571102E+03  0.15216571102E+03  0.00000000000E+00 0. -1.
          1   -1    0    0  502    0 -0.00000000000E+00 -0.00000000000E+00 -0.76561825362E+03  0.76561825362E+03  0.00000000000E+00 0. -1.
         25    1    1    2    0    0  0.12130345076E+03  0.16992212340E+03 -0.38453129538E+01  0.24336770866E+03  0.12500000000E+03 0.  0.
         21    1    1    2  503  501  0.69183561529E+01 -0.35048584381E+02  0.13450127177E+01  0.35750188505E+02  0.00000000000E+00 0. -1.
          1    1    1    2  501    0 -0.12822180691E+03 -0.13487353902E+03 -0.61095224237E+03  0.63866606748E+03  0.00000000000E+00 0. -1.
<mgrwt>
<rscale>  4 0.22597986E+03</rscale>
<asrwt>0</asrwt>
<pdfrwt beam="1">  1       21 0.23410110E-01 0.22597986E+03</pdfrwt>
<pdfrwt beam="2">  1        1 0.11778742E+00 0.22597986E+03</pdfrwt>
<totfact> 0.46695902E+03</totfact>
</mgrwt>
</event>
<event>
 5    0  0.3040647E+000  0.3549287E+03  0.7546771E-02  0.1060610E+00
          1   -1    0    0  502    0 -0.00000000000E+00  0.00000000000E+00  0.13034419880E+04  0.13034419880E+04  0.00000000000E+00 0.  1.
         21   -1    0    0  503  502  0.00000000000E+00 -0.00000000000E+00 -0.17966676714E+03  0.17966676714E+03  0.00000000000E+00 0.  1.
         25    1    1    2    0    0  0.60226853007E+02  0.35914848966E+03  0.17140458646E+03  0.42144921842E+03  0.12500000000E+03 0.  0.
         21    1    1    2  503  501  0.94002889546E+02 -0.69770739581E+02  0.12293506502E+03  0.16975726658E+03  0.00000000000E+00 0. -1.
          1    1    1    2  501    0 -0.15422974255E+03 -0.28937775008E+03  0.82943556941E+03  0.89190227017E+03  0.00000000000E+00 0.  1.
<mgrwt>
<rscale>  4 0.35492870E+03</rscale>
<asrwt>0</asrwt>
<pdfrwt beam="1">  1       21 0.27641042E-01 0.35492870E+03</pdfrwt>
<pdfrwt beam="2">  1        1 0.20052953E+00 0.35492870E+03</pdfrwt>
<totfact> 0.12813590E+03</totfact>
</mgrwt>
</event>
<event>
 5    0  0.3040647E+000  0.2922990E+03  0.7546771E-02  0.1089155E+00
          1   -1    0    0  502    0 -0.00000000000E+00  0.00000000000E+00  0.18442853754E+04  0.18442853754E+04  0.00000000000E+00 0. -1.
         21   -1    0    0  503  502  0.00000000000E+00 -0.00000000000E+00 -0.53865844728E+02  0.53865844728E+02  0.00000000000E+00 0.  1.
         25    1    1    2    0    0  0.14160645727E+03  0.22307245931E+03  0.50722797456E+03  0.58542200934E+03  0.12500000000E+03 0.  0.
         21    1    1    2  503  501 -0.57088225764E+02 -0.37918101189E+02  0.22758220200E+03  0.23767731610E+03  0.00000000000E+00 0. -1.
          1    1    1    2  501    0 -0.84518231508E+02 -0.18515435813E+03  0.10556093541E+04  0.10750518947E+04  0.00000000000E+00 0. -1.
<mgrwt>
<rscale>  4 0.29229901E+03</rscale>
<asrwt>0</asrwt>
<pdfrwt beam="1">  1       21 0.82870545E-02 0.29229901E+03</pdfrwt>
<pdfrwt beam="2">  1        1 0.28373616E+00 0.29229901E+03</pdfrwt>
<totfact> 0.52883236E+03</totfact>
</mgrwt>
</event>
<event>
 5    0  0.3040647E+000  0.4411112E+03  0.7546771E-02  0.1030406E+00
         21   -1    0    0  503  502  0.00000000000E+00  0.00000000000E+00  0.74483486092E+03  0.74483486092E+03  0.00000000000E+00 0. -1.
          2   -1    0    0  502    0 -0.00000000000E+00 -0.00000000000E+00 -0.10080427628E+04  0.10080427628E+04  0.00000000000E+00 0.  1.
         25    1    1    2    0    0 -0.44736978574E+03 -0.91127768291E+01  0.36784860673E+03  0.59258785456E+03  0.12500000000E+03 0.  0.
         21    1    1    2  503  501  0.26846567057E+02  0.86863323766E+01  0.21428117729E+03  0.21613100998E+03  0.00000000000E+00 0. -1.
          2    1    1    2  501    0  0.42052321869E+03  0.42644445247E+00 -0.84533768596E+03  0.94415875922E+03  0.00000000000E+00 0.  1.
<mgrwt>
<rscale>  4 0.44111116E+03</rscale>
<asrwt>0</asrwt>
<pdfrwt beam="1">  1       21 0.11458998E+00 0.44111116E+03</pdfrwt>
<pdfrwt beam="2">  1        2 0.15508350E+00 0.44111116E+03</pdfrwt>
<totfact> 0.17086322E+02</totfact>
</mgrwt>
</event>
<event>
 5    0  0.3040647E+000  0.2197212E+03  0.7546771E-02  0.1134091E+00
         21   -1    0    0  503  502  0.00000000000E+00  0.00000000000E+00  0.14570920950E+03  0.14570920950E+03  0.00000000000E+00 0.  1.
          2   -1    0    0  502    0 -0.00000000000E+00 -0.00000000000E+00 -0.30765298708E+04  0.30765298708E+04  0.00000000000E+00 0.  1.
         25    1    1    2    0    0  0.11883765166E+03 -0.20758099520E+03 -0.64921215602E+03  0.70307444880E+03  0.12500000000E+03 0.  0.
         21    1    1    2  503  501 -0.40192362735E+02  0.52519043401E+02  0.10616000057E+03  0.12507446448E+03  0.00000000000E+00 0.  1.
          2    1    1    2  501    0 -0.78645288921E+02  0.15506195180E+03 -0.23877685058E+04  0.23940901670E+04  0.00000000000E+00 0.  1.
<mgrwt>
<rscale>  4 0.21972119E+03</rscale>
<asrwt>0</asrwt>
<pdfrwt beam="1">  1       21 0.22416800E-01 0.21972119E+03</pdfrwt>
<pdfrwt beam="2">  1        2 0.47331232E+00 0.21972119E+03</pdfrwt>
<totfact> 0.45068798E+02</totfact>
</mgrwt>
</event>
<event>
 5    0  0.3040647E+000  0.3686480E+03  0.7546771E-02  0.1055211E+00
         21   -1    0    0  503  502  0.00000000000E+00  0.00000000000E+00  0.62298169305E+02  0.62298169305E+02  0.00000000000E+00 0. -1.
          1   -1    0    0  502    0 -0.00000000000E+00 -0.00000000000E+00 -0.30420640325E+04  0.30420640325E+04  0.00000000000E+00 0. -1.
         25    1    1    2    0    0 -0.18740863018E+03  0.29012343596E+03 -0.21921149733E+04  0.22226755631E+04  0.12500000000E+03 0.  0.
         21    1    1    2  503  501  0.18955740066E+02  0.17783101206E+02 -0.88551538168E+01  0.27458560033E+02  0.00000000000E+00 0. -1.
          1    1    1    2  501    0  0.16845289012E+03 -0.30790653717E+03 -0.77879573614E+03  0.85422807871E+03  0.00000000000E+00 0. -1.
<mgrwt>
<rscale>  4 0.36864800E+03</rscale>
<asrwt>0</asrwt>
<pdfrwt beam="1">  1       21 0.95843339E-02 0.36864800E+03</pdfrwt>
<pdfrwt beam="2">  1        1 0.46800984E+00 0.36864800E+03</pdfrwt>
<totfact> 0.62535559E+02</totfact>
</mgrwt>
</event>
<event>
 5    0  0.3040647E+000  0.3776111E+03  0.7546771E-02  0.1051820E+00
         21   -1    0    0  503  502  0.00000000000E+00  0.00000000000E+00  0.64681519031E+03  0.64681519031E+03  0.00000000000E+00 0.  1.
          2   -1    0    0  502    0 -0.00000000000E+00 -0.00000000000E+00 -0.23749873080E+03  0.23749873080E+03  0.00000000000E+00 0. -1.
         25    1    1    2    0    0 -0.13419472311E+03  0.31302444122E+03  0.31523443566E+03  0.48061447537E+03  0.12500000000E+03 0.  0.
         21    1    1    2  503  501 -0.10657289098E+02  0.22218778518E+02  0.18367326237E+02  0.30734518100E+02  0.00000000000E+00 0.  1.
          2    1    1    2  501    0  0.14485201221E+03 -0.33524321974E+03  0.75714697618E+02  0.37296492765E+03  0.00000000000E+00 0. -1.
<mgrwt>
<rscale>  4 0.37761107E+03</rscale>
<asrwt>0</asrwt>
<pdfrwt beam="1">  1       21 0.99510029E-01 0.37761107E+03</pdfrwt>
<pdfrwt beam="2">  1        2 0.36538266E-01 0.37761107E+03</pdfrwt>
<totfact> 0.13580458E+03</totfact>
</mgrwt>
</event>
<event>
 5    0  0.3040647E+000  0.4597328E+03  0.7546771E-02  0.1024859E+00
         21   -1    0    0  503  502  0.00000000000E+00  0.00000000000E+00  0.99979476385E+03  0.99979476385E+03  0.00000000000E+00 0.  1.
          2   -1    0    0  502    0 -0.00000000000E+00 -0.00000000000E+00 -0.30117880006E+03  0.30117880006E+03  0.00000000000E+00 0. -1.
         25    1    1    2    0    0 -0.38445540315E+02 -0.45101310114E+03  0.63000949982E+03  0.78576577097E+03  0.12500000000E+03 0.  0.
         21    1    1    2  503  501 -0.55640346367E+02  0.21190166666E+02  0.44897099499E+02  0.74569570541E+02  0.00000000000E+00 0. -1.
          2    1    1    2  501    0  0.94085886682E+02  0.42982293447E+03  0.23709364467E+02  0.44063822239E+03  0.00000000000E+00 0. -1.
<mgrwt>
<rscale>  4 0.45973280E+03</rscale>
<asrwt>0</asrwt>
<pdfrwt beam="1">  1       21 0.15381458E+00 0.45973280E+03</pdfrwt>
<pdfrwt beam="2">  1        2 0.46335201E-01 0.45973280E+03</pdfrwt>
<totfact> 0.33518400E+02</totfact>
</mgrwt>
</event>
<event>
 5    0  0.3040647E+000  0.2486711E+03  0.7546771E-02  0.1114148E+00
         21   -1    0    0  503  502  0.00000000000E+00  0.00000000000E+00  0.16991478231E+03  0.16991478231E+03  0.00000000000E+00 0. -1.
          1   -1    0    0  502    0 -0.00000000000E+00 -0.00000000000E+00 -0.68776115852E+03  0.68776115852E+03  0.00000000000E+00 0. -1.
         25    1    1    2    0    0  0.11693535641E+03  0.16672451610E+03 -0.44611442316E+03  0.50607708939E+03  0.12500000000E+03 0.  0.
         21    1    1    2  503  501  0.64155566603E+02  0.34423815856E+01  0.43597316508E+02  0.77643497628E+02  0.00000000000E+00 0. -1.
          1    1    1    2  501    0 -0.18109092301E+03 -0.17016689769E+03 -0.11532926955E+03  0.27395535381E+03  0.00000000000E+00 0. -1.
<mgrwt>
<rscale>  4 0.24867111E+03</rscale>
<asrwt>0</asrwt>
<pdfrwt beam="1">  1       21 0.26140736E-01 0.24867111E+03</pdfrwt>
<pdfrwt beam="2">  1        1 0.10580941E+00 0.24867111E+03</pdfrwt>
<totfact> 0.43982637E+03</totfact>
</mgrwt>
</event>
<event>
 5    0  0.3040647E+000  0.2703309E+03  0.7546771E-02  0.1101090E+00
          4   -1    0    0  502    0 -0.00000000000E+00  0.00000000000E+00  0.41461983096E+03  0.41461983096E+03  0.00000000000E+00 0.  1.
         21   -1    0    0  503  502  0.00000000000E+00 -0.00000000000E+00 -0.20576913936E+03  0.20576913936E+03  0.00000000000E+00 0.  1.
         25    1    1    2    0    0  0.25292254774E+03  0.11887466727E+02  0.18364310742E+03  0.33683960267E+03  0.12500000000E+03 0.  0.
         21    1    1    2  503  501 -0.23410288416E+03  0.80151109391E+01 -0.15200016604E+02  0.23473270517E+03  0.00000000000E+00 0.  1.
          4    1    1    2  501    0 -0.18819663586E+02 -0.19902577666E+02  0.40407600785E+02  0.48816662488E+02  0.00000000000E+00 0.  1.
<mgrwt>
<rscale>  4 0.27033090E+03</rscale>
<asrwt>0</asrwt>
<pdfrwt beam="1">  1       21 0.31656791E-01 0.27033090E+03</pdfrwt>
<pdfrwt beam="2">  1        4 0.63787666E-01 0.27033090E+03</pdfrwt>
<totfact> 0.93934203E+02</totfact>
</mgrwt>
</event>
<event>
 5    0  0.3040647E+000  0.4098532E+03  0.7546771E-02  0.1040420E+00
         21   -1    0    0  503  502  0.00000000000E+00  0.00000000000E+00  0.57121833318E+03  0.57121833318E+03  0.00000000000E+00 0. -1.
          2   -1    0    0  502    0 -0.00000000000E+00 -0.00000000000E+00 -0.10674513529E+04  0.10674513529E+04  0.00000000000E+00 0.  1.
         25    1    1    2    0    0  0.21928290373E+03 -0.11492963787E+01 -0.22916608613E+03  0.34092287659E+03  0.12500000000E+03 0.  0.
         21    1    1    2  503  501 -0.44224817246E+03 -0.11000814317E+03  0.38697643976E+03  0.59785951739E+03  0.00000000000E+00 0. -1.
          2    1    1    2  501    0  0.22296526873E+03  0.11115743955E+03 -0.65404337332E+03  0.69988729208E+03  0.00000000000E+00 0.  1.
<mgrwt>
<rscale>  4 0.40985322E+03</rscale>
<asrwt>0</asrwt>
<pdfrwt beam="1">  1       21 0.87879744E-01 0.40985322E+03</pdfrwt>
<pdfrwt beam="2">  1        2 0.16422328E+00 0.40985322E+03</pdfrwt>
<totfact> 0.30240228E+02</totfact>
</mgrwt>
</event>
<event>
 5    0  0.3040647E+000  0.2252104E+03  0.7546771E-02  0.1130057E+00
         21   -1    0    0  501  502  0.00000000000E+00  0.00000000000E+00  0.38802536795E+03  0.38802536795E+03  0.00000000000E+00 0. -1.
         -3   -1    0    0    0  501 -0.00000000000E+00 -0.00000000000E+00 -0.11558216634E+04  0.11558216634E+04  0.00000000000E+00 0. -1.
         25    1    1    2    0    0  0.57778700598E+02  0.21222547480E+03 -0.12224430418E+03  0.28097455454E+03  0.12500000000E+03 0.  0.
         21    1    1    2  503  502 -0.47853771292E+02 -0.28331088974E+02  0.29717104530E+03  0.30232972760E+03  0.00000000000E+00 0. -1.
         -3    1    1    2    0  503 -0.99249293057E+01 -0.18389438582E+03 -0.94272303659E+03  0.96054274922E+03  0.00000000000E+00 0. -1.
<mgrwt>
<rscale>  4 0.22521043E+03</rscale>
<asrwt>0</asrwt>
<pdfrwt beam="1">  1       21 0.59696210E-01 0.22521043E+03</pdfrwt>
<pdfrwt beam="2">  1       -3 0.17781872E+00 0.22521043E+03</pdfrwt>
<totfact> 0.28130105E+01</totfact>
</mgrwt>
</event>
<event>
 5    0  0.3040647E+000  0.2962613E+03  0.7546771E-02  0.1087125E+00
         -2   -1    0    0    0  501 -0.00000000000E+00  0.00000000000E+00  0.30142044695E+03  0.30142044695E+03  0.00000000000E+00 0.  1.
         21   -1    0    0  501  502  0.00000000000E+00 -0.00000000000E+00 -0.33292219791E+03  0.33292219791E+03  0.00000000000E+00 0.  1.
         25    1    1    2    0    0  0.82008353270E+01 -0.26847436525E+03  0.96661266147E+02  0.31163141509E+03  0.12500000000E+03 0.  0.
         21    1    1    2  503  502  0.40667551649E+02  0.65065697131E+02 -0.74039424208E+02  0.10662659629E+03  0.00000000000E+00 0.  1.
         -2    1    1    2    0  503 -0.48868386976E+02  0.20340866812E+03 -0.54123592901E+02  0.21608463347E+03  0.00000000000E+00 0.  1.
<mgrwt>
<rscale>  4 0.29626127E+03</rscale>
<asrwt>0</asrwt>
<pdfrwt beam="1">  1       21 0.51218800E-01 0.29626127E+03</pdfrwt>
<pdfrwt beam="2">  1       -2 0.46372377E-01 0.29626127E+03</pdfrwt>
<totfact> 0.12721430E+03</totfact>
</mgrwt>
</event>
<event>
 5    0  0.3040647E+000  0.2033728E+03  0.7546771E-02  0.1146924E+00
          2   -1    0    0  502    0 -0.00000000000E+00  0.00000000000E+00  0.22103268388E+04  0.22103268388E+04  0.00000000000E+00 0.  1.
         21   -1    0    0  503  502  0.00000000000E+00 -0.00000000000E+00 -0.33654914737E+02  0.33654914737E+02  0.00000000000E+00 0.  1.
         25    1    1    2    0    0 -0.87163025410E+02 -0.19881391439E+03  0.93020692398E+03  0.96334536225E+03  0.12500000000E+03 0.  0.
         21    1    1    2  503  501  0.76084936040E+02  0.11931680288E+03  0.31039187891E+03  0.34112832693E+03  0.00000000000E+00 0.  1.
          2    1    1    2  501    0  0.11078089370E+02  0.79497111510E+02  0.93607312114E+03  0.93950806432E+03  0.00000000000E+00 0.  1.
<mgrwt>
<rscale>  4 0.20337283E+03</rscale>
<asrwt>0</asrwt>
<pdfrwt beam="1">  1       21 0.51776809E-02 0.20337283E+03</pdfrwt>
<pdfrwt beam="2">  1        2 0.34005017E+00 0.20337283E+03</pdfrwt>
<totfact> 0.18893357E+04</totfact>
</mgrwt>
</event>
<event>
 5    0  0.3040647E+000  0.2944607E+03  0.7546771E-02  0.1088043E+00
          1   -1    0    0  502    0 -0.00000000000E+00  0.00000000000E+00  0.54479793949E+03  0.54479793949E+03  0.00000000000E+00 0. -1.
         21   -1    0    0  503  502  0.00000000000E+00 -0.00000000000E+00 -0.21749011734E+03  0.21749011734E+03  0.00000000000E+00 0. -1.
         25    1    1    2    0    0 -0.21929817040E+03  0.19163729016E+03  0.80245249611E+02  0.32692635043E+03  0.12500000000E+03 0.  0.
         21    1    1    2  503  501  0.64288152536E+02  0.14462883939E+02 -0.15117337510E+02  0.67606770828E+02  0.00000000000E+00 0.  1.
          1    1    1    2  501    0  0.15501001786E+03 -0.20610017410E+03  0.26217991005E+03  0.36775493557E+03  0.00000000000E+00 0. -1.
<mgrwt>
<rscale>  4 0.29446068E+03</rscale>
<asrwt>0</asrwt>
<pdfrwt beam="1">  1       21 0.33460018E-01 0.29446068E+03</pdfrwt>
<pdfrwt beam="2">  1        1 0.83815068E-01 0.29446068E+03</pdfrwt>
<totfact> 0.37135508E+03</totfact>
</mgrwt>
</event>
<event>
 5    0  0.3040647E+000  0.2408834E+03  0.7546771E-02  0.1119206E+00
         21   -1    0    0  503  502  0.00000000000E+00  0.00000000000E+00  0.37103920550E+03  0.37103920550E+03  0.00000000000E+00 0. -1.
          2   -1    0    0  502    0 -0.00000000000E+00 -0.00000000000E+00 -0.20640160452E+04  0.20640160452E+04  0.00000000000E+00 0.  1.
         25    1    1    2    0    0 -0.14459502780E+03  0.13837726847E+03  0.19565939632E+03  0.30653481020E+03  0.12500000000E+03 0.  0.
         21    1    1    2  503  501  0.16463737367E+02  0.23016988249E+02  0.11290572335E+03  0.11639819054E+03  0.00000000000E+00 0. -1.
          2    1    1    2  501    0  0.12813129043E+03 -0.16139425671E+03 -0.20015419593E+04  0.20121222499E+04  0.00000000000E+00 0.  1.
<mgrwt>
<rscale>  4 0.24088344E+03</rscale>
<asrwt>0</asrwt>
<pdfrwt beam="1">  1       21 0.57082954E-01 0.24088344E+03</pdfrwt>
<pdfrwt beam="2">  1        2 0.31754094E+00 0.24088344E+03</pdfrwt>
<totfact> 0.24744603E+02</totfact>
</mgrwt>
</event>
<event>
 5    0  0.3040647E+000  0.3609404E+03  0.7546771E-02  0.1058212E+00
         21   -1    0    0  503  502  0.00000000000E+00  0.00000000000E+00  0.11541105633E+04  0.11541105633E+04  0.00000000000E+00 0.  1.
          2   -1    0    0  502    0 -0.00000000000E+00 -0.00000000000E+00 -0.13016063270E+03  0.13016063270E+03  0.00000000000E+00 0.  1.
         25    1    1    2    0    0  0.31580681055E+03  0.86284914883E+02  0.66120938266E+03  0.74833273070E+03  0.12500000000E+03 0.  0.
         21    1    1    2  503  501  0.13032047441E+02  0.15295956805E+02  0.10250753784E+03  0.10445858447E+03  0.00000000000E+00 0. -1.
          2    1    1    2  501    0 -0.32883885799E+03 -0.10158087169E+03  0.26023301009E+03  0.43147988083E+03  0.00000000000E+00 0.  1.
<mgrwt>
<rscale>  4 0.36094043E+03</rscale>
<asrwt>0</asrwt>
<pdfrwt beam="1">  1       21 0.17755546E+00 0.36094043E+03</pdfrwt>
<pdfrwt beam="2">  1        2 0.20024713E-01 0.36094043E+03</pdfrwt>
<totfact> 0.59138183E+02</totfact>
</mgrwt>
</event>
<event>
 5    0  0.3040647E+000  0.3697096E+03  0.7546771E-02  0.1054804E+00
         21   -1    0    0  503  502  0.00000000000E+00  0.00000000000E+00  0.89625589524E+02  0.89625589524E+02  0.00000000000E+00 0.  1.
          2   -1    0    0  502    0 -0.00000000000E+00 -0.00000000000E+00 -0.19582087877E+04  0.19582087877E+04  0.00000000000E+00 0.  1.
         25    1    1    2    0    0  0.22794157061E+03  0.27222546155E+03 -0.90372503009E+03  0.97898314160E+03  0.12500000000E+03 0.  0.
         21    1    1    2  503  501  0.13232023739E+02 -0.28424097986E+02  0.11981198784E+02  0.33564340048E+02  0.00000000000E+00 0.  1.
          2    1    1    2  501    0 -0.24117359435E+03 -0.24380136356E+03 -0.97683936691E+03  0.10352868956E+04  0.00000000000E+00 0.  1.
<mgrwt>
<rscale>  4 0.36970964E+03</rscale>
<asrwt>0</asrwt>
<pdfrwt beam="1">  1       21 0.13788551E-01 0.36970964E+03</pdfrwt>
<pdfrwt beam="2">  1        2 0.30126291E+00 0.36970964E+03</pdfrwt>
<totfact> 0.43307184E+03</totfact>
</mgrwt>
</event>
<event>
 5    0  0.3040647E+000  0.3138727E+03  0.7546771E-02  0.1078504E+00
          2   -1    0    0  502    0 -0.00000000000E+00  0.00000000000E+00  0.18850498923E+04  0.18850498923E+04  0.00000000000E+00 0. -1.
         21   -1    0    0  503  502  0.00000000000E+00 -0.00000000000E+00 -0.41579333155E+03  0.41579333155E+03  0.00000000000E+00 0.  1.
         25    1    1    2    0    0 -0.43051179089E+02  0.32658759503E+03 -0.30074071260E+03  0.46323086842E+03  0.12500000000E+03 0.  0.
         21    1    1    2  503  501  0.10755763966E+02 -0.41754836675E+02 -0.14294563861E+01  0.43141583071E+02  0.00000000000E+00 0.  1.
          2    1    1    2  501    0  0.32295415122E+02 -0.28483275835E+03  0.17714267298E+04  0.17944707724E+04  0.00000000000E+00 0. -1.
<mgrwt>
<rscale>  4 0.31387274E+03</rscale>
<asrwt>0</asrwt>
<pdfrwt beam="1">  1       21 0.63968206E-01 0.31387274E+03</pdfrwt>
<pdfrwt beam="2">  1        2 0.29000767E+00 0.31387274E+03</pdfrwt>
<totfact> 0.22954066E+02</totfact>
</mgrwt>
</event>
<event>
 5    0  0.3040647E+000  0.3786329E+03  0.7546771E-02  0.1051440E+00
         21   -1    0    0  503  502  0.00000000000E+00  0.00000000000E+00  0.90625499660E+03  0.90625499660E+03  0.00000000000E+00 0. -1.
          1   -1    0    0  502    0 -0.00000000000E+00 -0.00000000000E+00 -0.24122351109E+04  0.24122351109E+04  0.00000000000E+00 0. -1.
         25    1    1    2    0    0  0.30918184718E+03  0.89922769031E+02 -0.86419458106E+02  0.35605174028E+03  0.12500000000E+03 0.  0.
         21    1    1    2  503  501  0.43722046592E+02 -0.12065925375E+02  0.75585221702E+03  0.75721184479E+03  0.00000000000E+00 0. -1.
          1    1    1    2  501    0 -0.35290389377E+03 -0.77856843656E+02 -0.21754128732E+04  0.22052265224E+04  0.00000000000E+00 0. -1.
<mgrwt>
<rscale>  4 0.37863288E+03</rscale>
<asrwt>0</asrwt>
<pdfrwt beam="1">  1       21 0.13942385E+00 0.37863288E+03</pdfrwt>
<pdfrwt beam="2">  1        1 0.37111309E+00 0.37863288E+03</pdfrwt>
<totfact> 0.63470452E+00</totfact>
</mgrwt>
</event>
<event>
 5    0  0.3040647E+000  0.2266420E+03  0.7546771E-02  0.1129026E+00
         -3   -1    0    0    0  501 -0.00000000000E+00  0.00000000000E+00  0.43717415148E+03  0.43717415148E+03  0.00000000000E+00 0. -1.
         21   -1    0    0  501  502  0.00000000000E+00 -0.00000000000E+00 -0.77508350307E+03  0.77508350307E+03  0.00000000000E+00 0.  1.
         25    1    1    2    0    0  0.18104528934E+03 -0.14300087863E+03 -0.68202555405E+03  0.73076022364E+03  0.12500000000E+03 0.  0.
         21    1    1    2  503  502 -0.26398267181E+02  0.36492002246E+02 -0.35915468363E+02  0.57606037928E+02  0.00000000000E+00 0.  1.
         -3    1    1    2    0  503 -0.15464702216E+03  0.10650887639E+03  0.38003167082E+03  0.42389139297E+03  0.00000000000E+00 0. -1.
<mgrwt>
<rscale>  4 0.22664197E+03</rscale>
<asrwt>0</asrwt>
<pdfrwt beam="1">  1       21 0.11924362E+00 0.22664197E+03</pdfrwt>
<pdfrwt beam="2">  1       -3 0.67257562E-01 0.22664197E+03</pdfrwt>
<totfact> 0.56496601E+01</totfact>
</mgrwt>
</event>
<event>
 5    0  0.3040647E+000  0.2150160E+03  0.7546771E-02  0.1137654E+00
         21   -1    0    0  503  502  0.00000000000E+00  0.00000000000E+00  0.60305216003E+03  0.60305216003E+03  0.00000000000E+00 0.  1.
          2   -1    0    0  502    0 -0.00000000000E+00 -0.00000000000E+00 -0.65521217632E+03  0.65521217632E+03  0.00000000000E+00 0. -1.
         25    1    1    2    0    0  0.18170796822E+03  0.95103730650E+02 -0.33151912658E+03  0.40938055228E+03  0.12500000000E+03 0.  0.
         21    1    1    2  503  501 -0.55582808075E+02  0.12418626943E+01  0.54046917602E+03  0.54332119506E+03  0.00000000000E+00 0.  1.
          2    1    1    2  501    0 -0.12612516015E+03 -0.96345593344E+02 -0.26111006573E+03  0.30556258902E+03  0.00000000000E+00 0. -1.
<mgrwt>
<rscale>  4 0.21501603E+03</rscale>
<asrwt>0</asrwt>
<pdfrwt beam="1">  1       21 0.92777255E-01 0.21501603E+03</pdfrwt>
<pdfrwt beam="2">  1        2 0.10080187E+00 0.21501603E+03</pdfrwt>
<totfact> 0.55257424E+02</totfact>
</mgrwt>
</event>
<event>
 5    0  0.3040647E+000  0.2275719E+03  0.7546771E-02  0.1128361E+00
         21   -1    0    0  503  502  0.00000000000E+00  0.00000000000E+00  0.90429933560E+02  0.90429933560E+02  0.00000000000E+00 0. -1.
          1   -1    0    0  502    0 -0.00000000000E+00 -0.00000000000E+00 -0.15812946770E+04  0.15812946770E+04  0.00000000000E+00 0. -1.
         25    1    1    2    0    0 -0.12753869241E+03 -0.16601525931E+03 -0.20859621228E+03  0.32088091898E+03  0.12500000000E+03 0.  0.
         21    1    1    2  503  501 -0.23971108632E+01  0.19156421115E+03 -0.27644151564E+03  0.33633689168E+03  0.00000000000E+00 0. -1.
          1    1    1    2  501    0  0.12993580327E+03 -0.25548951838E+02 -0.10058270156E+04  0.10145068000E+04  0.00000000000E+00 0. -1.
<mgrwt>
<rscale>  4 0.22757192E+03</rscale>
<asrwt>0</asrwt>
<pdfrwt beam="1">  1       21 0.13912298E-01 0.22757192E+03</pdfrwt>
<pdfrwt beam="2">  1        1 0.24327609E+00 0.22757192E+03</pdfrwt>
<totfact> 0.31828434E+03</totfact>
</mgrwt>
</event>
<event>
 5    0  0.3040647E+000  0.3449803E+03  0.7546771E-02  0.1064694E+00
         21   -1    0    0  503  502  0.00000000000E+00  0.00000000000E+00  0.77963608601E+03  0.77963608601E+03  0.00000000000E+00 0.  1.
          1   -1    0    0  502    0 -0.00000000000E+00 -0.00000000000E+00 -0.12259914060E+04  0.12259914060E+04  0.00000000000E+00 0. -1.
         25    1    1    2    0    0  0.33626018651E+03  0.45050609201E+02  0.64480388909E+03  0.73925470969E+03  0.12500000000E+03 0.  0.
         21    1    1    2  503  501 -0.24968999052E+03 -0.34007170281E+02 -0.99574665166E+02  0.27095514931E+03  0.00000000000E+00 0.  1.
          1    1    1    2  501    0 -0.86570195995E+02 -0.11043438920E+02 -0.99158454395E+03  0.99541763305E+03  0.00000000000E+00 0. -1.
<mgrwt>
<rscale>  4 0.34498033E+03</rscale>
<asrwt>0</asrwt>
<pdfrwt beam="1">  1       21 0.11994401E+00 0.34498033E+03</pdfrwt>
<pdfrwt beam="2">  1        1 0.18861406E+00 0.34498033E+03</pdfrwt>
<totfact> 0.58729686E+01</totfact>
</mgrwt>
</event>
<event>
 5    0  0.3040647E+000  0.3363321E+03  0.7546771E-02  0.1068369E+00
         21   -1    0    0  503  502  0.00000000000E+00  0.00000000000E+00  0.36546311394E+03  0.36546311394E+03  0.00000000000E+00 0.  1.
          2   -1    0    0  502    0 -0.00000000000E+00 -0.00000000000E+00 -0.41440001489E+03  0.41440001489E+03  0.00000000000E+00 0. -1.
         25    1    1    2    0    0 -0.24485468261E+03 -0.18109180104E+03  0.15402928387E+03  0.36345299048E+03  0.12500000000E+03 0.  0.
         21    1    1    2  503  501 -0.19293684215E+02 -0.22475147022E+02 -0.10862452786E+02  0.31549506570E+02  0.00000000000E+00 0. -1.
          2    1    1    2  501    0  0.26414836682E+03  0.20356694806E+03 -0.19210373204E+03  0.38486063179E+03  0.00000000000E+00 0. -1.
<mgrwt>
<rscale>  4 0.33633208E+03</rscale>
<asrwt>0</asrwt>
<pdfrwt beam="1">  1       21 0.56225095E-01 0.33633208E+03</pdfrwt>
<pdfrwt beam="2">  1        2 0.63753848E-01 0.33633208E+03</pdfrwt>
<totfact> 0.27284569E+03</totfact>
</mgrwt>
</event>
<event>
 5    0  0.3040647E+000  0.2781687E+03  0.7546771E-02  0.1096693E+00
          1   -1    0    0  502    0 -0.00000000000E+00  0.00000000000E+00  0.27627711845E+04  0.27627711845E+04  0.00000000000E+00 0. -1.
         21   -1    0    0  503  502  0.00000000000E+00 -0.00000000000E+00 -0.10650848212E+03  0.10650848212E+03  0.00000000000E+00 0.  1.
         25    1    1    2    0    0 -0.65345777499E+02  0.22503702262E+03  0.15949020021E+03  0.30979647536E+03  0.12500000000E+03 0.  0.
         21    1    1    2  503  501  0.28162016853E+02  0.22010128120E+02 -0.12453962535E+02  0.37850311966E+02  0.00000000000E+00 0.  1.
          1    1    1    2  501    0  0.37183760646E+02 -0.24704715074E+03  0.25092264648E+04  0.25216328793E+04  0.00000000000E+00 0. -1.
<mgrwt>
<rscale>  4 0.27816874E+03</rscale>
<asrwt>0</asrwt>
<pdfrwt beam="1">  1       21 0.16385922E-01 0.27816874E+03</pdfrwt>
<pdfrwt beam="2">  1        1 0.42504167E+00 0.27816874E+03</pdfrwt>
<totfact> 0.38495377E+02</totfact>
</mgrwt>
</event>
<event>
 5    0  0.3040647E+000  0.2280506E+03  0.7546771E-02  0.1128019E+00
          2   -1    0    0  502    0 -0.00000000000E+00  0.00000000000E+00  0.25118021524E+04  0.25118021524E+04  0.00000000000E+00 0. -1.
         21   -1    0    0  503  502  0.00000000000E+00 -0.00000000000E+00 -0.10939007951E+03  0.10939007951E+03  0.00000000000E+00 0.  1.
         25    1    1    2    0    0  0.30677191689E+02 -0.23488021459E+03  0.40742748920E+03  0.48757764945E+03  0.12500000000E+03 0.  0.
         21    1    1    2  503  501  0.38706639716E+02  0.61725874066E+02 -0.44660837326E+02  0.85456877301E+02  0.00000000000E+00 0.  1.
          2    1    1    2  501    0 -0.69383831404E+02  0.17315434052E+03  0.20396454210E+04  0.20481577051E+04  0.00000000000E+00 0. -1.
<mgrwt>
<rscale>  4 0.22805059E+03</rscale>
<asrwt>0</asrwt>
<pdfrwt beam="1">  1       21 0.16829245E-01 0.22805059E+03</pdfrwt>
<pdfrwt beam="2">  1        2 0.38643106E+00 0.22805059E+03</pdfrwt>
<totfact> 0.16048794E+03</totfact>
</mgrwt>
</event>
<event>
 5    0  0.3040647E+000  0.2715046E+03  0.7546771E-02  0.1100422E+00
         21   -1    0    0  501  502  0.00000000000E+00  0.00000000000E+00  0.76530204486E+03  0.76530204486E+03  0.00000000000E+00 0.  1.
         -2   -1    0    0    0  501 -0.00000000000E+00 -0.00000000000E+00 -0.28187411886E+03  0.28187411886E+03  0.00000000000E+00 0. -1.
         25    1    1    2    0    0  0.78104203624E+02 -0.23098474935E+03  0.34340568809E+03  0.43932526409E+03  0.12500000000E+03 0.  0.
         21    1    1    2  503  502 -0.40121521508E+02 -0.70440221771E+01  0.31015339917E+03  0.31281701641E+03  0.00000000000E+00 0.  1.
         -2    1    1    2    0  503 -0.37982682116E+02  0.23802877153E+03 -0.17013116126E+03  0.29503388322E+03  0.00000000000E+00 0. -1.
<mgrwt>
<rscale>  4 0.27150462E+03</rscale>
<asrwt>0</asrwt>
<pdfrwt beam="1">  1       21 0.11773878E+00 0.27150462E+03</pdfrwt>
<pdfrwt beam="2">  1       -2 0.43365249E-01 0.27150462E+03</pdfrwt>
<totfact> 0.21902522E+02</totfact>
</mgrwt>
</event>
<event>
 5    0  0.3040647E+000  0.3972726E+03  0.7546771E-02  0.1044728E+00
         21   -1    0    0  503  502  0.00000000000E+00  0.00000000000E+00  0.16147075854E+04  0.16147075854E+04  0.00000000000E+00 0.  1.
          1   -1    0    0  502    0 -0.00000000000E+00 -0.00000000000E+00 -0.33680591233E+03  0.33680591233E+03  0.00000000000E+00 0.  1.
         25    1    1    2    0    0  0.21326024776E+03  0.20959540173E+03  0.11474037274E+04  0.11922963052E+04  0.12500000000E+03 0.  0.
         21    1    1    2  503  501  0.49275342851E+02  0.72207217672E+02  0.31875394757E+03  0.33052385812E+03  0.00000000000E+00 0.  1.
          1    1    1    2  501    0 -0.26253559061E+03 -0.28180261941E+03 -0.18825600198E+03  0.42869333436E+03  0.00000000000E+00 0.  1.
<mgrwt>
<rscale>  4 0.39727265E+03</rscale>
<asrwt>0</asrwt>
<pdfrwt beam="1">  1       21 0.24841655E+00 0.39727265E+03</pdfrwt>
<pdfrwt beam="2">  1        1 0.51816295E-01 0.39727265E+03</pdfrwt>
<totfact> 0.48224479E+01</totfact>
</mgrwt>
</event>
<event>
 5    0  0.3040647E+000  0.2623536E+03  0.7546771E-02  0.1105737E+00
          2   -1    0    0  502    0 -0.00000000000E+00  0.00000000000E+00  0.13800150238E+03  0.13800150238E+03  0.00000000000E+00 0.  1.
         21   -1    0    0  503  502  0.00000000000E+00 -0.00000000000E+00 -0.73672543539E+03  0.73672543539E+03  0.00000000000E+00 0.  1.
         25    1    1    2    0    0 -0.24041305955E+03 -0.90054804653E+02 -0.26212613953E+03  0.38761246118E+03  0.12500000000E+03 0.  0.
         21    1    1    2  503  501  0.18687702452E+02  0.93869868140E+02 -0.21234491321E+03  0.23291875093E+03  0.00000000000E+00 0.  1.
          2    1    1    2  501    0  0.22172535710E+03 -0.38150634870E+01 -0.12425288027E+03  0.25419572566E+03  0.00000000000E+00 0.  1.
<mgrwt>
<rscale>  4 0.26235358E+03</rscale>
<asrwt>0</asrwt>
<pdfrwt beam="1">  1       21 0.11334237E+00 0.26235358E+03</pdfrwt>
<pdfrwt beam="2">  1        2 0.21231001E-01 0.26235358E+03</pdfrwt>
<totfact> 0.18754813E+03</totfact>
</mgrwt>
</event>
<event>
 5    0  0.3040647E+000  0.2636818E+03  0.7546771E-02  0.1104951E+00
         21   -1    0    0  503  502  0.00000000000E+00  0.00000000000E+00  0.16830254039E+04  0.16830254039E+04  0.00000000000E+00 0.  1.
          2   -1    0    0  502    0 -0.00000000000E+00 -0.00000000000E+00 -0.15630719515E+03  0.15630719515E+03  0.00000000000E+00 0. -1.
         25    1    1    2    0    0  0.32840394081E+03  0.92500397532E+02  0.12638186408E+04  0.13150163606E+04  0.12500000000E+03 0.  0.
         21    1    1    2  503  501 -0.10520267150E+03 -0.11430298440E+03  0.25660438758E+03  0.29996430798E+03  0.00000000000E+00 0.  1.
          2    1    1    2  501    0 -0.22320126931E+03  0.21802586872E+02  0.62951804143E+01  0.22435193048E+03  0.00000000000E+00 0. -1.
<mgrwt>
<rscale>  4 0.26368177E+03</rscale>
<asrwt>0</asrwt>
<pdfrwt beam="1">  1       21 0.25892697E+00 0.26368177E+03</pdfrwt>
<pdfrwt beam="2">  1        2 0.24047262E-01 0.26368177E+03</pdfrwt>
<totfact> 0.15295874E+02</totfact>
</mgrwt>
</event>
<event>
 5    0  0.3040647E+000  0.2477731E+03  0.7546771E-02  0.1114720E+00
         21   -1    0    0  503  502  0.00000000000E+00  0.00000000000E+00  0.34057901805E+03  0.34057901805E+03  0.00000000000E+00 0.  1.
          1   -1    0    0  502    0 -0.00000000000E+00 -0.00000000000E+00 -0.71367272320E+03  0.71367272320E+03  0.00000000000E+00 0.  1.
         25    1    1    2    0    0  0.26730219819E+03  0.38572652371E+02  0.70555751719E+02  0.30584543281E+03  0.12500000000E+03 0.  0.
         21    1    1    2  503  501 -0.62415455476E+02 -0.20654672322E+00  0.12665622643E+03  0.14120032379E+03  0.00000000000E+00 0.  1.
          1    1    1    2  501    0 -0.20488674272E+03 -0.38366105648E+02 -0.57030568330E+03  0.60720598466E+03  0.00000000000E+00 0.  1.
<mgrwt>
<rscale>  4 0.24777307E+03</rscale>
<asrwt>0</asrwt>
<pdfrwt beam="1">  1       21 0.52396772E-01 0.24777307E+03</pdfrwt>
<pdfrwt beam="2">  1        1 0.10979580E+00 0.24777307E+03</pdfrwt>
<totfact> 0.10266107E+03</totfact>
</mgrwt>
</event>
<event>
 5    0  0.3040647E+000  0.3304460E+03  0.7546771E-02  0.1070940E+00
          3   -1    0    0  502    0 -0.00000000000E+00  0.00000000000E+00  0.25990646934E+04  0.25990646934E+04  0.00000000000E+00 0. -1.
         21   -1    0    0  503  502  0.00000000000E+00 -0.00000000000E+00 -0.14623845208E+03  0.14623845208E+03  0.00000000000E+00 0. -1.
         25    1    1    2    0    0 -0.32782797586E+03  0.12037317305E+02  0.31994702210E+03  0.47498123722E+03  0.12500000000E+03 0.  0.
         21    1    1    2  503  501  0.27916173544E+02  0.32004600681E+02 -0.50509695905E+02  0.65991185703E+02  0.00000000000E+00 0. -1.
          3    1    1    2  501    0  0.29991180232E+03 -0.44041917986E+02  0.21833889151E+04  0.22043307226E+04  0.00000000000E+00 0. -1.
<mgrwt>
<rscale>  4 0.33044596E+03</rscale>
<asrwt>0</asrwt>
<pdfrwt beam="1">  1       21 0.22498225E-01 0.33044596E+03</pdfrwt>
<pdfrwt beam="2">  1        3 0.39985607E+00 0.33044596E+03</pdfrwt>
<totfact> 0.11696398E+01</totfact>
</mgrwt>
</event>
<event>
 5    0  0.3040647E+000  0.2335864E+03  0.7546771E-02  0.1124141E+00
         21   -1    0    0  503  502  0.00000000000E+00  0.00000000000E+00  0.64055403173E+03  0.64055403173E+03  0.00000000000E+00 0.  1.
          1   -1    0    0  502    0 -0.00000000000E+00 -0.00000000000E+00 -0.22373932805E+03  0.22373932805E+03  0.00000000000E+00 0.  1.
         25    1    1    2    0    0 -0.18550793491E+03  0.11016254680E+03  0.25008305004E+02  0.25059807651E+03  0.12500000000E+03 0.  0.
         21    1    1    2  503  501  0.21163873051E+02 -0.21321939548E+02  0.42319241386E+03  0.42425741452E+03  0.00000000000E+00 0.  1.
          1    1    1    2  501    0  0.16434406186E+03 -0.88840607248E+02 -0.31386015190E+02  0.18943786875E+03  0.00000000000E+00 0.  1.
<mgrwt>
<rscale>  4 0.23358636E+03</rscale>
<asrwt>0</asrwt>
<pdfrwt beam="1">  1       21 0.98546774E-01 0.23358636E+03</pdfrwt>
<pdfrwt beam="2">  1        1 0.34421435E-01 0.23358636E+03</pdfrwt>
<totfact> 0.11526891E+03</totfact>
</mgrwt>
</event>
<event>
 5    0  0.3040647E+000  0.2504439E+03  0.7546771E-02  0.1113025E+00
          1   -1    0    0  502    0 -0.00000000000E+00  0.00000000000E+00  0.96195175457E+03  0.96195175457E+03  0.00000000000E+00 0. -1.
         21   -1    0    0  503  502  0.00000000000E+00 -0.00000000000E+00 -0.14003025915E+03  0.14003025915E+03  0.00000000000E+00 0. -1.
         25    1    1    2    0    0 -0.24158156705E+03  0.56287803099E+02  0.69226317819E+03  0.74591103906E+03  0.12500000000E+03 0.  0.
         21    1    1    2  503  501  0.63152958656E+02 -0.60910309394E+02 -0.51514216384E+02  0.10174515451E+03  0.00000000000E+00 0.  1.
          1    1    1    2  501    0  0.17842860840E+03  0.46225062945E+01  0.18117253361E+03  0.25432582014E+03  0.00000000000E+00 0. -1.
<mgrwt>
<rscale>  4 0.25044394E+03</rscale>
<asrwt>0</asrwt>
<pdfrwt beam="1">  1       21 0.21543117E-01 0.25044394E+03</pdfrwt>
<pdfrwt beam="2">  1        1 0.14799257E+00 0.25044394E+03</pdfrwt>
<totfact> 0.37722058E+03</totfact>
</mgrwt>
</event>
<event>
 5    0  0.3040647E+000  0.2366898E+03  0.7546771E-02  0.1122018E+00
          2   -1    0    0  502    0 -0.00000000000E+00  0.00000000000E+00  0.13306090178E+04  0.13306090178E+04  0.00000000000E+00 0. -1.
         21   -1    0    0  503  502  0.00000000000E+00 -0.00000000000E+00 -0.27851245606E+03  0.27851245606E+03  0.00000000000E+00 0.  1.
         25    1    1    2    0    0 -0.10075411192E+03  0.18722444601E+03 -0.18342183059E+03  0.30736452656E+03  0.12500000000E+03 0.  0.
         21    1    1    2  503  501  0.29181354634E+02  0.24494470167E+00 -0.16658955348E+02  0.33602563138E+02  0.00000000000E+00 0.  1.
          2    1    1    2  501    0  0.71572757290E+02 -0.18746939071E+03  0.12521773477E+04  0.12681543842E+04  0.00000000000E+00 0. -1.
<mgrwt>
<rscale>  4 0.23668984E+03</rscale>
<asrwt>0</asrwt>
<pdfrwt beam="1">  1       21 0.42848071E-01 0.23668984E+03</pdfrwt>
<pdfrwt beam="2">  1        2 0.20470908E+00 0.23668984E+03</pdfrwt>
<totfact> 0.11047038E+03</totfact>
</mgrwt>
</event>
<event>
 5    0  0.3040647E+000  0.5067236E+03  0.7546771E-02  0.1012039E+00
         21   -1    0    0  503  502  0.00000000000E+00  0.00000000000E+00  0.18098182553E+03  0.18098182553E+03  0.00000000000E+00 0. -1.
          1   -1    0    0  502    0 -0.00000000000E+00 -0.00000000000E+00 -0.21343656790E+04  0.21343656790E+04  0.00000000000E+00 0. -1.
         25    1    1    2    0    0 -0.30428017830E+03  0.38262516710E+03 -0.37892479521E+03  0.63102887876E+03  0.12500000000E+03 0.  0.
         21    1    1    2  503  501 -0.27025315772E+02 -0.18934000340E+02  0.18212317346E+01  0.33048161015E+02  0.00000000000E+00 0. -1.
          1    1    1    2  501    0  0.33130549407E+03 -0.36369116676E+03 -0.15762802900E+04  0.16512704648E+04  0.00000000000E+00 0. -1.
<mgrwt>
<rscale>  4 0.50672362E+03</rscale>
<asrwt>0</asrwt>
<pdfrwt beam="1">  1       21 0.27843358E-01 0.50672362E+03</pdfrwt>
<pdfrwt beam="2">  1        1 0.32836395E+00 0.50672362E+03</pdfrwt>
<totfact> 0.33686141E+02</totfact>
</mgrwt>
</event>
<event>
 5    0  0.3040647E+000  0.2252972E+03  0.7546771E-02  0.1129994E+00
          2   -1    0    0  502    0 -0.00000000000E+00  0.00000000000E+00  0.22883848771E+03  0.22883848771E+03  0.00000000000E+00 0. -1.
         21   -1    0    0  503  502  0.00000000000E+00 -0.00000000000E+00 -0.51093320406E+03  0.51093320406E+03  0.00000000000E+00 0. -1.
         25    1    1    2    0    0  0.27847308412E+00 -0.20218214746E+03  0.46555150290E+02  0.24221907505E+03  0.12500000000E+03 0.  0.
         21    1    1    2  503  501 -0.15807677132E+02  0.28728069388E+02 -0.32159458640E+03  0.32326191027E+03  0.00000000000E+00 0. -1.
          2    1    1    2  501    0  0.15529204048E+02  0.17345407807E+03 -0.70552802294E+01  0.17429070645E+03  0.00000000000E+00 0. -1.
<mgrwt>
<rscale>  4 0.22529723E+03</rscale>
<asrwt>0</asrwt>
<pdfrwt beam="1">  1       21 0.78605108E-01 0.22529723E+03</pdfrwt>
<pdfrwt beam="2">  1        2 0.35205921E-01 0.22529723E+03</pdfrwt>
<totfact> 0.25647530E+03</totfact>
</mgrwt>
</event>
<event>
 5    0  0.3040647E+000  0.2530414E+03  0.7546771E-02  0.1111398E+00
          2   -1    0    0  502    0 -0.00000000000E+00  0.00000000000E+00  0.13968658698E+04  0.13968658698E+04  0.00000000000E+00 0.  1.
         21   -1    0    0  503  502  0.00000000000E+00 -0.00000000000E+00 -0.80102922426E+02  0.80102922426E+02  0.00000000000E+00 0.  1.
         25    1    1    2    0    0  0.14130736459E+02  0.20008331726E+03  0.16599652758E+03  0.28881284377E+03  0.12500000000E+03 0.  0.
         21    1    1    2  503  501 -0.40213050370E+02  0.22594565716E+02  0.66364642701E+02  0.80819982806E+02  0.00000000000E+00 0.  1.
          2    1    1    2  501    0  0.26082313911E+02 -0.22267788297E+03  0.10844017771E+04  0.11073359656E+04  0.00000000000E+00 0.  1.
<mgrwt>
<rscale>  4 0.25304140E+03</rscale>
<asrwt>0</asrwt>
<pdfrwt beam="1">  1       21 0.12323528E-01 0.25304140E+03</pdfrwt>
<pdfrwt beam="2">  1        2 0.21490242E+00 0.25304140E+03</pdfrwt>
<totfact> 0.10933257E+04</totfact>
</mgrwt>
</event>
<event>
 5    0  0.3040647E+000  0.3353979E+03  0.7546771E-02  0.1068773E+00
          2   -1    0    0  502    0 -0.00000000000E+00  0.00000000000E+00  0.12006629903E+04  0.12006629903E+04  0.00000000000E+00 0. -1.
         21   -1    0    0  503  502  0.00000000000E+00 -0.00000000000E+00 -0.15579158692E+03  0.15579158692E+03  0.00000000000E+00 0. -1.
         25    1    1    2    0    0 -0.25744688332E+03  0.17076894601E+03  0.18012599536E+03  0.37882885959E+03  0.12500000000E+03 0.  0.
         21    1    1    2  503  501  0.11161110655E+02  0.20827049308E+02 -0.25210195147E+02  0.34552717885E+02  0.00000000000E+00 0. -1.
          2    1    1    2  501    0  0.24628577266E+03 -0.19159599532E+03  0.88995560321E+03  0.94307299979E+03  0.00000000000E+00 0. -1.
<mgrwt>
<rscale>  4 0.33539794E+03</rscale>
<asrwt>0</asrwt>
<pdfrwt beam="1">  1       21 0.23967937E-01 0.33539794E+03</pdfrwt>
<pdfrwt beam="2">  1        2 0.18471738E+00 0.33539794E+03</pdfrwt>
<totfact> 0.39874996E+03</totfact>
</mgrwt>
</event>
<event>
 5    0  0.3040647E+000  0.2908906E+03  0.7546771E-02  0.1089885E+00
         21   -1    0    0  503  502  0.00000000000E+00  0.00000000000E+00  0.15293319969E+03  0.15293319969E+03  0.00000000000E+00 0. -1.
          2   -1    0    0  502    0 -0.00000000000E+00 -0.00000000000E+00 -0.87707186647E+03  0.87707186647E+03  0.00000000000E+00 0. -1.
         25    1    1    2    0    0 -0.62151883547E+02  0.23397029441E+03 -0.25421620855E+03  0.37263364848E+03  0.12500000000E+03 0.  0.
         21    1    1    2  503  501 -0.31815043652E+02  0.24279556439E+02  0.53131247387E+02  0.66517842060E+02  0.00000000000E+00 0. -1.
          2    1    1    2  501    0  0.93966927200E+02 -0.25824985084E+03 -0.52305370561E+03  0.59085357562E+03  0.00000000000E+00 0. -1.
<mgrwt>
<rscale>  4 0.29089057E+03</rscale>
<asrwt>0</asrwt>
<pdfrwt beam="1">  1       21 0.23528184E-01 0.29089057E+03</pdfrwt>
<pdfrwt beam="2">  1        2 0.13493413E+00 0.29089057E+03</pdfrwt>
<totfact> 0.65870104E+03</totfact>
</mgrwt>
</event>
<event>
 5    0  0.3040647E+000  0.3223173E+03  0.7546771E-02  0.1074588E+00
          1   -1    0    0  502    0 -0.00000000000E+00  0.00000000000E+00  0.60439059909E+03  0.60439059909E+03  0.00000000000E+00 0. -1.
         21   -1    0    0  503  502  0.00000000000E+00 -0.00000000000E+00 -0.53403110909E+03  0.53403110909E+03  0.00000000000E+00 0. -1.
         25    1    1    2    0    0  0.26435603628E+03  0.24486684452E+03 -0.35359410237E+03  0.52009390949E+03  0.12500000000E+03 0.  0.
         21    1    1    2  503  501 -0.16327431639E+03 -0.11897432315E+03  0.45798639865E+02  0.20714948075E+03  0.00000000000E+00 0. -1.
          1    1    1    2  501    0 -0.10108171989E+03 -0.12589252137E+03  0.37815495250E+03  0.41117831793E+03  0.00000000000E+00 0. -1.
<mgrwt>
<rscale>  4 0.32231730E+03</rscale>
<asrwt>0</asrwt>
<pdfrwt beam="1">  1       21 0.82158632E-01 0.32231730E+03</pdfrwt>
<pdfrwt beam="2">  1        1 0.92983169E-01 0.32231730E+03</pdfrwt>
<totfact> 0.46937649E+02</totfact>
</mgrwt>
</event>
<event>
 5    0  0.3040647E+000  0.3043637E+03  0.7546771E-02  0.1083079E+00
          2   -1    0    0  502    0 -0.00000000000E+00  0.00000000000E+00  0.19564975434E+04  0.19564975434E+04  0.00000000000E+00 0. -1.
         21   -1    0    0  503  502  0.00000000000E+00 -0.00000000000E+00 -0.75609478956E+02  0.75609478956E+02  0.00000000000E+00 0. -1.
         25    1    1    2    0    0 -0.17896853661E+03 -0.18344948733E+03  0.31869882654E+03  0.42764166488E+03  0.12500000000E+03 0.  0.
         21    1    1    2  503  501 -0.21473916649E+02 -0.15610418916E+02  0.12689334143E+02  0.29425048444E+02  0.00000000000E+00 0. -1.
          2    1    1    2  501    0  0.20044245326E+03  0.19905990625E+03  0.15494999038E+04  0.15750403090E+04  0.00000000000E+00 0. -1.
<mgrwt>
<rscale>  4 0.30436369E+03</rscale>
<asrwt>0</asrwt>
<pdfrwt beam="1">  1       21 0.11632229E-01 0.30436369E+03</pdfrwt>
<pdfrwt beam="2">  1        2 0.30099958E+00 0.30436369E+03</pdfrwt>
<totfact> 0.60279575E+03</totfact>
</mgrwt>
</event>
<event>
 5    0  0.3040647E+000  0.2330120E+03  0.7546771E-02  0.1124538E+00
         -1   -1    0    0    0  501 -0.00000000000E+00  0.00000000000E+00  0.10509233550E+04  0.10509233550E+04  0.00000000000E+00 0. -1.
         21   -1    0    0  501  502  0.00000000000E+00 -0.00000000000E+00 -0.11001992269E+03  0.11001992269E+03  0.00000000000E+00 0. -1.
         25    1    1    2    0    0 -0.20444256124E+03 -0.25868703429E+02  0.75789524656E+03  0.79529626896E+03  0.12500000000E+03 0.  0.
         21    1    1    2  503  502  0.19557273366E+03 -0.47856562482E+01  0.16742318985E+02  0.19634638245E+03  0.00000000000E+00 0. -1.
         -1    1    1    2    0  503  0.88698275889E+01  0.30654359677E+02  0.16626586673E+03  0.16930062625E+03  0.00000000000E+00 0. -1.
<mgrwt>
<rscale>  4 0.23301197E+03</rscale>
<asrwt>0</asrwt>
<pdfrwt beam="1">  1       21 0.16926143E-01 0.23301197E+03</pdfrwt>
<pdfrwt beam="2">  1       -1 0.16168051E+00 0.23301197E+03</pdfrwt>
<totfact> 0.90799252E+02</totfact>
</mgrwt>
</event>
<event>
 5    0  0.3040647E+000  0.2195496E+03  0.7546771E-02  0.1134219E+00
         21   -1    0    0  503  502  0.00000000000E+00  0.00000000000E+00  0.78319040384E+02  0.78319040384E+02  0.00000000000E+00 0. -1.
          2   -1    0    0  502    0 -0.00000000000E+00 -0.00000000000E+00 -0.95018230935E+03  0.95018230935E+03  0.00000000000E+00 0. -1.
         25    1    1    2    0    0 -0.16838093949E+03  0.11832625759E+03 -0.59969933487E+03  0.64623334505E+03  0.12500000000E+03 0.  0.
         21    1    1    2  503  501  0.91669854404E+02  0.24437505513E+02 -0.49908796408E+02  0.10719814290E+03  0.00000000000E+00 0. -1.
          2    1    1    2  501    0  0.76711085088E+02 -0.14276376310E+03 -0.22225513770E+03  0.27506986179E+03  0.00000000000E+00 0. -1.
<mgrwt>
<rscale>  4 0.21954959E+03</rscale>
<asrwt>0</asrwt>
<pdfrwt beam="1">  1       21 0.12049083E-01 0.21954959E+03</pdfrwt>
<pdfrwt beam="2">  1        2 0.14618189E+00 0.21954959E+03</pdfrwt>
<totfact> 0.20750649E+04</totfact>
</mgrwt>
</event>
<event>
 5    0  0.3040647E+000  0.2728039E+03  0.7546771E-02  0.1099686E+00
          2   -1    0    0  502    0 -0.00000000000E+00  0.00000000000E+00  0.37011134194E+04  0.37011134194E+04  0.00000000000E+00 0.  1.
         21   -1    0    0  503  502  0.00000000000E+00 -0.00000000000E+00 -0.78004791768E+02  0.78004791768E+02  0.00000000000E+00 0. -1.
         25    1    1    2    0    0 -0.27928145376E+03 -0.12708873037E+03  0.83552688117E+03  0.89882136432E+03  0.12500000000E+03 0.  0.
         21    1    1    2  503  501  0.10781333725E+03 -0.32775235565E+02  0.35351211229E+02  0.11810012655E+03  0.00000000000E+00 0. -1.
          2    1    1    2  501    0  0.17146811651E+03  0.15986396593E+03  0.27522305352E+04  0.27621967203E+04  0.00000000000E+00 0.  1.
<mgrwt>
<rscale>  4 0.27280388E+03</rscale>
<asrwt>0</asrwt>
<pdfrwt beam="1">  1       21 0.12000740E-01 0.27280388E+03</pdfrwt>
<pdfrwt beam="2">  1        2 0.56940193E+00 0.27280388E+03</pdfrwt>
<totfact> 0.54430386E+02</totfact>
</mgrwt>
</event>
<event>
 5    0  0.3040647E+000  0.2887187E+03  0.7546771E-02  0.1091020E+00
          4   -1    0    0  502    0 -0.00000000000E+00  0.00000000000E+00  0.21064546419E+03  0.21064546419E+03  0.00000000000E+00 0. -1.
         21   -1    0    0  503  502  0.00000000000E+00 -0.00000000000E+00 -0.45632036204E+03  0.45632036204E+03  0.00000000000E+00 0.  1.
         25    1    1    2    0    0 -0.95011723050E+02  0.23059692359E+03 -0.18496548234E+03  0.33472286797E+03  0.12500000000E+03 0.  0.
         21    1    1    2  503  501 -0.30858443222E+02  0.41012674830E+01 -0.58095025683E+02  0.65909755896E+02  0.00000000000E+00 0. -1.
          4    1    1    2  501    0  0.12587016627E+03 -0.23469819107E+03 -0.26143898274E+01  0.26633320237E+03  0.00000000000E+00 0. -1.
<mgrwt>
<rscale>  4 0.28871872E+03</rscale>
<asrwt>0</asrwt>
<pdfrwt beam="1">  1       21 0.70203133E-01 0.28871872E+03</pdfrwt>
<pdfrwt beam="2">  1        4 0.32406995E-01 0.28871872E+03</pdfrwt>
<totfact> 0.70559355E+02</totfact>
</mgrwt>
</event>
<event>
 5    0  0.3040647E+000  0.2097169E+03  0.7546771E-02  0.1141790E+00
          2   -1    0    0  502    0 -0.00000000000E+00  0.00000000000E+00  0.62656117796E+03  0.62656117796E+03  0.00000000000E+00 0. -1.
         21   -1    0    0  503  502  0.00000000000E+00 -0.00000000000E+00 -0.21375835132E+03  0.21375835132E+03  0.00000000000E+00 0. -1.
         25    1    1    2    0    0  0.20677249219E+03  0.56209419220E+02 -0.26768640404E+02  0.24951136737E+03  0.12500000000E+03 0.  0.
         21    1    1    2  503  501 -0.92398278607E+02  0.64687971508E+02 -0.82189400744E+01  0.11309078885E+03  0.00000000000E+00 0. -1.
          2    1    1    2  501    0 -0.11437421358E+03 -0.12089739073E+03  0.44779040712E+03  0.47771737306E+03  0.00000000000E+00 0. -1.
<mgrwt>
<rscale>  4 0.20971692E+03</rscale>
<asrwt>0</asrwt>
<pdfrwt beam="1">  1       21 0.32885900E-01 0.20971692E+03</pdfrwt>
<pdfrwt beam="2">  1        2 0.96394027E-01 0.20971692E+03</pdfrwt>
<totfact> 0.53380643E+03</totfact>
</mgrwt>
</event>
<event>
 5    0  0.3040647E+000  0.2317738E+03  0.7546771E-02  0.1125397E+00
         21   -1    0    0  503  502  0.00000000000E+00  0.00000000000E+00  0.33345574878E+02  0.33345574878E+02  0.00000000000E+00 0. -1.
          2   -1    0    0  502    0 -0.00000000000E+00 -0.00000000000E+00 -0.17995948721E+04  0.17995948721E+04  0.00000000000E+00 0. -1.
         25    1    1    2    0    0 -0.18976296689E+03 -0.76348171171E+02 -0.61052699805E+03  0.65590185408E+03  0.12500000000E+03 0.  0.
         21    1    1    2  503  501  0.19488387329E+02 -0.12379547060E+02 -0.54279789194E+02  0.58985980886E+02  0.00000000000E+00 0. -1.
          2    1    1    2  501    0  0.17027457956E+03  0.88727718231E+02 -0.11014425100E+04  0.11180526120E+04  0.00000000000E+00 0. -1.
<mgrwt>
<rscale>  4 0.23177378E+03</rscale>
<asrwt>0</asrwt>
<pdfrwt beam="1">  1       21 0.51300883E-02 0.23177378E+03</pdfrwt>
<pdfrwt beam="2">  1        2 0.27686076E+00 0.23177378E+03</pdfrwt>
<totfact> 0.31200320E+04</totfact>
</mgrwt>
</event>
<event>
 5    0  0.3040647E+000  0.3124121E+03  0.7546771E-02  0.1079195E+00
          2   -1    0    0  502    0 -0.00000000000E+00  0.00000000000E+00  0.15645535172E+04  0.15645535172E+04  0.00000000000E+00 0.  1.
         21   -1    0    0  503  502  0.00000000000E+00 -0.00000000000E+00 -0.14817497916E+03  0.14817497916E+03  0.00000000000E+00 0.  1.
         25    1    1    2    0    0 -0.28928758742E+03  0.16550759350E+02  0.60893813241E+02  0.32139429422E+03  0.12500000000E+03 0.  0.
         21    1    1    2  503  501  0.25368404262E+02 -0.27852590562E+02  0.75528507508E+02  0.84403069744E+02  0.00000000000E+00 0.  1.
          2    1    1    2  501    0  0.26391918315E+03  0.11301831212E+02  0.12799562173E+04  0.13069311324E+04  0.00000000000E+00 0.  1.
<mgrwt>
<rscale>  4 0.31241206E+03</rscale>
<asrwt>0</asrwt>
<pdfrwt beam="1">  1       21 0.22796152E-01 0.31241206E+03</pdfrwt>
<pdfrwt beam="2">  1        2 0.24070053E+00 0.31241206E+03</pdfrwt>
<totfact> 0.27843966E+03</totfact>
</mgrwt>
</event>
<event>
 5    0  0.3040647E+000  0.2840812E+03  0.7546771E-02  0.1093481E+00
         -2   -1    0    0    0  501 -0.00000000000E+00  0.00000000000E+00  0.36063033509E+03  0.36063033509E+03  0.00000000000E+00 0. -1.
         21   -1    0    0  501  502  0.00000000000E+00 -0.00000000000E+00 -0.47753316453E+03  0.47753316453E+03  0.00000000000E+00 0. -1.
         25    1    1    2    0    0 -0.11363576226E+03  0.21442853958E+03 -0.35738098304E+03  0.44970974204E+03  0.12500000000E+03 0.  0.
         21    1    1    2  503  502  0.11202497146E+02  0.21099709562E+02 -0.13337516671E+02  0.27360245556E+02  0.00000000000E+00 0. -1.
         -2    1    1    2    0  503  0.10243326511E+03 -0.23552824915E+03  0.25381567027E+03  0.36109351202E+03  0.00000000000E+00 0. -1.
<mgrwt>
<rscale>  4 0.28408122E+03</rscale>
<asrwt>0</asrwt>
<pdfrwt beam="1">  1       21 0.73466640E-01 0.28408122E+03</pdfrwt>
<pdfrwt beam="2">  1       -2 0.55481590E-01 0.28408122E+03</pdfrwt>
<totfact> 0.40561038E+02</totfact>
</mgrwt>
</event>
<event>
 5    0  0.3040647E+000  0.2147501E+03  0.7546771E-02  0.1137859E+00
          4   -1    0    0  502    0 -0.00000000000E+00  0.00000000000E+00  0.53632859276E+03  0.53632859276E+03  0.00000000000E+00 0.  1.
         21   -1    0    0  503  502  0.00000000000E+00 -0.00000000000E+00 -0.22225962269E+03  0.22225962269E+03  0.00000000000E+00 0. -1.
         25    1    1    2    0    0  0.16375359649E+03 -0.15202290649E+03  0.11344493932E+03  0.28003742378E+03  0.12500000000E+03 0.  0.
         21    1    1    2  503  501 -0.12870021684E+03  0.99498267956E+02 -0.86721636813E+02  0.18434829381E+03  0.00000000000E+00 0. -1.
          4    1    1    2  501    0 -0.35053379649E+02  0.52524638533E+02  0.28734566756E+03  0.29420249786E+03  0.00000000000E+00 0.  1.
<mgrwt>
<rscale>  4 0.21475014E+03</rscale>
<asrwt>0</asrwt>
<pdfrwt beam="1">  1       21 0.34193788E-01 0.21475014E+03</pdfrwt>
<pdfrwt beam="2">  1        4 0.82512091E-01 0.21475014E+03</pdfrwt>
<totfact> 0.45888781E+02</totfact>
</mgrwt>
</event>
<event>
 5    0  0.3040647E+000  0.2655405E+03  0.7546771E-02  0.1103859E+00
          1   -1    0    0  502    0 -0.00000000000E+00  0.00000000000E+00  0.12384878044E+04  0.12384878044E+04  0.00000000000E+00 0. -1.
         21   -1    0    0  503  502  0.00000000000E+00 -0.00000000000E+00 -0.67446700602E+02  0.67446700602E+02  0.00000000000E+00 0. -1.
         25    1    1    2    0    0 -0.91196628538E+02 -0.20471161749E+03  0.34375179295E+03  0.42896849133E+03  0.12500000000E+03 0.  0.
         21    1    1    2  503  501  0.33066369342E+02 -0.27862703404E+02  0.66686312247E+02  0.79478168471E+02  0.00000000000E+00 0.  1.
          1    1    1    2  501    0  0.58130259196E+02  0.23257432090E+03  0.76060299863E+03  0.79748784524E+03  0.00000000000E+00 0. -1.
<mgrwt>
<rscale>  4 0.26554053E+03</rscale>
<asrwt>0</asrwt>
<pdfrwt beam="1">  1       21 0.10376416E-01 0.26554053E+03</pdfrwt>
<pdfrwt beam="2">  1        1 0.19053657E+00 0.26554053E+03</pdfrwt>
<totfact> 0.90494334E+03</totfact>
</mgrwt>
</event>
<event>
 5    0  0.3040647E+000  0.3157466E+03  0.7546771E-02  0.1077624E+00
         21   -1    0    0  503  502  0.00000000000E+00  0.00000000000E+00  0.14041224544E+03  0.14041224544E+03  0.00000000000E+00 0.  1.
          2   -1    0    0  502    0 -0.00000000000E+00 -0.00000000000E+00 -0.10195242820E+04  0.10195242820E+04  0.00000000000E+00 0.  1.
         25    1    1    2    0    0 -0.27426364662E+03 -0.76716631592E+02 -0.13836582315E+03  0.34040577321E+03  0.12500000000E+03 0.  0.
         21    1    1    2  503  501 -0.15974616688E+02  0.42669642094E+02 -0.41309272179E+02  0.61500753676E+02  0.00000000000E+00 0. -1.
          2    1    1    2  501    0  0.29023826331E+03  0.34046989498E+02 -0.69943694127E+03  0.75803000059E+03  0.00000000000E+00 0.  1.
<mgrwt>
<rscale>  4 0.31574660E+03</rscale>
<asrwt>0</asrwt>
<pdfrwt beam="1">  1       21 0.21601884E-01 0.31574660E+03</pdfrwt>
<pdfrwt beam="2">  1        2 0.15684989E+00 0.31574660E+03</pdfrwt>
<totfact> 0.62592430E+03</totfact>
</mgrwt>
</event>
<event>
 5    0  0.3040647E+000  0.2285772E+03  0.7546771E-02  0.1127645E+00
         21   -1    0    0  501  502  0.00000000000E+00  0.00000000000E+00  0.41466507882E+03  0.41466507882E+03  0.00000000000E+00 0. -1.
         -1   -1    0    0    0  501 -0.00000000000E+00 -0.00000000000E+00 -0.21507653343E+03  0.21507653343E+03  0.00000000000E+00 0. -1.
         25    1    1    2    0    0 -0.66027488322E+02  0.23004497460E+03  0.43393416940E+02  0.27347451104E+03  0.12500000000E+03 0.  0.
         21    1    1    2  503  502  0.84325346361E+02 -0.15720424227E+03  0.20105310067E+03  0.26878669445E+03  0.00000000000E+00 0. -1.
         -1    1    1    2    0  503 -0.18297858038E+02 -0.72840732335E+02 -0.44857972211E+02  0.87480406760E+02  0.00000000000E+00 0. -1.
<mgrwt>
<rscale>  4 0.22857717E+03</rscale>
<asrwt>0</asrwt>
<pdfrwt beam="1">  1       21 0.63794627E-01 0.22857717E+03</pdfrwt>
<pdfrwt beam="2">  1       -1 0.33088698E-01 0.22857717E+03</pdfrwt>
<totfact> 0.17729897E+03</totfact>
</mgrwt>
</event>
<event>
 5    0  0.3040647E+000  0.2699282E+03  0.7546771E-02  0.1101321E+00
          2   -1    0    0  502    0 -0.00000000000E+00  0.00000000000E+00  0.23994362578E+04  0.23994362578E+04  0.00000000000E+00 0. -1.
         21   -1    0    0  503  502  0.00000000000E+00 -0.00000000000E+00 -0.26817008904E+03  0.26817008904E+03  0.00000000000E+00 0. -1.
         25    1    1    2    0    0 -0.16556713737E+02  0.20399759850E+03  0.78031416444E+03  0.81633592361E+03  0.12500000000E+03 0.  0.
         21    1    1    2  503  501 -0.51581483486E+02  0.48087400108E+02 -0.23428577003E+03  0.24466889775E+03  0.00000000000E+00 0. -1.
          2    1    1    2  501    0  0.68138197222E+02 -0.25208499861E+03  0.15852377743E+04  0.16066015255E+04  0.00000000000E+00 0. -1.
<mgrwt>
<rscale>  4 0.26992820E+03</rscale>
<asrwt>0</asrwt>
<pdfrwt beam="1">  1       21 0.41256938E-01 0.26992820E+03</pdfrwt>
<pdfrwt beam="2">  1        2 0.36914402E+00 0.26992820E+03</pdfrwt>
<totfact> 0.31709139E+02</totfact>
</mgrwt>
</event>
<event>
 5    0  0.3040647E+000  0.2787362E+03  0.7546771E-02  0.1096381E+00
          2   -1    0    0  502    0 -0.00000000000E+00  0.00000000000E+00  0.18861998367E+04  0.18861998367E+04  0.00000000000E+00 0. -1.
         21   -1    0    0  503  502  0.00000000000E+00 -0.00000000000E+00 -0.54271789539E+02  0.54271789539E+02  0.00000000000E+00 0. -1.
         25    1    1    2    0    0 -0.22991323304E+03  0.76447704329E+02  0.86250434066E+03  0.90456789899E+03  0.12500000000E+03 0.  0.
         21    1    1    2  503  501  0.46453705798E+01  0.45969765728E+02  0.16450136134E+02  0.49044936617E+02  0.00000000000E+00 0.  1.
          2    1    1    2  501    0  0.22526786246E+03 -0.12241747006E+03  0.95297357037E+03  0.98685879064E+03  0.00000000000E+00 0. -1.
<mgrwt>
<rscale>  4 0.27873615E+03</rscale>
<asrwt>0</asrwt>
<pdfrwt beam="1">  1       21 0.83495075E-02 0.27873615E+03</pdfrwt>
<pdfrwt beam="2">  1        2 0.29018454E+00 0.27873615E+03</pdfrwt>
<totfact> 0.11941970E+04</totfact>
</mgrwt>
</event>
<event>
 5    0  0.3040647E+000  0.2972501E+03  0.7546771E-02  0.1086623E+00
         21   -1    0    0  503  502  0.00000000000E+00  0.00000000000E+00  0.70009984593E+03  0.70009984593E+03  0.00000000000E+00 0. -1.
          2   -1    0    0  502    0 -0.00000000000E+00 -0.00000000000E+00 -0.19360853283E+04  0.19360853283E+04  0.00000000000E+00 0.  1.
         25    1    1    2    0    0  0.24455406140E+03  0.93563117558E+02 -0.23099514921E+03  0.37086992986E+03  0.12500000000E+03 0.  0.
         21    1    1    2  503  501  0.15283309688E+02 -0.16382717147E+02  0.61872506054E+03  0.61913057873E+03  0.00000000000E+00 0. -1.
          2    1    1    2  501    0 -0.25983737109E+03 -0.77180400411E+02 -0.16237153937E+04  0.16461846656E+04  0.00000000000E+00 0.  1.
<mgrwt>
<rscale>  4 0.29725012E+03</rscale>
<asrwt>0</asrwt>
<pdfrwt beam="1">  1       21 0.10770767E+00 0.29725012E+03</pdfrwt>
<pdfrwt beam="2">  1        2 0.29785928E+00 0.29725012E+03</pdfrwt>
<totfact> 0.65365748E+01</totfact>
</mgrwt>
</event>
<event>
 5    0  0.3040647E+000  0.1959357E+03  0.7546771E-02  0.1153214E+00
         21   -1    0    0  501  502  0.00000000000E+00  0.00000000000E+00  0.61403420356E+03  0.61403420356E+03  0.00000000000E+00 0.  1.
         -1   -1    0    0    0  501 -0.00000000000E+00 -0.00000000000E+00 -0.18739339883E+03  0.18739339883E+03  0.00000000000E+00 0.  1.
         25    1    1    2    0    0  0.75843940849E+02 -0.18600816554E+03  0.16862593464E+02  0.23719335587E+03  0.12500000000E+03 0.  0.
         21    1    1    2  503  502  0.20470328799E+02  0.95663391861E+02  0.42051362601E+03  0.43174324380E+03  0.00000000000E+00 0.  1.
         -1    1    1    2    0  503 -0.96314269648E+02  0.90344773683E+02 -0.10735414750E+02  0.13249100271E+03  0.00000000000E+00 0.  1.
<mgrwt>
<rscale>  4 0.19593566E+03</rscale>
<asrwt>0</asrwt>
<pdfrwt beam="1">  1       21 0.94466800E-01 0.19593566E+03</pdfrwt>
<pdfrwt beam="2">  1       -1 0.28829754E-01 0.19593566E+03</pdfrwt>
<totfact> 0.93659841E+02</totfact>
</mgrwt>
</event>
<event>
 5    0  0.3040647E+000  0.3738395E+03  0.7546771E-02  0.1053234E+00
          3   -1    0    0  502    0 -0.00000000000E+00  0.00000000000E+00  0.14707944152E+04  0.14707944152E+04  0.00000000000E+00 0.  1.
         21   -1    0    0  503  502  0.00000000000E+00 -0.00000000000E+00 -0.21215668705E+03  0.21215668705E+03  0.00000000000E+00 0.  1.
         25    1    1    2    0    0 -0.33985162093E+03  0.20199704779E+01  0.60897069881E+01  0.36216748758E+03  0.12500000000E+03 0.  0.
         21    1    1    2  503  501 -0.13392373518E+02 -0.27965437336E+02  0.16776790487E+02  0.35254532373E+02  0.00000000000E+00 0.  1.
          3    1    1    2  501    0  0.35324399445E+03  0.25945466858E+02  0.12357712307E+04  0.12855290823E+04  0.00000000000E+00 0.  1.
<mgrwt>
<rscale>  4 0.37383951E+03</rscale>
<asrwt>0</asrwt>
<pdfrwt beam="1">  1       21 0.32639491E-01 0.37383951E+03</pdfrwt>
<pdfrwt beam="2">  1        3 0.22627606E+00 0.37383951E+03</pdfrwt>
<totfact> 0.47440922E+01</totfact>
</mgrwt>
</event>
<event>
 5    0  0.3040647E+000  0.2689625E+03  0.7546771E-02  0.1101875E+00
          1   -1    0    0  502    0 -0.00000000000E+00  0.00000000000E+00  0.25934202412E+03  0.25934202412E+03  0.00000000000E+00 0.  1.
         21   -1    0    0  503  502  0.00000000000E+00 -0.00000000000E+00 -0.27097749931E+03  0.27097749931E+03  0.00000000000E+00 0.  1.
         25    1    1    2    0    0  0.23700118131E+03 -0.23372229681E+02  0.53163779217E+02  0.27416638832E+03  0.12500000000E+03 0.  0.
         21    1    1    2  503  501 -0.16377165005E+03  0.13813730511E+02 -0.76666083281E+02  0.18135506841E+03  0.00000000000E+00 0.  1.
          1    1    1    2  501    0 -0.73229531263E+02  0.95584991702E+01  0.11866828872E+02  0.74798066706E+02  0.00000000000E+00 0.  1.
<mgrwt>
<rscale>  4 0.26896249E+03</rscale>
<asrwt>0</asrwt>
<pdfrwt beam="1">  1       21 0.41688846E-01 0.26896249E+03</pdfrwt>
<pdfrwt beam="2">  1        1 0.39898773E-01 0.26896249E+03</pdfrwt>
<totfact> 0.62519193E+03</totfact>
</mgrwt>
</event>
<event>
 5    0  0.3040647E+000  0.2517489E+03  0.7546771E-02  0.1112205E+00
         21   -1    0    0  503  502  0.00000000000E+00  0.00000000000E+00  0.48202088258E+02  0.48202088258E+02  0.00000000000E+00 0.  1.
          2   -1    0    0  502    0 -0.00000000000E+00 -0.00000000000E+00 -0.20482351878E+04  0.20482351878E+04  0.00000000000E+00 0. -1.
         25    1    1    2    0    0  0.22376571483E+03 -0.78521833757E+02 -0.59867684947E+03  0.65595407126E+03  0.12500000000E+03 0.  0.
         21    1    1    2  503  501 -0.21554717103E+02  0.10710193111E+02 -0.11176330179E+01  0.24094878490E+02  0.00000000000E+00 0.  1.
          2    1    1    2  501    0 -0.20221099773E+03  0.67811640645E+02 -0.14002386170E+04  0.14163883263E+04  0.00000000000E+00 0. -1.
<mgrwt>
<rscale>  4 0.25174887E+03</rscale>
<asrwt>0</asrwt>
<pdfrwt beam="1">  1       21 0.74157076E-02 0.25174887E+03</pdfrwt>
<pdfrwt beam="2">  1        2 0.31511303E+00 0.25174887E+03</pdfrwt>
<totfact> 0.12181498E+04</totfact>
</mgrwt>
</event>
<event>
 5    0  0.3040647E+000  0.2614540E+03  0.7546771E-02  0.1106273E+00
          2   -1    0    0  502    0 -0.00000000000E+00  0.00000000000E+00  0.15161878076E+04  0.15161878076E+04  0.00000000000E+00 0.  1.
         21   -1    0    0  503  502  0.00000000000E+00 -0.00000000000E+00 -0.80387488117E+02  0.80387488117E+02  0.00000000000E+00 0.  1.
         25    1    1    2    0    0 -0.28022431841E+03  0.44265735383E+02  0.59485266734E+03  0.67079044403E+03  0.12500000000E+03 0.  0.
         21    1    1    2  503  501  0.20247537691E+03 -0.42370302895E+02  0.22773521400E+03  0.30766028102E+03  0.00000000000E+00 0.  1.
          2    1    1    2  501    0  0.77748941504E+02 -0.18954324881E+01  0.61321243811E+03  0.61812457063E+03  0.00000000000E+00 0.  1.
<mgrwt>
<rscale>  4 0.26145397E+03</rscale>
<asrwt>0</asrwt>
<pdfrwt beam="1">  1       21 0.12367307E-01 0.26145397E+03</pdfrwt>
<pdfrwt beam="2">  1        2 0.23325964E+00 0.26145397E+03</pdfrwt>
<totfact> 0.93467794E+03</totfact>
</mgrwt>
</event>
<event>
 5    0  0.3040647E+000  0.3387027E+03  0.7546771E-02  0.1067350E+00
         21   -1    0    0  501  502  0.00000000000E+00  0.00000000000E+00  0.93627052159E+03  0.93627052159E+03  0.00000000000E+00 0. -1.
         -2   -1    0    0    0  501 -0.00000000000E+00 -0.00000000000E+00 -0.15527184552E+04  0.15527184552E+04  0.00000000000E+00 0. -1.
         25    1    1    2    0    0 -0.26891530667E+03 -0.10552322761E+03  0.80405044494E+03  0.86346552435E+03  0.12500000000E+03 0.  0.
         21    1    1    2  503  502  0.16529643832E+02 -0.83815515177E+02  0.64710442702E+02  0.10717140992E+03  0.00000000000E+00 0. -1.
         -2    1    1    2    0  503  0.25238566284E+03  0.18933874279E+03 -0.14852088212E+04  0.15183520425E+04  0.00000000000E+00 0. -1.
<mgrwt>
<rscale>  4 0.33870269E+03</rscale>
<asrwt>0</asrwt>
<pdfrwt beam="1">  1       21 0.14404162E+00 0.33870269E+03</pdfrwt>
<pdfrwt beam="2">  1       -2 0.23887976E+00 0.33870269E+03</pdfrwt>
<totfact> 0.20512274E+00</totfact>
</mgrwt>
</event>
<event>
 5    0  0.3040647E+000  0.3505137E+03  0.7546771E-02  0.1062404E+00
          2   -1    0    0  502    0 -0.00000000000E+00  0.00000000000E+00  0.20779511042E+04  0.20779511042E+04  0.00000000000E+00 0.  1.
         21   -1    0    0  503  502  0.00000000000E+00 -0.00000000000E+00 -0.23286916941E+03  0.23286916941E+03  0.00000000000E+00 0. -1.
         25    1    1    2    0    0 -0.33968637081E+03  0.38767601232E+02 -0.75443284305E+01  0.36410393339E+03  0.12500000000E+03 0.  0.
         21    1    1    2  503  501  0.19131348554E+02  0.22965371344E+02 -0.26196154504E+02  0.39744877522E+02  0.00000000000E+00 0. -1.
          2    1    1    2  501    0  0.32055502226E+03 -0.61732972576E+02  0.18788224177E+04  0.19069714627E+04  0.00000000000E+00 0.  1.
<mgrwt>
<rscale>  4 0.35051370E+03</rscale>
<asrwt>0</asrwt>
<pdfrwt beam="1">  1       21 0.35826028E-01 0.35051370E+03</pdfrwt>
<pdfrwt beam="2">  1        2 0.31968477E+00 0.35051370E+03</pdfrwt>
<totfact> 0.60286579E+02</totfact>
</mgrwt>
</event>
<event>
 5    0  0.3040647E+000  0.3453811E+03  0.7546771E-02  0.1064527E+00
          2   -1    0    0  502    0 -0.00000000000E+00  0.00000000000E+00  0.22887671251E+04  0.22887671251E+04  0.00000000000E+00 0.  1.
         21   -1    0    0  503  502  0.00000000000E+00 -0.00000000000E+00 -0.67092515460E+02  0.67092515460E+02  0.00000000000E+00 0.  1.
         25    1    1    2    0    0 -0.22214949156E+03 -0.24254981653E+03  0.15718162483E+04  0.16107178922E+04  0.12500000000E+03 0.  0.
         21    1    1    2  503  501  0.44786779690E+02 -0.12295083265E+02  0.42189673328E+02  0.62745463924E+02  0.00000000000E+00 0.  1.
          2    1    1    2  501    0  0.17736271187E+03  0.25484489980E+03  0.60766868805E+03  0.68239628439E+03  0.00000000000E+00 0.  1.
<mgrwt>
<rscale>  4 0.34538111E+03</rscale>
<asrwt>0</asrwt>
<pdfrwt beam="1">  1       21 0.10321927E-01 0.34538111E+03</pdfrwt>
<pdfrwt beam="2">  1        2 0.35211796E+00 0.34538111E+03</pdfrwt>
<totfact> 0.49054815E+03</totfact>
</mgrwt>
</event>
<event>
 5    0  0.3040647E+000  0.2894979E+03  0.7546771E-02  0.1090612E+00
          3   -1    0    0  502    0 -0.00000000000E+00  0.00000000000E+00  0.14019967143E+03  0.14019967143E+03  0.00000000000E+00 0.  1.
         21   -1    0    0  503  502  0.00000000000E+00 -0.00000000000E+00 -0.21059559302E+04  0.21059559302E+04  0.00000000000E+00 0.  1.
         25    1    1    2    0    0  0.17903681933E+03 -0.22605135865E+03 -0.12777382784E+04  0.13158242692E+04  0.12500000000E+03 0.  0.
         21    1    1    2  503  501 -0.12137231253E+02  0.28997175726E+02 -0.67078480852E+03  0.67152096610E+03  0.00000000000E+00 0.  1.
          3    1    1    2  501    0 -0.16689958808E+03  0.19705418293E+03 -0.17233171903E+02  0.25881036634E+03  0.00000000000E+00 0.  1.
<mgrwt>
<rscale>  4 0.28949788E+03</rscale>
<asrwt>0</asrwt>
<pdfrwt beam="1">  1       21 0.32399317E+00 0.28949788E+03</pdfrwt>
<pdfrwt beam="2">  1        3 0.21569183E-01 0.28949788E+03</pdfrwt>
<totfact> 0.22109165E+01</totfact>
</mgrwt>
</event>
<event>
 5    0  0.3040647E+000  0.2434298E+03  0.7546771E-02  0.1117529E+00
          1   -1    0    0  502    0 -0.00000000000E+00  0.00000000000E+00  0.49542749152E+03  0.49542749152E+03  0.00000000000E+00 0.  1.
         21   -1    0    0  503  502  0.00000000000E+00 -0.00000000000E+00 -0.17267728801E+03  0.17267728801E+03  0.00000000000E+00 0.  1.
         25    1    1    2    0    0 -0.17226702256E+03 -0.10559472166E+03  0.29776184683E+03  0.38093738296E+03  0.12500000000E+03 0.  0.
         21    1    1    2  503  501 -0.11281215487E+02 -0.19762250405E+02 -0.48081215766E+02  0.53194131946E+02  0.00000000000E+00 0.  1.
          1    1    1    2  501    0  0.18354823805E+03  0.12535697207E+03  0.73069572442E+02  0.23397326462E+03  0.00000000000E+00 0.  1.
<mgrwt>
<rscale>  4 0.24342976E+03</rscale>
<asrwt>0</asrwt>
<pdfrwt beam="1">  1       21 0.26565737E-01 0.24342976E+03</pdfrwt>
<pdfrwt beam="2">  1        1 0.76219614E-01 0.24342976E+03</pdfrwt>
<totfact> 0.67204602E+03</totfact>
</mgrwt>
</event>
<event>
 5    0  0.3040647E+000  0.3122517E+03  0.7546771E-02  0.1079272E+00
         -3   -1    0    0    0  501 -0.00000000000E+00  0.00000000000E+00  0.33038952854E+03  0.33038952854E+03  0.00000000000E+00 0.  1.
         21   -1    0    0  501  502  0.00000000000E+00 -0.00000000000E+00 -0.11244568574E+04  0.11244568574E+04  0.00000000000E+00 0. -1.
         25    1    1    2    0    0 -0.14201304318E+03  0.18727200516E+03 -0.83127939171E+03  0.87286249514E+03  0.12500000000E+03 0.  0.
         21    1    1    2  503  502  0.14845553046E+03  0.10834899704E+03 -0.14548684204E+03  0.23440343618E+03  0.00000000000E+00 0.  1.
         -3    1    1    2    0  503 -0.64424872847E+01 -0.29562100220E+03  0.18269890490E+03  0.34758045462E+03  0.00000000000E+00 0.  1.
<mgrwt>
<rscale>  4 0.31225170E+03</rscale>
<asrwt>0</asrwt>
<pdfrwt beam="1">  1       21 0.17299337E+00 0.31225170E+03</pdfrwt>
<pdfrwt beam="2">  1       -3 0.50829157E-01 0.31225170E+03</pdfrwt>
<totfact> 0.36560169E+01</totfact>
</mgrwt>
</event>
<event>
 5    0  0.3040647E+000  0.2567479E+03  0.7546771E-02  0.1109113E+00
         21   -1    0    0  501  502  0.00000000000E+00  0.00000000000E+00  0.67131667705E+03  0.67131667705E+03  0.00000000000E+00 0. -1.
         -1   -1    0    0    0  501 -0.00000000000E+00 -0.00000000000E+00 -0.16287419124E+03  0.16287419124E+03  0.00000000000E+00 0. -1.
         25    1    1    2    0    0  0.20151075227E+03  0.28819734979E+02  0.41459477177E+03  0.47848822889E+03  0.12500000000E+03 0.  0.
         21    1    1    2  503  502  0.28059856119E+02 -0.40255125837E+02  0.11484655241E+03  0.12489019690E+03  0.00000000000E+00 0. -1.
         -1    1    1    2    0  503 -0.22957060839E+03  0.11435390858E+02 -0.20998838363E+02  0.23081244250E+03  0.00000000000E+00 0. -1.
<mgrwt>
<rscale>  4 0.25674793E+03</rscale>
<asrwt>0</asrwt>
<pdfrwt beam="1">  1       21 0.10327949E+00 0.25674793E+03</pdfrwt>
<pdfrwt beam="2">  1       -1 0.25057568E-01 0.25674793E+03</pdfrwt>
<totfact> 0.93573464E+02</totfact>
</mgrwt>
</event>
<event>
 5    0  0.3040647E+000  0.2121348E+03  0.7546771E-02  0.1139887E+00
          2   -1    0    0  502    0 -0.00000000000E+00  0.00000000000E+00  0.49062836784E+03  0.49062836784E+03  0.00000000000E+00 0.  1.
         21   -1    0    0  503  502  0.00000000000E+00 -0.00000000000E+00 -0.32849413452E+03  0.32849413452E+03  0.00000000000E+00 0. -1.
         25    1    1    2    0    0 -0.24801798018E+03 -0.65049317614E+02 -0.12651806022E+03  0.31205152103E+03  0.12500000000E+03 0.  0.
         21    1    1    2  503  501  0.91022918256E+02  0.16209987894E+02 -0.67717348332E+02  0.11460180898E+03  0.00000000000E+00 0. -1.
          2    1    1    2  501    0  0.15699506192E+03  0.48839329720E+02  0.35636964188E+03  0.39246917236E+03  0.00000000000E+00 0.  1.
<mgrwt>
<rscale>  4 0.21213481E+03</rscale>
<asrwt>0</asrwt>
<pdfrwt beam="1">  1       21 0.50537559E-01 0.21213481E+03</pdfrwt>
<pdfrwt beam="2">  1        2 0.75481288E-01 0.21213481E+03</pdfrwt>
<totfact> 0.29439368E+03</totfact>
</mgrwt>
</event>
<event>
 5    0  0.3040647E+000  0.2466294E+03  0.7546771E-02  0.1115454E+00
         -1   -1    0    0    0  501 -0.00000000000E+00  0.00000000000E+00  0.11680771081E+03  0.11680771081E+03  0.00000000000E+00 0. -1.
         21   -1    0    0  501  502  0.00000000000E+00 -0.00000000000E+00 -0.11840040226E+04  0.11840040226E+04  0.00000000000E+00 0. -1.
         25    1    1    2    0    0  0.29547597715E+03  0.72971101297E+02 -0.63072422359E+03  0.71138518464E+03  0.12500000000E+03 0.  0.
         21    1    1    2  503  502 -0.17248784330E+03 -0.21825372264E+02 -0.42080683439E+03  0.45530955934E+03  0.00000000000E+00 0. -1.
         -1    1    1    2    0  503 -0.12298813385E+03 -0.51145729033E+02 -0.15665253783E+02  0.13411698939E+03  0.00000000000E+00 0. -1.
<mgrwt>
<rscale>  4 0.24662938E+03</rscale>
<asrwt>0</asrwt>
<pdfrwt beam="1">  1       21 0.18215446E+00 0.24662938E+03</pdfrwt>
<pdfrwt beam="2">  1       -1 0.17970417E-01 0.24662938E+03</pdfrwt>
<totfact> 0.36987053E+02</totfact>
</mgrwt>
</event>
<event>
 5    0  0.3040647E+000  0.2156114E+03  0.7546771E-02  0.1137198E+00
         -3   -1    0    0    0  501 -0.00000000000E+00  0.00000000000E+00  0.11723493556E+03  0.11723493556E+03  0.00000000000E+00 0. -1.
         21   -1    0    0  501  502  0.00000000000E+00 -0.00000000000E+00 -0.70637613246E+03  0.70637613246E+03  0.00000000000E+00 0. -1.
         25    1    1    2    0    0 -0.14193699144E+03  0.16974877294E+03 -0.18987558120E+03  0.31723570384E+03  0.12500000000E+03 0.  0.
         21    1    1    2  503  502  0.48248489312E+02 -0.47047412311E+02 -0.33062611039E+03  0.33742406642E+03  0.00000000000E+00 0. -1.
         -3    1    1    2    0  503  0.93688502128E+02 -0.12270136063E+03 -0.68639505309E+02  0.16895129777E+03  0.00000000000E+00 0. -1.
<mgrwt>
<rscale>  4 0.21561139E+03</rscale>
<asrwt>0</asrwt>
<pdfrwt beam="1">  1       21 0.10867325E+00 0.21561139E+03</pdfrwt>
<pdfrwt beam="2">  1       -3 0.18036144E-01 0.21561139E+03</pdfrwt>
<totfact> 0.88873368E+02</totfact>
</mgrwt>
</event>
<event>
 5    0  0.3040647E+000  0.3311594E+03  0.7546771E-02  0.1070625E+00
         21   -1    0    0  503  502  0.00000000000E+00  0.00000000000E+00  0.47418753854E+03  0.47418753854E+03  0.00000000000E+00 0. -1.
          1   -1    0    0  502    0 -0.00000000000E+00 -0.00000000000E+00 -0.51218197668E+03  0.51218197668E+03  0.00000000000E+00 0. -1.
         25    1    1    2    0    0 -0.17674750749E+03  0.21571014773E+03  0.34031938357E+03  0.45739789251E+03  0.12500000000E+03 0.  0.
         21    1    1    2  503  501 -0.33891155928E+02  0.12499281679E+02  0.40806662051E+01  0.36352363463E+02  0.00000000000E+00 0. -1.
          1    1    1    2  501    0  0.21063866342E+03 -0.22820942941E+03 -0.38239448791E+03  0.49261925925E+03  0.00000000000E+00 0. -1.
<mgrwt>
<rscale>  4 0.33115938E+03</rscale>
<asrwt>0</asrwt>
<pdfrwt beam="1">  1       21 0.72951929E-01 0.33115938E+03</pdfrwt>
<pdfrwt beam="2">  1        1 0.78797227E-01 0.33115938E+03</pdfrwt>
<totfact> 0.77028436E+02</totfact>
</mgrwt>
</event>
<event>
 5    0  0.3040647E+000  0.2384016E+03  0.7546771E-02  0.1120862E+00
          2   -1    0    0  502    0 -0.00000000000E+00  0.00000000000E+00  0.14834590759E+04  0.14834590759E+04  0.00000000000E+00 0. -1.
         21   -1    0    0  503  502  0.00000000000E+00 -0.00000000000E+00 -0.65611404550E+02  0.65611404550E+02  0.00000000000E+00 0. -1.
         25    1    1    2    0    0  0.20777632759E+03  0.85701972735E+02  0.53245870693E+03  0.59131472587E+03  0.12500000000E+03 0.  0.
         21    1    1    2  503  501 -0.31629906496E+02 -0.12220639184E+01 -0.15980686951E+02  0.35458803993E+02  0.00000000000E+00 0. -1.
          2    1    1    2  501    0 -0.17614642110E+03 -0.84479908817E+02  0.90136965139E+03  0.92229695061E+03  0.00000000000E+00 0. -1.
<mgrwt>
<rscale>  4 0.23840163E+03</rscale>
<asrwt>0</asrwt>
<pdfrwt beam="1">  1       21 0.10094063E-01 0.23840163E+03</pdfrwt>
<pdfrwt beam="2">  1        2 0.22822445E+00 0.23840163E+03</pdfrwt>
<totfact> 0.14092739E+04</totfact>
</mgrwt>
</event>
<event>
 5    0  0.3040647E+000  0.2190366E+03  0.7546771E-02  0.1134603E+00
         21   -1    0    0  503  502  0.00000000000E+00  0.00000000000E+00  0.11812195994E+04  0.11812195994E+04  0.00000000000E+00 0. -1.
          1   -1    0    0  502    0 -0.00000000000E+00 -0.00000000000E+00 -0.79025469007E+03  0.79025469007E+03  0.00000000000E+00 0.  1.
         25    1    1    2    0    0 -0.18405617247E+03  0.10138168813E+03  0.30423706059E+03  0.39030771239E+03  0.12500000000E+03 0.  0.
         21    1    1    2  503  501  0.17445110917E+02 -0.35989270240E+02  0.82273626936E+03  0.82370779308E+03  0.00000000000E+00 0. -1.
          1    1    1    2  501    0  0.16661106156E+03 -0.65392417886E+02 -0.73600842065E+03  0.75745878397E+03  0.00000000000E+00 0.  1.
<mgrwt>
<rscale>  4 0.21903656E+03</rscale>
<asrwt>0</asrwt>
<pdfrwt beam="1">  1       21 0.18172609E+00 0.21903656E+03</pdfrwt>
<pdfrwt beam="2">  1        1 0.12157764E+00 0.21903656E+03</pdfrwt>
<totfact> 0.45248554E+01</totfact>
</mgrwt>
</event>
<event>
 5    0  0.3040647E+000  0.2359280E+03  0.7546771E-02  0.1122536E+00
         21   -1    0    0  503  502  0.00000000000E+00  0.00000000000E+00  0.14149119849E+03  0.14149119849E+03  0.00000000000E+00 0. -1.
          1   -1    0    0  502    0 -0.00000000000E+00 -0.00000000000E+00 -0.17459880821E+04  0.17459880821E+04  0.00000000000E+00 0.  1.
         25    1    1    2    0    0 -0.19943471985E+03 -0.31128513775E+02  0.14060355230E+02  0.23783583717E+03  0.12500000000E+03 0.  0.
         21    1    1    2  503  501  0.14836495570E+02  0.73330532448E+02 -0.13755993716E+03  0.15658935117E+03  0.00000000000E+00 0.  1.
          1    1    1    2  501    0  0.18459822428E+03 -0.42202018673E+02 -0.14809973017E+04  0.14930540923E+04  0.00000000000E+00 0.  1.
<mgrwt>
<rscale>  4 0.23592799E+03</rscale>
<asrwt>0</asrwt>
<pdfrwt beam="1">  1       21 0.21767877E-01 0.23592799E+03</pdfrwt>
<pdfrwt beam="2">  1        1 0.26861354E+00 0.23592799E+03</pdfrwt>
<totfact> 0.10803334E+03</totfact>
</mgrwt>
</event>
<event>
 5    0  0.3040647E+000  0.3344305E+03  0.7546771E-02  0.1069193E+00
         21   -1    0    0  503  502  0.00000000000E+00  0.00000000000E+00  0.17974386877E+03  0.17974386877E+03  0.00000000000E+00 0. -1.
          1   -1    0    0  502    0 -0.00000000000E+00 -0.00000000000E+00 -0.29765215351E+04  0.29765215351E+04  0.00000000000E+00 0. -1.
         25    1    1    2    0    0  0.26150617771E+03  0.50147081181E+02 -0.22600442475E+03  0.37094906758E+03  0.12500000000E+03 0.  0.
         21    1    1    2  503  501  0.20948660930E+02  0.94159525604E+02  0.74009247654E+02  0.12158220016E+03  0.00000000000E+00 0. -1.
          1    1    1    2  501    0 -0.28245483864E+03 -0.14430660678E+03 -0.26447824893E+04  0.26637341362E+04  0.00000000000E+00 0. -1.
<mgrwt>
<rscale>  4 0.33443051E+03</rscale>
<asrwt>0</asrwt>
<pdfrwt beam="1">  1       21 0.27652905E-01 0.33443051E+03</pdfrwt>
<pdfrwt beam="2">  1        1 0.45792636E+00 0.33443051E+03</pdfrwt>
<totfact> 0.98219647E+01</totfact>
</mgrwt>
</event>
<event>
 5    0  0.3040647E+000  0.2417646E+03  0.7546771E-02  0.1118623E+00
          2   -1    0    0  502    0 -0.00000000000E+00  0.00000000000E+00  0.30235280549E+04  0.30235280549E+04  0.00000000000E+00 0.  1.
         21   -1    0    0  503  502  0.00000000000E+00 -0.00000000000E+00 -0.25951087779E+02  0.25951087779E+02  0.00000000000E+00 0.  1.
         25    1    1    2    0    0 -0.17539671430E+03 -0.11850387274E+03  0.13602832580E+04  0.13823178785E+04  0.12500000000E+03 0.  0.
         21    1    1    2  503  501  0.28230971263E+02 -0.24724627010E+02  0.33595685914E+02  0.50368293908E+02  0.00000000000E+00 0.  1.
          2    1    1    2  501    0  0.14716574303E+03  0.14322849975E+03  0.16036980233E+04  0.16167929703E+04  0.00000000000E+00 0.  1.
<mgrwt>
<rscale>  4 0.24176459E+03</rscale>
<asrwt>0</asrwt>
<pdfrwt beam="1">  1       21 0.39924774E-02 0.24176459E+03</pdfrwt>
<pdfrwt beam="2">  1        2 0.46515788E+00 0.24176459E+03</pdfrwt>
<totfact> 0.10215281E+04</totfact>
</mgrwt>
</event>
<event>
 5    0  0.3040647E+000  0.2250220E+03  0.7546771E-02  0.1130193E+00
         21   -1    0    0  501  502  0.00000000000E+00  0.00000000000E+00  0.89250147876E+03  0.89250147876E+03  0.00000000000E+00 0. -1.
         -4   -1    0    0    0  501 -0.00000000000E+00 -0.00000000000E+00 -0.34823094081E+03  0.34823094081E+03  0.00000000000E+00 0.  1.
         25    1    1    2    0    0 -0.63683410992E+02  0.19268470971E+03 -0.26542716221E+03  0.35673456887E+03  0.12500000000E+03 0.  0.
         21    1    1    2  503  502  0.69976243685E+02 -0.17297992508E+03  0.83253216685E+03  0.85318728190E+03  0.00000000000E+00 0. -1.
         -4    1    1    2    0  503 -0.62928326936E+01 -0.19704784636E+02 -0.22834466693E+02  0.30810568804E+02  0.00000000000E+00 0.  1.
<mgrwt>
<rscale>  4 0.22502204E+03</rscale>
<asrwt>0</asrwt>
<pdfrwt beam="1">  1       21 0.13730792E+00 0.22502204E+03</pdfrwt>
<pdfrwt beam="2">  1       -4 0.53573991E-01 0.22502204E+03</pdfrwt>
<totfact> 0.52546601E+01</totfact>
</mgrwt>
</event>
<event>
 5    0  0.3040647E+000  0.3102814E+03  0.7546771E-02  0.1080211E+00
         21   -1    0    0  503  502  0.00000000000E+00  0.00000000000E+00  0.14026211980E+03  0.14026211980E+03  0.00000000000E+00 0. -1.
          2   -1    0    0  502    0 -0.00000000000E+00 -0.00000000000E+00 -0.15258482531E+04  0.15258482531E+04  0.00000000000E+00 0.  1.
         25    1    1    2    0    0 -0.21739260933E+03  0.25461582995E+03 -0.30232788819E+03  0.46809819422E+03  0.12500000000E+03 0.  0.
         21    1    1    2  503  501 -0.24811620037E+02 -0.12118503856E+03 -0.58937262681E+02  0.13702200915E+03  0.00000000000E+00 0. -1.
          2    1    1    2  501    0  0.24220422937E+03 -0.13343079138E+03 -0.10243209825E+04  0.10609901696E+04  0.00000000000E+00 0.  1.
<mgrwt>
<rscale>  4 0.31028137E+03</rscale>
<asrwt>0</asrwt>
<pdfrwt beam="1">  1       21 0.21578788E-01 0.31028137E+03</pdfrwt>
<pdfrwt beam="2">  1        2 0.23474589E+00 0.31028137E+03</pdfrwt>
<totfact> 0.32453869E+03</totfact>
</mgrwt>
</event>
<event>
 5    0  0.3040647E+000  0.2903835E+03  0.7546771E-02  0.1090149E+00
         21   -1    0    0  503  502  0.00000000000E+00  0.00000000000E+00  0.10390330621E+04  0.10390330621E+04  0.00000000000E+00 0.  1.
          1   -1    0    0  502    0 -0.00000000000E+00 -0.00000000000E+00 -0.16761861195E+03  0.16761861195E+03  0.00000000000E+00 0. -1.
         25    1    1    2    0    0  0.62925806611E+02  0.27160740156E+03  0.81841799865E+03  0.87359215783E+03  0.12500000000E+03 0.  0.
         21    1    1    2  503  501 -0.17049527107E+02 -0.15955508169E+02  0.68987465006E+02  0.72832238353E+02  0.00000000000E+00 0.  1.
          1    1    1    2  501    0 -0.45876279505E+02 -0.25565189340E+03 -0.15991013521E+02  0.26022727784E+03  0.00000000000E+00 0. -1.
<mgrwt>
<rscale>  4 0.29038350E+03</rscale>
<asrwt>0</asrwt>
<pdfrwt beam="1">  1       21 0.15985124E+00 0.29038350E+03</pdfrwt>
<pdfrwt beam="2">  1        1 0.25787479E-01 0.29038350E+03</pdfrwt>
<totfact> 0.47559609E+02</totfact>
</mgrwt>
</event>
<event>
 5    0  0.3040647E+000  0.2390019E+03  0.7546771E-02  0.1120459E+00
          1   -1    0    0  502    0 -0.00000000000E+00  0.00000000000E+00  0.13678303544E+04  0.13678303544E+04  0.00000000000E+00 0. -1.
         21   -1    0    0  503  502  0.00000000000E+00 -0.00000000000E+00 -0.39119470218E+03  0.39119470218E+03  0.00000000000E+00 0.  1.
         25    1    1    2    0    0  0.22326626049E+03  0.59890706303E+02 -0.22014084749E+03  0.34281439951E+03  0.12500000000E+03 0.  0.
         21    1    1    2  503  501 -0.25897834759E+02 -0.12662030580E+02 -0.99783607750E+02  0.10386430204E+03  0.00000000000E+00 0. -1.
          1    1    1    2  501    0 -0.19736842573E+03 -0.47228675723E+02  0.12965601074E+04  0.13123463550E+04  0.00000000000E+00 0. -1.
<mgrwt>
<rscale>  4 0.23900195E+03</rscale>
<asrwt>0</asrwt>
<pdfrwt beam="1">  1       21 0.60183801E-01 0.23900195E+03</pdfrwt>
<pdfrwt beam="2">  1        1 0.21043544E+00 0.23900195E+03</pdfrwt>
<totfact> 0.24754445E+02</totfact>
</mgrwt>
</event>
<event>
 5    0  0.3040647E+000  0.3107241E+03  0.7546771E-02  0.1079999E+00
          1   -1    0    0  502    0 -0.00000000000E+00  0.00000000000E+00  0.45483531751E+03  0.45483531751E+03  0.00000000000E+00 0.  1.
         21   -1    0    0  503  502  0.00000000000E+00 -0.00000000000E+00 -0.64787327279E+03  0.64787327279E+03  0.00000000000E+00 0.  1.
         25    1    1    2    0    0 -0.25536144753E+03 -0.44691861051E+01  0.13630916867E+03  0.31533257359E+03  0.12500000000E+03 0.  0.
         21    1    1    2  503  501 -0.66292191526E+02  0.20539450909E+02 -0.44106712008E+03  0.44649381644E+03  0.00000000000E+00 0.  1.
          1    1    1    2  501    0  0.32165363905E+03 -0.16070264804E+02  0.11171999614E+03  0.34088220027E+03  0.00000000000E+00 0.  1.
<mgrwt>
<rscale>  4 0.31072415E+03</rscale>
<asrwt>0</asrwt>
<pdfrwt beam="1">  1       21 0.99672812E-01 0.31072415E+03</pdfrwt>
<pdfrwt beam="2">  1        1 0.69974664E-01 0.31072415E+03</pdfrwt>
<totfact> 0.44035128E+02</totfact>
</mgrwt>
</event>
<event>
 5    0  0.3040647E+000  0.4177071E+03  0.7546771E-02  0.1037815E+00
         21   -1    0    0  503  502  0.00000000000E+00  0.00000000000E+00  0.46130189351E+03  0.46130189351E+03  0.00000000000E+00 0.  1.
          2   -1    0    0  502    0 -0.00000000000E+00 -0.00000000000E+00 -0.65078547904E+03  0.65078547904E+03  0.00000000000E+00 0.  1.
         25    1    1    2    0    0  0.48362010022E+03 -0.34602604654E+02 -0.17383961832E+02  0.50101191973E+03  0.12500000000E+03 0.  0.
         21    1    1    2  503  501 -0.34821613767E+03  0.32726110046E+01  0.47229573780E+02  0.35141972221E+03  0.00000000000E+00 0.  1.
          2    1    1    2  501    0 -0.13540396254E+03  0.31329993649E+02 -0.21932919748E+03  0.25965573061E+03  0.00000000000E+00 0.  1.
<mgrwt>
<rscale>  4 0.41770712E+03</rscale>
<asrwt>0</asrwt>
<pdfrwt beam="1">  1       21 0.70969522E-01 0.41770712E+03</pdfrwt>
<pdfrwt beam="2">  1        2 0.10012084E+00 0.41770712E+03</pdfrwt>
<totfact> 0.95301395E+02</totfact>
</mgrwt>
</event>
<event>
 5    0  0.3040647E+000  0.2321492E+03  0.7546771E-02  0.1125136E+00
         21   -1    0    0  503  502  0.00000000000E+00  0.00000000000E+00  0.17384385352E+03  0.17384385352E+03  0.00000000000E+00 0. -1.
          2   -1    0    0  502    0 -0.00000000000E+00 -0.00000000000E+00 -0.28079619893E+04  0.28079619893E+04  0.00000000000E+00 0.  1.
         25    1    1    2    0    0 -0.97483351826E+02 -0.23658038866E+03  0.11950018598E+02  0.28502822163E+03  0.12500000000E+03 0.  0.
         21    1    1    2  503  501  0.97660039205E+01  0.63338401224E+02 -0.25418619512E+02  0.68943702541E+02  0.00000000000E+00 0.  1.
          2    1    1    2  501    0  0.87717347906E+02  0.17324198744E+03 -0.26206495349E+04  0.26278339186E+04  0.00000000000E+00 0.  1.
<mgrwt>
<rscale>  4 0.23214918E+03</rscale>
<asrwt>0</asrwt>
<pdfrwt beam="1">  1       21 0.26745208E-01 0.23214918E+03</pdfrwt>
<pdfrwt beam="2">  1        2 0.43199415E+00 0.23214918E+03</pdfrwt>
<totfact> 0.45671797E+02</totfact>
</mgrwt>
</event>
<event>
 5    0  0.3040647E+000  0.2814943E+03  0.7546771E-02  0.1094876E+00
          2   -1    0    0  502    0 -0.00000000000E+00  0.00000000000E+00  0.24766564700E+04  0.24766564700E+04  0.00000000000E+00 0.  1.
         21   -1    0    0  503  502  0.00000000000E+00 -0.00000000000E+00 -0.80256010051E+03  0.80256010051E+03  0.00000000000E+00 0.  1.
         25    1    1    2    0    0  0.22546821277E+03  0.20132855684E+03 -0.67410920227E+03  0.74927786525E+03  0.12500000000E+03 0.  0.
         21    1    1    2  503  501 -0.44938876565E+02 -0.25848033171E+02 -0.76382691637E+02  0.92314348980E+02  0.00000000000E+00 0. -1.
          2    1    1    2  501    0 -0.18052933620E+03 -0.17548052367E+03  0.24245882634E+04  0.24376243563E+04  0.00000000000E+00 0.  1.
<mgrwt>
<rscale>  4 0.28149433E+03</rscale>
<asrwt>0</asrwt>
<pdfrwt beam="1">  1       21 0.12347079E+00 0.28149433E+03</pdfrwt>
<pdfrwt beam="2">  1        2 0.38102407E+00 0.28149433E+03</pdfrwt>
<totfact> 0.24225119E+01</totfact>
</mgrwt>
</event>
<event>
 5    0  0.3040647E+000  0.3436424E+03  0.7546771E-02  0.1065255E+00
          1   -1    0    0  502    0 -0.00000000000E+00  0.00000000000E+00  0.89091265295E+03  0.89091265295E+03  0.00000000000E+00 0. -1.
         21   -1    0    0  503  502  0.00000000000E+00 -0.00000000000E+00 -0.33140418220E+03  0.33140418220E+03  0.00000000000E+00 0. -1.
         25    1    1    2    0    0  0.35841593074E+02 -0.22547491005E+03  0.26148308839E+03  0.36894709698E+03  0.12500000000E+03 0.  0.
         21    1    1    2  503  501 -0.21661174885E+03  0.29583399228E+03 -0.12549448442E+03  0.38754001902E+03  0.00000000000E+00 0. -1.
          1    1    1    2  501    0  0.18077015577E+03 -0.70359082222E+02  0.42351986679E+03  0.46582971914E+03  0.00000000000E+00 0. -1.
<mgrwt>
<rscale>  4 0.34364239E+03</rscale>
<asrwt>0</asrwt>
<pdfrwt beam="1">  1       21 0.50985259E-01 0.34364239E+03</pdfrwt>
<pdfrwt beam="2">  1        1 0.13706348E+00 0.34364239E+03</pdfrwt>
<totfact> 0.74366349E+02</totfact>
</mgrwt>
</event>
<event>
 5    0  0.3040647E+000  0.2830715E+03  0.7546771E-02  0.1094023E+00
          2   -1    0    0  502    0 -0.00000000000E+00  0.00000000000E+00  0.10375894015E+03  0.10375894015E+03  0.00000000000E+00 0. -1.
         21   -1    0    0  503  502  0.00000000000E+00 -0.00000000000E+00 -0.94139421380E+03  0.94139421380E+03  0.00000000000E+00 0. -1.
         25    1    1    2    0    0 -0.20775095757E+03 -0.87376294975E+02 -0.33555681088E+03  0.42310572038E+03  0.12500000000E+03 0.  0.
         21    1    1    2  503  501 -0.67421112145E+02  0.17834907709E+02 -0.17844664661E+03  0.19159043813E+03  0.00000000000E+00 0. -1.
          2    1    1    2  501    0  0.27517206971E+03  0.69541387266E+02 -0.32363181617E+03  0.43045699545E+03  0.00000000000E+00 0. -1.
<mgrwt>
<rscale>  4 0.28307146E+03</rscale>
<asrwt>0</asrwt>
<pdfrwt beam="1">  1       21 0.14482987E+00 0.28307146E+03</pdfrwt>
<pdfrwt beam="2">  1        2 0.15962915E-01 0.28307146E+03</pdfrwt>
<totfact> 0.13897877E+03</totfact>
</mgrwt>
</event>
<event>
 5    0  0.3040647E+000  0.2230752E+03  0.7546771E-02  0.1131611E+00
         -1   -1    0    0    0  501 -0.00000000000E+00  0.00000000000E+00  0.68668319174E+03  0.68668319174E+03  0.00000000000E+00 0. -1.
         21   -1    0    0  501  502  0.00000000000E+00 -0.00000000000E+00 -0.16731595162E+03  0.16731595162E+03  0.00000000000E+00 0.  1.
         25    1    1    2    0    0  0.17949696659E+03 -0.11639699606E+03  0.13862469217E+03  0.28391764120E+03  0.12500000000E+03 0.  0.
         21    1    1    2  503  502 -0.19856180637E+02  0.37146551185E+02 -0.72058564011E+02  0.83465986017E+02  0.00000000000E+00 0. -1.
         -1    1    1    2    0  503 -0.15964078595E+03  0.79250444873E+02  0.45280111196E+03  0.48661551614E+03  0.00000000000E+00 0. -1.
<mgrwt>
<rscale>  4 0.22307515E+03</rscale>
<asrwt>0</asrwt>
<pdfrwt beam="1">  1       21 0.25740916E-01 0.22307515E+03</pdfrwt>
<pdfrwt beam="2">  1       -1 0.10564357E+00 0.22307515E+03</pdfrwt>
<totfact> 0.11849889E+03</totfact>
</mgrwt>
</event>
<event>
 5    0  0.3040647E+000  0.2543937E+03  0.7546771E-02  0.1110559E+00
          1   -1    0    0  502    0 -0.00000000000E+00  0.00000000000E+00  0.50192188170E+03  0.50192188170E+03  0.00000000000E+00 0. -1.
         21   -1    0    0  503  502  0.00000000000E+00 -0.00000000000E+00 -0.85868790024E+03  0.85868790024E+03  0.00000000000E+00 0. -1.
         25    1    1    2    0    0 -0.18618276035E+03  0.24463678387E+03  0.60774330241E+02  0.33738656685E+03  0.12500000000E+03 0.  0.
         21    1    1    2  503  501  0.16662504220E+03 -0.13611660466E+03 -0.69346798072E+03  0.72607814664E+03  0.00000000000E+00 0. -1.
          1    1    1    2  501    0  0.19557718157E+02 -0.10852017921E+03  0.27592763194E+03  0.29714506844E+03  0.00000000000E+00 0. -1.
<mgrwt>
<rscale>  4 0.25439370E+03</rscale>
<asrwt>0</asrwt>
<pdfrwt beam="1">  1       21 0.13210583E+00 0.25439370E+03</pdfrwt>
<pdfrwt beam="2">  1        1 0.77218751E-01 0.25439370E+03</pdfrwt>
<totfact> 0.19760246E+02</totfact>
</mgrwt>
</event>
<event>
 5    0  0.3040647E+000  0.2393524E+03  0.7546771E-02  0.1120225E+00
         21   -1    0    0  503  502  0.00000000000E+00  0.00000000000E+00  0.14604728737E+04  0.14604728737E+04  0.00000000000E+00 0. -1.
          1   -1    0    0  502    0 -0.00000000000E+00 -0.00000000000E+00 -0.22940894206E+04  0.22940894206E+04  0.00000000000E+00 0. -1.
         25    1    1    2    0    0 -0.88168793089E+02  0.21970003667E+03  0.10932082964E+04  0.11255093165E+04  0.12500000000E+03 0.  0.
         21    1    1    2  503  501 -0.32145508816E+02 -0.54938372273E+02  0.34361739755E+03  0.34946312306E+03  0.00000000000E+00 0. -1.
          1    1    1    2  501    0  0.12031430191E+03 -0.16476166440E+03 -0.22704422408E+04  0.22795898548E+04  0.00000000000E+00 0. -1.
<mgrwt>
<rscale>  4 0.23935241E+03</rscale>
<asrwt>0</asrwt>
<pdfrwt beam="1">  1       21 0.22468813E+00 0.23935241E+03</pdfrwt>
<pdfrwt beam="2">  1        1 0.35293683E+00 0.23935241E+03</pdfrwt>
<totfact> 0.21923016E+00</totfact>
</mgrwt>
</event>
<event>
 5    0  0.3040647E+000  0.2488835E+03  0.7546771E-02  0.1114012E+00
          1   -1    0    0  502    0 -0.00000000000E+00  0.00000000000E+00  0.92711442040E+02  0.92711442040E+02  0.00000000000E+00 0. -1.
         21   -1    0    0  503  502  0.00000000000E+00 -0.00000000000E+00 -0.74636475840E+03  0.74636475840E+03  0.00000000000E+00 0.  1.
         25    1    1    2    0    0 -0.57332579443E+02  0.21278648573E+03 -0.46751415342E+03  0.53175144271E+03  0.12500000000E+03 0.  0.
         21    1    1    2  503  501  0.23238585304E+02 -0.20175034495E+01 -0.47029554489E+02  0.52496487145E+02  0.00000000000E+00 0.  1.
          1    1    1    2  501    0  0.34093994139E+02 -0.21076898228E+03 -0.13910960846E+03  0.25482827059E+03  0.00000000000E+00 0. -1.
<mgrwt>
<rscale>  4 0.24888349E+03</rscale>
<asrwt>0</asrwt>
<pdfrwt beam="1">  1       21 0.11482535E+00 0.24888349E+03</pdfrwt>
<pdfrwt beam="2">  1        1 0.14263299E-01 0.24888349E+03</pdfrwt>
<totfact> 0.24569208E+03</totfact>
</mgrwt>
</event>
<event>
 5    0  0.3040647E+000  0.2911184E+03  0.7546771E-02  0.1089767E+00
         21   -1    0    0  503  502  0.00000000000E+00  0.00000000000E+00  0.55882113393E+02  0.55882113393E+02  0.00000000000E+00 0.  1.
          2   -1    0    0  502    0 -0.00000000000E+00 -0.00000000000E+00 -0.17926071874E+04  0.17926071874E+04  0.00000000000E+00 0.  1.
         25    1    1    2    0    0 -0.25138761493E+03 -0.12657364170E+03 -0.83753650177E+03  0.89236148029E+03  0.12500000000E+03 0.  0.
         21    1    1    2  503  501  0.33261113366E+02  0.19122575336E+01 -0.14282770663E+02  0.36248530026E+02  0.00000000000E+00 0.  1.
          2    1    1    2  501    0  0.21812650156E+03  0.12466138417E+03 -0.88490580161E+03  0.91987929051E+03  0.00000000000E+00 0.  1.
<mgrwt>
<rscale>  4 0.29111843E+03</rscale>
<asrwt>0</asrwt>
<pdfrwt beam="1">  1       21 0.85972486E-02 0.29111843E+03</pdfrwt>
<pdfrwt beam="2">  1        2 0.27578571E+00 0.29111843E+03</pdfrwt>
<totfact> 0.12662106E+04</totfact>
</mgrwt>
</event>
<event>
 5    0  0.3040647E+000  0.2189681E+03  0.7546771E-02  0.1134655E+00
          2   -1    0    0  502    0 -0.00000000000E+00  0.00000000000E+00  0.33847324403E+03  0.33847324403E+03  0.00000000000E+00 0. -1.
         21   -1    0    0  503  502  0.00000000000E+00 -0.00000000000E+00 -0.93666236524E+03  0.93666236524E+03  0.00000000000E+00 0.  1.
         25    1    1    2    0    0 -0.20262154369E+03  0.15198603922E+03 -0.69609061860E+03  0.75121394781E+03  0.12500000000E+03 0.  0.
         21    1    1    2  503  501  0.68305562809E+02 -0.36449184479E+02 -0.17909354097E+03  0.19511199189E+03  0.00000000000E+00 0.  1.
          2    1    1    2  501    0  0.13431598088E+03 -0.11553685474E+03  0.27699503836E+03  0.32880966957E+03  0.00000000000E+00 0. -1.
<mgrwt>
<rscale>  4 0.21896808E+03</rscale>
<asrwt>0</asrwt>
<pdfrwt beam="1">  1       21 0.14410190E+00 0.21896808E+03</pdfrwt>
<pdfrwt beam="2">  1        2 0.52072807E-01 0.21896808E+03</pdfrwt>
<totfact> 0.38872906E+02</totfact>
</mgrwt>
</event>
<event>
 5    0  0.3040647E+000  0.1997315E+03  0.7546771E-02  0.1149966E+00
          1   -1    0    0  502    0 -0.00000000000E+00  0.00000000000E+00  0.23469980450E+03  0.23469980450E+03  0.00000000000E+00 0. -1.
         21   -1    0    0  503  502  0.00000000000E+00 -0.00000000000E+00 -0.83444042431E+03  0.83444042431E+03  0.00000000000E+00 0.  1.
         25    1    1    2    0    0  0.13175798749E+03  0.17261781777E+03 -0.70081422014E+03  0.74425979968E+03  0.12500000000E+03 0.  0.
         21    1    1    2  503  501 -0.57052757100E+02 -0.38693115793E+02 -0.67854334653E+02  0.96728408617E+02  0.00000000000E+00 0. -1.
          1    1    1    2  501    0 -0.74705230394E+02 -0.13392470198E+03  0.16892793497E+03  0.22815202051E+03  0.00000000000E+00 0. -1.
<mgrwt>
<rscale>  4 0.19973155E+03</rscale>
<asrwt>0</asrwt>
<pdfrwt beam="1">  1       21 0.12837545E+00 0.19973155E+03</pdfrwt>
<pdfrwt beam="2">  1        1 0.36107662E-01 0.19973155E+03</pdfrwt>
<totfact> 0.57834344E+02</totfact>
</mgrwt>
</event>
<event>
 5    0  0.3040647E+000  0.2378475E+03  0.7546771E-02  0.1121235E+00
         21   -1    0    0  503  502  0.00000000000E+00  0.00000000000E+00  0.63270831983E+02  0.63270831983E+02  0.00000000000E+00 0.  1.
          2   -1    0    0  502    0 -0.00000000000E+00 -0.00000000000E+00 -0.10192876596E+04  0.10192876596E+04  0.00000000000E+00 0.  1.
         25    1    1    2    0    0  0.17572701698E+03 -0.11439621408E+03 -0.34318460016E+03  0.42114979292E+03  0.12500000000E+03 0.  0.
         21    1    1    2  503  501  0.77642458345E+01  0.34678674277E+02 -0.34816482584E+02  0.49750190176E+02  0.00000000000E+00 0. -1.
          2    1    1    2  501    0 -0.18349126281E+03  0.79717539802E+02 -0.57801574489E+03  0.61165850850E+03  0.00000000000E+00 0.  1.
<mgrwt>
<rscale>  4 0.23784749E+03</rscale>
<asrwt>0</asrwt>
<pdfrwt beam="1">  1       21 0.97339757E-02 0.23784749E+03</pdfrwt>
<pdfrwt beam="2">  1        2 0.15681346E+00 0.23784749E+03</pdfrwt>
<totfact> 0.27432282E+04</totfact>
</mgrwt>
</event>
<event>
 5    0  0.3040647E+000  0.3961762E+03  0.7546771E-02  0.1045112E+00
          1   -1    0    0  502    0 -0.00000000000E+00  0.00000000000E+00  0.32208767340E+04  0.32208767340E+04  0.00000000000E+00 0.  1.
         21   -1    0    0  503  502  0.00000000000E+00 -0.00000000000E+00 -0.80361318185E+02  0.80361318185E+02  0.00000000000E+00 0. -1.
         25    1    1    2    0    0 -0.33095282500E+03  0.84643350617E+02  0.55652859434E+03  0.66486340364E+03  0.12500000000E+03 0.  0.
         21    1    1    2  503  501 -0.37669601113E+02  0.27071154640E+02  0.34133145628E+02  0.57592689571E+02  0.00000000000E+00 0. -1.
          1    1    1    2  501    0  0.36862242611E+03 -0.11171450526E+03  0.25498536758E+04  0.25787819589E+04  0.00000000000E+00 0.  1.
<mgrwt>
<rscale>  4 0.39617619E+03</rscale>
<asrwt>0</asrwt>
<pdfrwt beam="1">  1       21 0.12363282E-01 0.39617619E+03</pdfrwt>
<pdfrwt beam="2">  1        1 0.49551940E+00 0.39617619E+03</pdfrwt>
<totfact> 0.29066750E+02</totfact>
</mgrwt>
</event>
<event>
 5    0  0.3040647E+000  0.4647679E+03  0.7546771E-02  0.1023407E+00
         21   -1    0    0  503  502  0.00000000000E+00  0.00000000000E+00  0.12687564994E+04  0.12687564994E+04  0.00000000000E+00 0. -1.
          2   -1    0    0  502    0 -0.00000000000E+00 -0.00000000000E+00 -0.14784857571E+04  0.14784857571E+04  0.00000000000E+00 0. -1.
         25    1    1    2    0    0  0.35203370601E+03 -0.14075418563E+03  0.92731215179E+03  0.10095901633E+04  0.12500000000E+03 0.  0.
         21    1    1    2  503  501  0.80125939029E+02  0.14551115156E+02  0.25863816623E+03  0.27115604749E+03  0.00000000000E+00 0.  1.
          2    1    1    2  501    0 -0.43215964504E+03  0.12620307048E+03 -0.13956795758E+04  0.14664960457E+04  0.00000000000E+00 0. -1.
<mgrwt>
<rscale>  4 0.46476792E+03</rscale>
<asrwt>0</asrwt>
<pdfrwt beam="1">  1       21 0.19519331E+00 0.46476792E+03</pdfrwt>
<pdfrwt beam="2">  1        2 0.22745935E+00 0.46476792E+03</pdfrwt>
<totfact> 0.21070227E+01</totfact>
</mgrwt>
</event>
<event>
 5    0  0.3040647E+000  0.5260057E+03  0.7546771E-02  0.1007205E+00
          2   -1    0    0  502    0 -0.00000000000E+00  0.00000000000E+00  0.25721912863E+04  0.25721912863E+04  0.00000000000E+00 0. -1.
         21   -1    0    0  503  502  0.00000000000E+00 -0.00000000000E+00 -0.19465231481E+03  0.19465231481E+03  0.00000000000E+00 0. -1.
         25    1    1    2    0    0  0.46250301872E+03  0.15513997575E+03  0.24211244982E+03  0.55876729750E+03  0.12500000000E+03 0.  0.
         21    1    1    2  503  501  0.22740845222E+02  0.18894784207E+02  0.37564017622E+02  0.47803915442E+02  0.00000000000E+00 0. -1.
          2    1    1    2  501    0 -0.48524386395E+03 -0.17403475996E+03  0.20978625040E+04  0.21602723881E+04  0.00000000000E+00 0. -1.
<mgrwt>
<rscale>  4 0.52600571E+03</rscale>
<asrwt>0</asrwt>
<pdfrwt beam="1">  1       21 0.29946512E-01 0.52600571E+03</pdfrwt>
<pdfrwt beam="2">  1        2 0.39572171E+00 0.52600571E+03</pdfrwt>
<totfact> 0.43539627E+02</totfact>
</mgrwt>
</event>
<event>
 5    0  0.3040647E+000  0.3368829E+03  0.7546771E-02  0.1068131E+00
         21   -1    0    0  503  502  0.00000000000E+00  0.00000000000E+00  0.35848609998E+03  0.35848609998E+03  0.00000000000E+00 0. -1.
          1   -1    0    0  502    0 -0.00000000000E+00 -0.00000000000E+00 -0.12133968929E+04  0.12133968929E+04  0.00000000000E+00 0. -1.
         25    1    1    2    0    0 -0.87087230243E+02  0.31785689875E+03 -0.54761330986E+03  0.65124690471E+03  0.12500000000E+03 0.  0.
         21    1    1    2  503  501 -0.33338336203E+02 -0.40766682397E+02  0.26676995774E+03  0.27191832856E+03  0.00000000000E+00 0. -1.
          1    1    1    2  501    0  0.12042556645E+03 -0.27709021635E+03 -0.57406744076E+03  0.64871775958E+03  0.00000000000E+00 0. -1.
<mgrwt>
<rscale>  4 0.33688292E+03</rscale>
<asrwt>0</asrwt>
<pdfrwt beam="1">  1       21 0.55151708E-01 0.33688292E+03</pdfrwt>
<pdfrwt beam="2">  1        1 0.18667644E+00 0.33688292E+03</pdfrwt>
<totfact> 0.36283703E+02</totfact>
</mgrwt>
</event>
<event>
 5    0  0.3040647E+000  0.2556135E+03  0.7546771E-02  0.1109808E+00
         21   -1    0    0  503  502  0.00000000000E+00  0.00000000000E+00  0.32238568903E+02  0.32238568903E+02  0.00000000000E+00 0.  1.
          2   -1    0    0  502    0 -0.00000000000E+00 -0.00000000000E+00 -0.29733162775E+04  0.29733162775E+04  0.00000000000E+00 0.  1.
         25    1    1    2    0    0 -0.99894982868E+02  0.19933452142E+03 -0.24541884503E+04  0.24674641251E+04  0.12500000000E+03 0.  0.
         21    1    1    2  503  501 -0.35886513807E+01 -0.31029533130E+02 -0.75971809529E+02  0.82142718412E+02  0.00000000000E+00 0.  1.
          2    1    1    2  501    0  0.10348363425E+03 -0.16830498829E+03 -0.41091744872E+03  0.45594800285E+03  0.00000000000E+00 0.  1.
<mgrwt>
<rscale>  4 0.25561350E+03</rscale>
<asrwt>0</asrwt>
<pdfrwt beam="1">  1       21 0.49597778E-02 0.25561350E+03</pdfrwt>
<pdfrwt beam="2">  1        2 0.45743346E+00 0.25561350E+03</pdfrwt>
<totfact> 0.75274412E+03</totfact>
</mgrwt>
</event>
<event>
 5    0  0.3040647E+000  0.2161423E+03  0.7546771E-02  0.1136792E+00
         21   -1    0    0  503  502  0.00000000000E+00  0.00000000000E+00  0.18684819832E+04  0.18684819832E+04  0.00000000000E+00 0.  1.
          2   -1    0    0  502    0 -0.00000000000E+00 -0.00000000000E+00 -0.99741903337E+02  0.99741903337E+02  0.00000000000E+00 0.  1.
         25    1    1    2    0    0 -0.31720592068E+02 -0.20716609097E+03  0.12944461241E+03  0.27623340292E+03  0.12500000000E+03 0.  0.
         21    1    1    2  503  501  0.49451341859E+01  0.17426150990E+03  0.16403181349E+04  0.16495560348E+04  0.00000000000E+00 0.  1.
          2    1    1    2  501    0  0.26775457882E+02  0.32904581062E+02 -0.10226674455E+01  0.42434448840E+02  0.00000000000E+00 0.  1.
<mgrwt>
<rscale>  4 0.21614232E+03</rscale>
<asrwt>0</asrwt>
<pdfrwt beam="1">  1       21 0.28745874E+00 0.21614232E+03</pdfrwt>
<pdfrwt beam="2">  1        2 0.15344910E-01 0.21614232E+03</pdfrwt>
<totfact> 0.18190529E+02</totfact>
</mgrwt>
</event>
<event>
 5    0  0.3040647E+000  0.2116642E+03  0.7546771E-02  0.1140255E+00
          2   -1    0    0  502    0 -0.00000000000E+00  0.00000000000E+00  0.35120762312E+04  0.35120762312E+04  0.00000000000E+00 0. -1.
         21   -1    0    0  503  502  0.00000000000E+00 -0.00000000000E+00 -0.37836560955E+02  0.37836560955E+02  0.00000000000E+00 0.  1.
         25    1    1    2    0    0  0.20830918053E+03 -0.33107667837E+02  0.43866384094E+03  0.50253337969E+03  0.12500000000E+03 0.  0.
         21    1    1    2  503  501 -0.40584298724E+02  0.42249551811E+02  0.25117942780E+03  0.25792094696E+03  0.00000000000E+00 0.  1.
          2    1    1    2  501    0 -0.16772488180E+03 -0.91418839739E+01  0.27843964015E+04  0.27894584655E+04  0.00000000000E+00 0. -1.
<mgrwt>
<rscale>  4 0.21166424E+03</rscale>
<asrwt>0</asrwt>
<pdfrwt beam="1">  1       21 0.58210122E-02 0.21166424E+03</pdfrwt>
<pdfrwt beam="2">  1        2 0.54031916E+00 0.21166424E+03</pdfrwt>
<totfact> 0.27130122E+03</totfact>
</mgrwt>
</event>
<event>
 5    0  0.3040647E+000  0.2559444E+03  0.7546771E-02  0.1109605E+00
         21   -1    0    0  503  502  0.00000000000E+00  0.00000000000E+00  0.37665127441E+03  0.37665127441E+03  0.00000000000E+00 0. -1.
          2   -1    0    0  502    0 -0.00000000000E+00 -0.00000000000E+00 -0.14207074809E+04  0.14207074809E+04  0.00000000000E+00 0.  1.
         25    1    1    2    0    0  0.16912741802E+03 -0.16003620260E+03  0.24328066545E+03  0.35920210446E+03  0.12500000000E+03 0.  0.
         21    1    1    2  503  501  0.65248244382E+01  0.22509888112E+02  0.64193833730E+02  0.68338251995E+02  0.00000000000E+00 0. -1.
          2    1    1    2  501    0 -0.17565224246E+03  0.13752631449E+03 -0.13515307057E+04  0.13698183989E+04  0.00000000000E+00 0.  1.
<mgrwt>
<rscale>  4 0.25594441E+03</rscale>
<asrwt>0</asrwt>
<pdfrwt beam="1">  1       21 0.57946350E-01 0.25594441E+03</pdfrwt>
<pdfrwt beam="2">  1        2 0.21857038E+00 0.25594441E+03</pdfrwt>
<totfact> 0.51844026E+02</totfact>
</mgrwt>
</event>
<event>
 5    0  0.3040647E+000  0.2200374E+03  0.7546771E-02  0.1133855E+00
         21   -1    0    0  503  502  0.00000000000E+00  0.00000000000E+00  0.12005789123E+03  0.12005789123E+03  0.00000000000E+00 0. -1.
          2   -1    0    0  502    0 -0.00000000000E+00 -0.00000000000E+00 -0.68101144480E+03  0.68101144480E+03  0.00000000000E+00 0.  1.
         25    1    1    2    0    0 -0.88844119564E+02  0.19674592352E+03 -0.21299843731E+03  0.32801763718E+03  0.12500000000E+03 0.  0.
         21    1    1    2  503  501  0.29267601042E+02 -0.37333512489E+02  0.31661979350E+02  0.57033889591E+02  0.00000000000E+00 0. -1.
          2    1    1    2  501    0  0.59576518522E+02 -0.15941241103E+03 -0.37961709560E+03  0.41601780926E+03  0.00000000000E+00 0.  1.
<mgrwt>
<rscale>  4 0.22003741E+03</rscale>
<asrwt>0</asrwt>
<pdfrwt beam="1">  1       21 0.18470445E-01 0.22003741E+03</pdfrwt>
<pdfrwt beam="2">  1        2 0.10477099E+00 0.22003741E+03</pdfrwt>
<totfact> 0.14544817E+04</totfact>
</mgrwt>
</event>
<event>
 5    0  0.3040647E+000  0.2639241E+03  0.7546771E-02  0.1104808E+00
         21   -1    0    0  501  502  0.00000000000E+00  0.00000000000E+00  0.17097230733E+04  0.17097230733E+04  0.00000000000E+00 0.  1.
         -3   -1    0    0    0  501 -0.00000000000E+00 -0.00000000000E+00 -0.57384055982E+02  0.57384055982E+02  0.00000000000E+00 0.  1.
         25    1    1    2    0    0 -0.19609846823E+03 -0.77247087939E+02  0.11981116448E+04  0.12229138298E+04  0.12500000000E+03 0.  0.
         21    1    1    2  503  502 -0.23436042482E+02 -0.15321037780E+02  0.17459673592E+03  0.17682760667E+03  0.00000000000E+00 0.  1.
         -3    1    1    2    0  503  0.21953451071E+03  0.92568125719E+02  0.27963063660E+03  0.36736569276E+03  0.00000000000E+00 0.  1.
<mgrwt>
<rscale>  4 0.26392414E+03</rscale>
<asrwt>0</asrwt>
<pdfrwt beam="1">  1       21 0.26303428E+00 0.26392414E+03</pdfrwt>
<pdfrwt beam="2">  1       -3 0.88283176E-02 0.26392414E+03</pdfrwt>
<totfact> 0.23960534E+02</totfact>
</mgrwt>
</event>
<event>
 5    0  0.3040647E+000  0.2769117E+03  0.7546771E-02  0.1097388E+00
         21   -1    0    0  503  502  0.00000000000E+00  0.00000000000E+00  0.40158562159E+03  0.40158562159E+03  0.00000000000E+00 0.  1.
          2   -1    0    0  502    0 -0.00000000000E+00 -0.00000000000E+00 -0.46177819444E+03  0.46177819444E+03  0.00000000000E+00 0.  1.
         25    1    1    2    0    0  0.17266571260E+03 -0.23837570254E+03  0.16298659483E+03  0.35892346533E+03  0.12500000000E+03 0.  0.
         21    1    1    2  503  501  0.85827183274E+00  0.72182378716E+02  0.86382333230E+02  0.11257415299E+03  0.00000000000E+00 0.  1.
          2    1    1    2  501    0 -0.17352398443E+03  0.16619332383E+03 -0.30956150091E+03  0.39186619770E+03  0.00000000000E+00 0.  1.
<mgrwt>
<rscale>  4 0.27691173E+03</rscale>
<asrwt>0</asrwt>
<pdfrwt beam="1">  1       21 0.61782403E-01 0.27691173E+03</pdfrwt>
<pdfrwt beam="2">  1        2 0.71042799E-01 0.27691173E+03</pdfrwt>
<totfact> 0.20055621E+03</totfact>
</mgrwt>
</event>
<event>
 5    0  0.3040647E+000  0.3687046E+03  0.7546771E-02  0.1055189E+00
         21   -1    0    0  503  502  0.00000000000E+00  0.00000000000E+00  0.17712916874E+03  0.17712916874E+03  0.00000000000E+00 0.  1.
          2   -1    0    0  502    0 -0.00000000000E+00 -0.00000000000E+00 -0.10622084641E+04  0.10622084641E+04  0.00000000000E+00 0.  1.
         25    1    1    2    0    0 -0.27882328895E+03  0.16897515443E+03 -0.23101115781E+03  0.41867192921E+03  0.12500000000E+03 0.  0.
         21    1    1    2  503  501 -0.24472144163E+02  0.18426625501E+02  0.33970696567E+02  0.45743137108E+02  0.00000000000E+00 0.  1.
          2    1    1    2  501    0  0.30329543311E+03 -0.18740177993E+03 -0.68803883408E+03  0.77492256650E+03  0.00000000000E+00 0.  1.
<mgrwt>
<rscale>  4 0.36870465E+03</rscale>
<asrwt>0</asrwt>
<pdfrwt beam="1">  1       21 0.27250642E-01 0.36870465E+03</pdfrwt>
<pdfrwt beam="2">  1        2 0.16341668E+00 0.36870465E+03</pdfrwt>
<totfact> 0.37197515E+03</totfact>
</mgrwt>
</event>
<event>
 5    0  0.3040647E+000  0.2581711E+03  0.7546771E-02  0.1108247E+00
          1   -1    0    0  502    0 -0.00000000000E+00  0.00000000000E+00  0.24088514080E+03  0.24088514080E+03  0.00000000000E+00 0.  1.
         21   -1    0    0  503  502  0.00000000000E+00 -0.00000000000E+00 -0.30409311197E+03  0.30409311197E+03  0.00000000000E+00 0.  1.
         25    1    1    2    0    0  0.16007191252E+03 -0.17612519451E+03  0.99678484501E+01  0.26901200591E+03  0.12500000000E+03 0.  0.
         21    1    1    2  503  501 -0.10553136605E+02  0.21600359396E+02 -0.55185459228E+02  0.60194510783E+02  0.00000000000E+00 0. -1.
          1    1    1    2  501    0 -0.14951877592E+03  0.15452483511E+03 -0.17990360392E+02  0.21577173607E+03  0.00000000000E+00 0.  1.
<mgrwt>
<rscale>  4 0.25817112E+03</rscale>
<asrwt>0</asrwt>
<pdfrwt beam="1">  1       21 0.46783556E-01 0.25817112E+03</pdfrwt>
<pdfrwt beam="2">  1        1 0.37059253E-01 0.25817112E+03</pdfrwt>
<totfact> 0.54210484E+03</totfact>
</mgrwt>
</event>
<event>
 5    0  0.3040647E+000  0.4228655E+03  0.7546771E-02  0.1036138E+00
         21   -1    0    0  501  502  0.00000000000E+00  0.00000000000E+00  0.30882087326E+03  0.30882087326E+03  0.00000000000E+00 0.  1.
         -2   -1    0    0    0  501 -0.00000000000E+00 -0.00000000000E+00 -0.72629454984E+03  0.72629454984E+03  0.00000000000E+00 0.  1.
         25    1    1    2    0    0 -0.20799304514E+03 -0.35374554860E+03 -0.40370818778E+03  0.58906902894E+03  0.12500000000E+03 0.  0.
         21    1    1    2  503  502 -0.80904986790E+01  0.26031589021E+02  0.41481212317E+02  0.49636587021E+02  0.00000000000E+00 0. -1.
         -2    1    1    2    0  503  0.21608354382E+03  0.32771395958E+03 -0.55246701123E+02  0.39640980714E+03  0.00000000000E+00 0.  1.
<mgrwt>
<rscale>  4 0.42286554E+03</rscale>
<asrwt>0</asrwt>
<pdfrwt beam="1">  1       21 0.47510904E-01 0.42286554E+03</pdfrwt>
<pdfrwt beam="2">  1       -2 0.11173762E+00 0.42286554E+03</pdfrwt>
<totfact> 0.21311997E+02</totfact>
</mgrwt>
</event>
<event>
 5    0  0.3040647E+000  0.2304106E+03  0.7546771E-02  0.1126351E+00
         21   -1    0    0  503  502  0.00000000000E+00  0.00000000000E+00  0.24629498473E+02  0.24629498473E+02  0.00000000000E+00 0.  1.
          2   -1    0    0  502    0 -0.00000000000E+00 -0.00000000000E+00 -0.35441630177E+04  0.35441630177E+04  0.00000000000E+00 0.  1.
         25    1    1    2    0    0 -0.15830698608E+03 -0.14716080320E+03 -0.88488813698E+03  0.91943973093E+03  0.12500000000E+03 0.  0.
         21    1    1    2  503  501  0.26042146989E+02  0.12038061007E+02 -0.48838155973E+02  0.56641626137E+02  0.00000000000E+00 0.  1.
          2    1    1    2  501    0  0.13226483909E+03  0.13512274219E+03 -0.25858072263E+04  0.25927111592E+04  0.00000000000E+00 0.  1.
<mgrwt>
<rscale>  4 0.23041057E+03</rscale>
<asrwt>0</asrwt>
<pdfrwt beam="1">  1       21 0.37891543E-02 0.23041057E+03</pdfrwt>
<pdfrwt beam="2">  1        2 0.54525576E+00 0.23041057E+03</pdfrwt>
<totfact> 0.52876321E+03</totfact>
</mgrwt>
</event>
<event>
 5    0  0.3040647E+000  0.2934482E+03  0.7546771E-02  0.1088562E+00
         21   -1    0    0  501  502  0.00000000000E+00  0.00000000000E+00  0.13971258072E+03  0.13971258072E+03  0.00000000000E+00 0. -1.
         -1   -1    0    0    0  501 -0.00000000000E+00 -0.00000000000E+00 -0.75944279555E+03  0.75944279555E+03  0.00000000000E+00 0. -1.
         25    1    1    2    0    0  0.26783949128E+03 -0.69776001258E+02 -0.36415601624E+03  0.47417432196E+03  0.12500000000E+03 0.  0.
         21    1    1    2  503  502 -0.24829846742E+03  0.77681738842E+02 -0.11778182628E+03  0.28558560901E+03  0.00000000000E+00 0. -1.
         -1    1    1    2    0  503 -0.19541023856E+02 -0.79057375841E+01 -0.13779237232E+03  0.13939544530E+03  0.00000000000E+00 0. -1.
<mgrwt>
<rscale>  4 0.29344818E+03</rscale>
<asrwt>0</asrwt>
<pdfrwt beam="1">  1       21 0.21494244E-01 0.29344818E+03</pdfrwt>
<pdfrwt beam="2">  1       -1 0.11683735E+00 0.29344818E+03</pdfrwt>
<totfact> 0.12973438E+03</totfact>
</mgrwt>
</event>
<event>
 5    0  0.3040647E+000  0.2697594E+03  0.7546771E-02  0.1101417E+00
          2   -1    0    0  502    0 -0.00000000000E+00  0.00000000000E+00  0.25793504538E+04  0.25793504538E+04  0.00000000000E+00 0. -1.
         21   -1    0    0  503  502  0.00000000000E+00 -0.00000000000E+00 -0.60092853034E+02  0.60092853034E+02  0.00000000000E+00 0.  1.
         25    1    1    2    0    0 -0.17743830733E+03 -0.17220326804E+03  0.50662015647E+03  0.57743164217E+03  0.12500000000E+03 0.  0.
         21    1    1    2  503  501 -0.67540646667E+01  0.22129869033E+02 -0.10187818693E+02  0.25281221146E+02  0.00000000000E+00 0. -1.
          2    1    1    2  501    0  0.18419237199E+03  0.15007339901E+03  0.20228252629E+04  0.20367304435E+04  0.00000000000E+00 0. -1.
<mgrwt>
<rscale>  4 0.26975938E+03</rscale>
<asrwt>0</asrwt>
<pdfrwt beam="1">  1       21 0.92450563E-02 0.26975938E+03</pdfrwt>
<pdfrwt beam="2">  1        2 0.39682306E+00 0.26975938E+03</pdfrwt>
<totfact> 0.42560518E+03</totfact>
</mgrwt>
</event>
<event>
 5    0  0.3040647E+000  0.2760987E+03  0.7546771E-02  0.1097839E+00
         21   -1    0    0  503  502  0.00000000000E+00  0.00000000000E+00  0.49857434263E+03  0.49857434263E+03  0.00000000000E+00 0. -1.
          1   -1    0    0  502    0 -0.00000000000E+00 -0.00000000000E+00 -0.12419763149E+04  0.12419763149E+04  0.00000000000E+00 0. -1.
         25    1    1    2    0    0  0.11568671859E+03 -0.19746926547E+03  0.37029586307E+03  0.45290347080E+03  0.12500000000E+03 0.  0.
         21    1    1    2  503  501 -0.47498736901E+02 -0.39867556785E+02  0.61172029951E+02  0.87106654967E+02  0.00000000000E+00 0. -1.
          1    1    1    2  501    0 -0.68187981693E+02  0.23733682225E+03 -0.11748698653E+04  0.12005405318E+04  0.00000000000E+00 0. -1.
<mgrwt>
<rscale>  4 0.27609870E+03</rscale>
<asrwt>0</asrwt>
<pdfrwt beam="1">  1       21 0.76703746E-01 0.27609870E+03</pdfrwt>
<pdfrwt beam="2">  1        1 0.19107328E+00 0.27609870E+03</pdfrwt>
<totfact> 0.17257978E+02</totfact>
</mgrwt>
</event>
<event>
 5    0  0.3040647E+000  0.1961620E+03  0.7546771E-02  0.1153018E+00
         21   -1    0    0  503  502  0.00000000000E+00  0.00000000000E+00  0.96354715447E+03  0.96354715447E+03  0.00000000000E+00 0.  1.
          2   -1    0    0  502    0 -0.00000000000E+00 -0.00000000000E+00 -0.20004072551E+04  0.20004072551E+04  0.00000000000E+00 0. -1.
         25    1    1    2    0    0  0.20397066569E+03  0.99966350157E+02 -0.58515864005E+02  0.26579392387E+03  0.12500000000E+03 0.  0.
         21    1    1    2  503  501 -0.75659683692E+02 -0.24258439643E+02  0.85504474985E+03  0.85872835279E+03  0.00000000000E+00 0.  1.
          2    1    1    2  501    0 -0.12831098200E+03 -0.75707910513E+02 -0.18333889865E+04  0.18394321329E+04  0.00000000000E+00 0. -1.
<mgrwt>
<rscale>  4 0.19616205E+03</rscale>
<asrwt>0</asrwt>
<pdfrwt beam="1">  1       21 0.14823802E+00 0.19616205E+03</pdfrwt>
<pdfrwt beam="2">  1        2 0.30775496E+00 0.19616205E+03</pdfrwt>
<totfact> 0.29569241E+01</totfact>
</mgrwt>
</event>
<event>
 5    0  0.3040647E+000  0.4307405E+03  0.7546771E-02  0.1033626E+00
          1   -1    0    0  502    0 -0.00000000000E+00  0.00000000000E+00  0.52504902213E+03  0.52504902213E+03  0.00000000000E+00 0.  1.
         21   -1    0    0  503  502  0.00000000000E+00 -0.00000000000E+00 -0.63661848069E+03  0.63661848069E+03  0.00000000000E+00 0.  1.
         25    1    1    2    0    0 -0.48775897647E+03  0.10323387469E+03  0.14739706406E+03  0.53471202203E+03  0.12500000000E+03 0.  0.
         21    1    1    2  503  501  0.38742113066E+03 -0.35828504730E+02 -0.30828426708E+03  0.49640508011E+03  0.00000000000E+00 0.  1.
          1    1    1    2  501    0  0.10033784581E+03 -0.67405369959E+02  0.49317744454E+02  0.13055040068E+03  0.00000000000E+00 0.  1.
<mgrwt>
<rscale>  4 0.43074051E+03</rscale>
<asrwt>0</asrwt>
<pdfrwt beam="1">  1       21 0.97941305E-01 0.43074051E+03</pdfrwt>
<pdfrwt beam="2">  1        1 0.80776772E-01 0.43074051E+03</pdfrwt>
<totfact> 0.36374971E+02</totfact>
</mgrwt>
</event>
<event>
 5    0  0.3040647E+000  0.2347356E+03  0.7546771E-02  0.1123350E+00
          2   -1    0    0  502    0 -0.00000000000E+00  0.00000000000E+00  0.56070236472E+03  0.56070236472E+03  0.00000000000E+00 0. -1.
         21   -1    0    0  503  502  0.00000000000E+00 -0.00000000000E+00 -0.18206978543E+03  0.18206978543E+03  0.00000000000E+00 0. -1.
         25    1    1    2    0    0  0.14945962250E+03  0.14894529038E+03  0.92682239653E+02  0.26217909114E+03  0.12500000000E+03 0.  0.
         21    1    1    2  503  501  0.70986708330E+01 -0.31855159581E+02 -0.68457666062E+02  0.75839266625E+02  0.00000000000E+00 0. -1.
          2    1    1    2  501    0 -0.15655829333E+03 -0.11709013080E+03  0.35440800570E+03  0.40475379238E+03  0.00000000000E+00 0. -1.
<mgrwt>
<rscale>  4 0.23473561E+03</rscale>
<asrwt>0</asrwt>
<pdfrwt beam="1">  1       21 0.28010736E-01 0.23473561E+03</pdfrwt>
<pdfrwt beam="2">  1        2 0.86261902E-01 0.23473561E+03</pdfrwt>
<totfact> 0.82521221E+03</totfact>
</mgrwt>
</event>
<event>
 5    0  0.3040647E+000  0.2817299E+03  0.7546771E-02  0.1094748E+00
          1   -1    0    0  502    0 -0.00000000000E+00  0.00000000000E+00  0.34656098734E+04  0.34656098734E+04  0.00000000000E+00 0. -1.
         21   -1    0    0  503  502  0.00000000000E+00 -0.00000000000E+00 -0.74016485362E+02  0.74016485362E+02  0.00000000000E+00 0. -1.
         25    1    1    2    0    0  0.16153925634E+03  0.21460841436E+03  0.54121537217E+03  0.61700144403E+03  0.12500000000E+03 0.  0.
         21    1    1    2  503  501 -0.17568539068E+02 -0.99954065208E+01 -0.27368427589E+02  0.34023411722E+02  0.00000000000E+00 0. -1.
          1    1    1    2  501    0 -0.14397071727E+03 -0.20461300784E+03  0.28777464434E+04  0.28886015030E+04  0.00000000000E+00 0. -1.
<mgrwt>
<rscale>  4 0.28172989E+03</rscale>
<asrwt>0</asrwt>
<pdfrwt beam="1">  1       21 0.11387154E-01 0.28172989E+03</pdfrwt>
<pdfrwt beam="2">  1        1 0.53317062E+00 0.28172989E+03</pdfrwt>
<totfact> 0.23513195E+02</totfact>
</mgrwt>
</event>
<event>
 5    0  0.3040647E+000  0.2351214E+03  0.7546771E-02  0.1123086E+00
         21   -1    0    0  503  502  0.00000000000E+00  0.00000000000E+00  0.73594253214E+02  0.73594253214E+02  0.00000000000E+00 0.  1.
          2   -1    0    0  502    0 -0.00000000000E+00 -0.00000000000E+00 -0.20636474012E+04  0.20636474012E+04  0.00000000000E+00 0.  1.
         25    1    1    2    0    0  0.19678823245E+03  0.55242531450E+02 -0.35625526184E+03  0.42932523487E+03  0.12500000000E+03 0.  0.
         21    1    1    2  503  501 -0.30880540818E+02  0.55940192943E+02 -0.19862584934E+01  0.63928539875E+02  0.00000000000E+00 0.  1.
          2    1    1    2  501    0 -0.16590769163E+03 -0.11118272439E+03 -0.16318116276E+04  0.16439878797E+04  0.00000000000E+00 0.  1.
<mgrwt>
<rscale>  4 0.23512143E+03</rscale>
<asrwt>0</asrwt>
<pdfrwt beam="1">  1       21 0.11322194E-01 0.23512143E+03</pdfrwt>
<pdfrwt beam="2">  1        2 0.31748420E+00 0.23512143E+03</pdfrwt>
<totfact> 0.56986137E+03</totfact>
</mgrwt>
</event>
<event>
 5    0  0.3040647E+000  0.2183199E+03  0.7546771E-02  0.1135142E+00
          2   -1    0    0  502    0 -0.00000000000E+00  0.00000000000E+00  0.39938602013E+04  0.39938602013E+04  0.00000000000E+00 0. -1.
         21   -1    0    0  503  502  0.00000000000E+00 -0.00000000000E+00 -0.27896473309E+03  0.27896473309E+03  0.00000000000E+00 0.  1.
         25    1    1    2    0    0 -0.18254809791E+03 -0.90885525760E+02  0.15269534934E+03  0.28376901972E+03  0.12500000000E+03 0.  0.
         21    1    1    2  503  501  0.29834865749E+02 -0.97613643287E+00 -0.21027020395E+03  0.21237850816E+03  0.00000000000E+00 0.  1.
          2    1    1    2  501    0  0.15271323216E+03  0.91861662193E+02  0.37724703228E+04  0.37766774065E+04  0.00000000000E+00 0. -1.
<mgrwt>
<rscale>  4 0.21831987E+03</rscale>
<asrwt>0</asrwt>
<pdfrwt beam="1">  1       21 0.42917654E-01 0.21831987E+03</pdfrwt>
<pdfrwt beam="2">  1        2 0.61443999E+00 0.21831987E+03</pdfrwt>
<totfact> 0.30679555E+01</totfact>
</mgrwt>
</event>
<event>
 5    0  0.3040647E+000  0.2945140E+03  0.7546771E-02  0.1088016E+00
         21   -1    0    0  503  502  0.00000000000E+00  0.00000000000E+00  0.78980568871E+02  0.78980568871E+02  0.00000000000E+00 0. -1.
          1   -1    0    0  502    0 -0.00000000000E+00 -0.00000000000E+00 -0.17838812364E+04  0.17838812364E+04  0.00000000000E+00 0. -1.
         25    1    1    2    0    0  0.23637446606E+03 -0.19553013572E+02 -0.97021866842E+03  0.10065805845E+04  0.12500000000E+03 0.  0.
         21    1    1    2  503  501 -0.24208763652E+03  0.16519207005E+03 -0.46275856420E+03  0.54775937464E+03  0.00000000000E+00 0. -1.
          1    1    1    2  501    0  0.57131704600E+01 -0.14563905648E+03 -0.27192343494E+03  0.30852184616E+03  0.00000000000E+00 0. -1.
<mgrwt>
<rscale>  4 0.29451397E+03</rscale>
<asrwt>0</asrwt>
<pdfrwt beam="1">  1       21 0.12150857E-01 0.29451397E+03</pdfrwt>
<pdfrwt beam="2">  1        1 0.27444325E+00 0.29451397E+03</pdfrwt>
<totfact> 0.29235397E+03</totfact>
</mgrwt>
</event>
<event>
 5    0  0.3040647E+000  0.1779635E+03  0.7546771E-02  0.1169789E+00
         21   -1    0    0  503  502  0.00000000000E+00  0.00000000000E+00  0.16185066396E+04  0.16185066396E+04  0.00000000000E+00 0.  1.
          1   -1    0    0  502    0 -0.00000000000E+00 -0.00000000000E+00 -0.10312748300E+04  0.10312748300E+04  0.00000000000E+00 0. -1.
         25    1    1    2    0    0 -0.55947859838E+01  0.22307335970E+03  0.11151348174E+04  0.11440907684E+04  0.12500000000E+03 0.  0.
         21    1    1    2  503  501 -0.16981138775E+02 -0.98761495974E+02  0.47977197553E+03  0.49012584166E+03  0.00000000000E+00 0.  1.
          1    1    1    2  501    0  0.22575924759E+02 -0.12431186373E+03 -0.10076749834E+04  0.10155648595E+04  0.00000000000E+00 0. -1.
<mgrwt>
<rscale>  4 0.17796353E+03</rscale>
<asrwt>0</asrwt>
<pdfrwt beam="1">  1       21 0.24900102E+00 0.17796353E+03</pdfrwt>
<pdfrwt beam="2">  1        1 0.15865767E+00 0.17796353E+03</pdfrwt>
<totfact> 0.11741752E+01</totfact>
</mgrwt>
</event>
<event>
 5    0  0.3040647E+000  0.3746462E+03  0.7546771E-02  0.1052930E+00
         -2   -1    0    0    0  501 -0.00000000000E+00  0.00000000000E+00  0.22895609784E+03  0.22895609784E+03  0.00000000000E+00 0.  1.
         21   -1    0    0  501  502  0.00000000000E+00 -0.00000000000E+00 -0.17300911624E+04  0.17300911624E+04  0.00000000000E+00 0.  1.
         25    1    1    2    0    0  0.20084035149E+03 -0.26722276348E+03 -0.36351653747E+03  0.50942528905E+03  0.12500000000E+03 0.  0.
         21    1    1    2  503  502  0.68513041673E+01 -0.29716663984E+02 -0.10826870086E+04  0.10831164199E+04  0.00000000000E+00 0.  1.
         -2    1    1    2    0  503 -0.20769165566E+03  0.29693942747E+03 -0.54931518517E+02  0.36650555131E+03  0.00000000000E+00 0.  1.
<mgrwt>
<rscale>  4 0.37464622E+03</rscale>
<asrwt>0</asrwt>
<pdfrwt beam="1">  1       21 0.26616787E+00 0.37464622E+03</pdfrwt>
<pdfrwt beam="2">  1       -2 0.35224015E-01 0.37464622E+03</pdfrwt>
<totfact> 0.28407694E+01</totfact>
</mgrwt>
</event>
<event>
 5    0  0.3040647E+000  0.2315862E+03  0.7546771E-02  0.1125528E+00
          1   -1    0    0  502    0 -0.00000000000E+00  0.00000000000E+00  0.27459453606E+04  0.27459453606E+04  0.00000000000E+00 0. -1.
         21   -1    0    0  503  502  0.00000000000E+00 -0.00000000000E+00 -0.20936190055E+02  0.20936190055E+02  0.00000000000E+00 0. -1.
         25    1    1    2    0    0 -0.21025729523E+03 -0.26779294349E+02  0.12234135948E+04  0.12479146945E+04  0.12500000000E+03 0.  0.
         21    1    1    2  503  501  0.29863675643E+02 -0.21362515556E+02  0.14468687538E+03  0.14927319954E+03  0.00000000000E+00 0. -1.
          1    1    1    2  501    0  0.18039361959E+03  0.48141809905E+02  0.13569087004E+04  0.13696936566E+04  0.00000000000E+00 0. -1.
<mgrwt>
<rscale>  4 0.23158618E+03</rscale>
<asrwt>0</asrwt>
<pdfrwt beam="1">  1       21 0.32209545E-02 0.23158618E+03</pdfrwt>
<pdfrwt beam="2">  1        1 0.42245285E+00 0.23158618E+03</pdfrwt>
<totfact> 0.69335645E+03</totfact>
</mgrwt>
</event>
<event>
 5    0  0.3040647E+000  0.2778466E+03  0.7546771E-02  0.1096871E+00
         21   -1    0    0  503  502  0.00000000000E+00  0.00000000000E+00  0.41384713290E+02  0.41384713290E+02  0.00000000000E+00 0.  1.
          2   -1    0    0  502    0 -0.00000000000E+00 -0.00000000000E+00 -0.25746002902E+04  0.25746002902E+04  0.00000000000E+00 0. -1.
         25    1    1    2    0    0  0.17369671411E+03  0.15176455520E+03 -0.98676339802E+03  0.10210435996E+04  0.12500000000E+03 0.  0.
         21    1    1    2  503  501  0.82742972363E+02 -0.64212459520E+02 -0.26083305109E+03  0.28107564813E+03  0.00000000000E+00 0.  1.
          2    1    1    2  501    0 -0.25643968648E+03 -0.87552095677E+02 -0.12856191278E+04  0.13138657557E+04  0.00000000000E+00 0. -1.
<mgrwt>
<rscale>  4 0.27784659E+03</rscale>
<asrwt>0</asrwt>
<pdfrwt beam="1">  1       21 0.63668773E-02 0.27784659E+03</pdfrwt>
<pdfrwt beam="2">  1        2 0.39609246E+00 0.27784659E+03</pdfrwt>
<totfact> 0.81990918E+03</totfact>
</mgrwt>
</event>
<event>
 5    0  0.3040647E+000  0.2186353E+03  0.7546771E-02  0.1134905E+00
         21   -1    0    0  503  502  0.00000000000E+00  0.00000000000E+00  0.30598174021E+03  0.30598174021E+03  0.00000000000E+00 0. -1.
          1   -1    0    0  502    0 -0.00000000000E+00 -0.00000000000E+00 -0.60665198824E+03  0.60665198824E+03  0.00000000000E+00 0.  1.
         25    1    1    2    0    0 -0.10187623362E+03 -0.18977669934E+03  0.17960034859E+03  0.30704274589E+03  0.12500000000E+03 0.  0.
         21    1    1    2  503  501  0.15545543198E+01  0.43627664601E+02  0.37978248377E+02  0.57863089335E+02  0.00000000000E+00 0. -1.
          1    1    1    2  501    0  0.10032167930E+03  0.14614903474E+03 -0.51824884499E+03  0.54772789323E+03  0.00000000000E+00 0.  1.
<mgrwt>
<rscale>  4 0.21863526E+03</rscale>
<asrwt>0</asrwt>
<pdfrwt beam="1">  1       21 0.47074114E-01 0.21863526E+03</pdfrwt>
<pdfrwt beam="2">  1        1 0.93331076E-01 0.21863526E+03</pdfrwt>
<totfact> 0.16406732E+03</totfact>
</mgrwt>
</event>
<event>
 5    0  0.3040647E+000  0.2112433E+03  0.7546771E-02  0.1140585E+00
          2   -1    0    0  502    0 -0.00000000000E+00  0.00000000000E+00  0.15725175011E+03  0.15725175011E+03  0.00000000000E+00 0.  1.
         21   -1    0    0  503  502  0.00000000000E+00 -0.00000000000E+00 -0.11246126622E+04  0.11246126622E+04  0.00000000000E+00 0.  1.
         25    1    1    2    0    0  0.20479673951E+03 -0.79149611492E+02  0.24964402131E+02  0.25387907926E+03  0.12500000000E+03 0.  0.
         21    1    1    2  503  501 -0.16595221830E+03  0.24832424064E+02 -0.89080546067E+03  0.90647181799E+03  0.00000000000E+00 0.  1.
          2    1    1    2  501    0 -0.38844521212E+02  0.54317187428E+02 -0.10151985360E+03  0.12151351511E+03  0.00000000000E+00 0.  1.
<mgrwt>
<rscale>  4 0.21124329E+03</rscale>
<asrwt>0</asrwt>
<pdfrwt beam="1">  1       21 0.17301733E+00 0.21124329E+03</pdfrwt>
<pdfrwt beam="2">  1        2 0.24192577E-01 0.21124329E+03</pdfrwt>
<totfact> 0.55010072E+02</totfact>
</mgrwt>
</event>
<event>
 5    0  0.3040647E+000  0.2772714E+03  0.7546771E-02  0.1097189E+00
          2   -1    0    0  502    0 -0.00000000000E+00  0.00000000000E+00  0.16685561075E+04  0.16685561075E+04  0.00000000000E+00 0. -1.
         21   -1    0    0  503  502  0.00000000000E+00 -0.00000000000E+00 -0.13527954084E+03  0.13527954084E+03  0.00000000000E+00 0. -1.
         25    1    1    2    0    0  0.18577609269E+03  0.11362890295E+03  0.95183065058E+03  0.98439365682E+03  0.12500000000E+03 0.  0.
         21    1    1    2  503  501  0.90622389871E+02  0.38216237315E+02 -0.52428171454E+02  0.11145228352E+03  0.00000000000E+00 0. -1.
          2    1    1    2  501    0 -0.27639848256E+03 -0.15184514026E+03  0.63387408751E+03  0.70798970798E+03  0.00000000000E+00 0. -1.
<mgrwt>
<rscale>  4 0.27727139E+03</rscale>
<asrwt>0</asrwt>
<pdfrwt beam="1">  1       21 0.20812238E-01 0.27727139E+03</pdfrwt>
<pdfrwt beam="2">  1        2 0.25670093E+00 0.27727139E+03</pdfrwt>
<totfact> 0.29514990E+03</totfact>
</mgrwt>
</event>
<event>
 5    0  0.3040647E+000  0.2913371E+03  0.7546771E-02  0.1089653E+00
          2   -1    0    0  502    0 -0.00000000000E+00  0.00000000000E+00  0.24341020015E+03  0.24341020015E+03  0.00000000000E+00 0. -1.
         21   -1    0    0  503  502  0.00000000000E+00 -0.00000000000E+00 -0.53216874945E+03  0.53216874945E+03  0.00000000000E+00 0. -1.
         25    1    1    2    0    0 -0.11404369086E+02  0.23953042744E+03 -0.33955116887E+03  0.43407934941E+03  0.12500000000E+03 0.  0.
         21    1    1    2  503  501  0.19347878360E+01  0.29147808243E+02 -0.47069186741E+02  0.55397170233E+02  0.00000000000E+00 0. -1.
          2    1    1    2  501    0  0.94695812497E+01 -0.26867823568E+03  0.97861806311E+02  0.28610242996E+03  0.00000000000E+00 0. -1.
<mgrwt>
<rscale>  4 0.29133705E+03</rscale>
<asrwt>0</asrwt>
<pdfrwt beam="1">  1       21 0.81872114E-01 0.29133705E+03</pdfrwt>
<pdfrwt beam="2">  1        2 0.37447724E-01 0.29133705E+03</pdfrwt>
<totfact> 0.21403523E+03</totfact>
</mgrwt>
</event>
<event>
 5    0  0.3040647E+000  0.3092203E+03  0.7546771E-02  0.1080720E+00
         21   -1    0    0  503  502  0.00000000000E+00  0.00000000000E+00  0.22654874191E+03  0.22654874191E+03  0.00000000000E+00 0. -1.
          2   -1    0    0  502    0 -0.00000000000E+00 -0.00000000000E+00 -0.60223966559E+03  0.60223966559E+03  0.00000000000E+00 0. -1.
         25    1    1    2    0    0  0.13116748162E+03  0.22963084474E+03  0.21485987703E+02  0.29329486998E+03  0.12500000000E+03 0.  0.
         21    1    1    2  503  501  0.11047320350E+02  0.20909485790E+02  0.18304178383E+02  0.29904729211E+02  0.00000000000E+00 0. -1.
          2    1    1    2  501    0 -0.14221480197E+03 -0.25054033053E+03 -0.41548108977E+03  0.50558880830E+03  0.00000000000E+00 0. -1.
<mgrwt>
<rscale>  4 0.30922029E+03</rscale>
<asrwt>0</asrwt>
<pdfrwt beam="1">  1       21 0.34853653E-01 0.30922029E+03</pdfrwt>
<pdfrwt beam="2">  1        2 0.92652255E-01 0.30922029E+03</pdfrwt>
<totfact> 0.48482392E+03</totfact>
</mgrwt>
</event>
<event>
 5    0  0.3040647E+000  0.4177653E+03  0.7546771E-02  0.1037796E+00
          2   -1    0    0  502    0 -0.00000000000E+00  0.00000000000E+00  0.34090346450E+03  0.34090346450E+03  0.00000000000E+00 0.  1.
         21   -1    0    0  503  502  0.00000000000E+00 -0.00000000000E+00 -0.11859405341E+04  0.11859405341E+04  0.00000000000E+00 0. -1.
         25    1    1    2    0    0 -0.37486688774E+03  0.19302968711E+03 -0.74899719639E+03  0.86856631516E+03  0.12500000000E+03 0.  0.
         21    1    1    2  503  501  0.13945514335E+02 -0.33102436803E+02 -0.23654130538E+03  0.23925308324E+03  0.00000000000E+00 0. -1.
          2    1    1    2  501    0  0.36092137341E+03 -0.15992725031E+03  0.14050143212E+03  0.41902460023E+03  0.00000000000E+00 0.  1.
<mgrwt>
<rscale>  4 0.41776526E+03</rscale>
<asrwt>0</asrwt>
<pdfrwt beam="1">  1       21 0.18245239E+00 0.41776526E+03</pdfrwt>
<pdfrwt beam="2">  1        2 0.52446687E-01 0.41776526E+03</pdfrwt>
<totfact> 0.18283065E+02</totfact>
</mgrwt>
</event>
<event>
 5    0  0.3040647E+000  0.2812115E+03  0.7546771E-02  0.1095029E+00
         21   -1    0    0  503  502  0.00000000000E+00  0.00000000000E+00  0.10013781521E+03  0.10013781521E+03  0.00000000000E+00 0. -1.
          1   -1    0    0  502    0 -0.00000000000E+00 -0.00000000000E+00 -0.15081363119E+04  0.15081363119E+04  0.00000000000E+00 0.  1.
         25    1    1    2    0    0 -0.16611000518E+03 -0.18203695790E+03 -0.30270541044E+03  0.40986040718E+03  0.12500000000E+03 0.  0.
         21    1    1    2  503  501  0.94694286492E+02 -0.67606583846E+02 -0.81121266263E+02  0.14183905638E+03  0.00000000000E+00 0. -1.
          1    1    1    2  501    0  0.71415718687E+02  0.24964354175E+03 -0.10241718200E+04  0.10565746635E+04  0.00000000000E+00 0.  1.
<mgrwt>
<rscale>  4 0.28121150E+03</rscale>
<asrwt>0</asrwt>
<pdfrwt beam="1">  1       21 0.15405818E-01 0.28121150E+03</pdfrwt>
<pdfrwt beam="2">  1        1 0.23202096E+00 0.28121150E+03</pdfrwt>
<totfact> 0.28913114E+03</totfact>
</mgrwt>
</event>
<event>
 5    0  0.3040647E+000  0.4303458E+03  0.7546771E-02  0.1033751E+00
          1   -1    0    0  502    0 -0.00000000000E+00  0.00000000000E+00  0.14188919055E+04  0.14188919055E+04  0.00000000000E+00 0.  1.
         21   -1    0    0  503  502  0.00000000000E+00 -0.00000000000E+00 -0.52656868733E+03  0.52656868733E+03  0.00000000000E+00 0.  1.
         25    1    1    2    0    0  0.33948687386E+03 -0.46700104134E+03  0.18161397050E+03  0.61802099027E+03  0.12500000000E+03 0.  0.
         21    1    1    2  503  501  0.39762054001E+02  0.35007802017E+03 -0.14746389263E+03  0.38194402833E+03  0.00000000000E+00 0.  1.
          1    1    1    2  501    0 -0.37924892786E+03  0.11692302117E+03  0.85817314026E+03  0.94549557420E+03  0.00000000000E+00 0.  1.
<mgrwt>
<rscale>  4 0.43034581E+03</rscale>
<asrwt>0</asrwt>
<pdfrwt beam="1">  1       21 0.81010568E-01 0.43034581E+03</pdfrwt>
<pdfrwt beam="2">  1        1 0.21829106E+00 0.43034581E+03</pdfrwt>
<totfact> 0.10708371E+02</totfact>
</mgrwt>
</event>
<event>
 5    0  0.3040647E+000  0.2251741E+03  0.7546771E-02  0.1130083E+00
          2   -1    0    0  502    0 -0.00000000000E+00  0.00000000000E+00  0.19782666148E+04  0.19782666148E+04  0.00000000000E+00 0.  1.
         21   -1    0    0  503  502  0.00000000000E+00 -0.00000000000E+00 -0.71734572018E+02  0.71734572018E+02  0.00000000000E+00 0. -1.
         25    1    1    2    0    0  0.30366410360E+02  0.21433167469E+03  0.38431968861E+03  0.45846134920E+03  0.12500000000E+03 0.  0.
         21    1    1    2  503  501  0.12536091093E+02 -0.36285880015E+02 -0.16630149811E+02  0.41837549534E+02  0.00000000000E+00 0. -1.
          2    1    1    2  501    0 -0.42902501453E+02 -0.17804579468E+03  0.15388425040E+04  0.15497022881E+04  0.00000000000E+00 0.  1.
<mgrwt>
<rscale>  4 0.22517406E+03</rscale>
<asrwt>0</asrwt>
<pdfrwt beam="1">  1       21 0.11036090E-01 0.22517406E+03</pdfrwt>
<pdfrwt beam="2">  1        2 0.30434867E+00 0.22517406E+03</pdfrwt>
<totfact> 0.66400913E+03</totfact>
</mgrwt>
</event>
<event>
 5    0  0.3040647E+000  0.3318747E+03  0.7546771E-02  0.1070310E+00
         21   -1    0    0  503  502  0.00000000000E+00  0.00000000000E+00  0.10383179099E+04  0.10383179099E+04  0.00000000000E+00 0. -1.
          2   -1    0    0  502    0 -0.00000000000E+00 -0.00000000000E+00 -0.34477469171E+03  0.34477469171E+03  0.00000000000E+00 0.  1.
         25    1    1    2    0    0 -0.24628600395E+03  0.33989831475E+03  0.64143025143E+03  0.77668875849E+03  0.12500000000E+03 0.  0.
         21    1    1    2  503  501  0.52559124281E+02 -0.22880208395E+03  0.22408463822E+03  0.32454087609E+03  0.00000000000E+00 0. -1.
          2    1    1    2  501    0  0.19372687967E+03 -0.11109623080E+03 -0.17197167145E+03  0.28186296704E+03  0.00000000000E+00 0.  1.
<mgrwt>
<rscale>  4 0.33187475E+03</rscale>
<asrwt>0</asrwt>
<pdfrwt beam="1">  1       21 0.15974122E+00 0.33187475E+03</pdfrwt>
<pdfrwt beam="2">  1        2 0.53042261E-01 0.33187475E+03</pdfrwt>
<totfact> 0.27259820E+02</totfact>
</mgrwt>
</event>
<event>
 5    0  0.3040647E+000  0.3067563E+03  0.7546771E-02  0.1081911E+00
         21   -1    0    0  501  502  0.00000000000E+00  0.00000000000E+00  0.97277235391E+02  0.97277235391E+02  0.00000000000E+00 0. -1.
         -4   -1    0    0    0  501 -0.00000000000E+00 -0.00000000000E+00 -0.18087171522E+04  0.18087171522E+04  0.00000000000E+00 0. -1.
         25    1    1    2    0    0 -0.32571232833E+03  0.38281353987E+02 -0.40074757355E+03  0.53270780039E+03  0.12500000000E+03 0.  0.
         21    1    1    2  503  502  0.68498445638E+02  0.45666478514E+02 -0.85959310503E+02  0.11902296996E+03  0.00000000000E+00 0.  1.
         -4    1    1    2    0  503  0.25721388269E+03 -0.83947832501E+02 -0.12247330327E+04  0.12542636172E+04  0.00000000000E+00 0. -1.
<mgrwt>
<rscale>  4 0.30675628E+03</rscale>
<asrwt>0</asrwt>
<pdfrwt beam="1">  1       21 0.14965729E-01 0.30675628E+03</pdfrwt>
<pdfrwt beam="2">  1       -4 0.27826417E+00 0.30675628E+03</pdfrwt>
<totfact> 0.79284971E+01</totfact>
</mgrwt>
</event>
<event>
 5    0  0.3040647E+000  0.3181575E+03  0.7546771E-02  0.1076500E+00
          2   -1    0    0  502    0 -0.00000000000E+00  0.00000000000E+00  0.28282555740E+04  0.28282555740E+04  0.00000000000E+00 0. -1.
         21   -1    0    0  503  502  0.00000000000E+00 -0.00000000000E+00 -0.62705176310E+02  0.62705176310E+02  0.00000000000E+00 0.  1.
         25    1    1    2    0    0  0.24002244549E+03  0.10528915095E+03  0.44142914576E+03  0.52837606908E+03  0.12500000000E+03 0.  0.
         21    1    1    2  503  501  0.34422244080E+02  0.14334704351E+02  0.27000583166E+02  0.46037008239E+02  0.00000000000E+00 0.  1.
          2    1    1    2  501    0 -0.27444468957E+03 -0.11962385530E+03  0.22971206688E+04  0.23165476730E+04  0.00000000000E+00 0. -1.
<mgrwt>
<rscale>  4 0.31815750E+03</rscale>
<asrwt>0</asrwt>
<pdfrwt beam="1">  1       21 0.96469524E-02 0.31815750E+03</pdfrwt>
<pdfrwt beam="2">  1        2 0.43511614E+00 0.31815750E+03</pdfrwt>
<totfact> 0.27973989E+03</totfact>
</mgrwt>
</event>
<event>
 5    0  0.3040647E+000  0.3463985E+03  0.7546771E-02  0.1064103E+00
         21   -1    0    0  503  502  0.00000000000E+00  0.00000000000E+00  0.40539371898E+02  0.40539371898E+02  0.00000000000E+00 0. -1.
          1   -1    0    0  502    0 -0.00000000000E+00 -0.00000000000E+00 -0.30271717946E+04  0.30271717946E+04  0.00000000000E+00 0. -1.
         25    1    1    2    0    0 -0.27672305235E+03  0.18318859617E+03 -0.13917250071E+04  0.14361953923E+04  0.12500000000E+03 0.  0.
         21    1    1    2  503  501  0.29139138114E+01 -0.23755767946E+02 -0.68222233962E+02  0.72298690245E+02  0.00000000000E+00 0. -1.
          1    1    1    2  501    0  0.27380913854E+03 -0.15943282822E+03 -0.15266851817E+04  0.15592170840E+04  0.00000000000E+00 0. -1.
<mgrwt>
<rscale>  4 0.34639849E+03</rscale>
<asrwt>0</asrwt>
<pdfrwt beam="1">  1       21 0.62368260E-02 0.34639849E+03</pdfrwt>
<pdfrwt beam="2">  1        1 0.46571877E+00 0.34639849E+03</pdfrwt>
<totfact> 0.13770222E+03</totfact>
</mgrwt>
</event>
<event>
 5    0  0.3040647E+000  0.2549299E+03  0.7546771E-02  0.1110228E+00
         21   -1    0    0  501  502  0.00000000000E+00  0.00000000000E+00  0.22623336241E+03  0.22623336241E+03  0.00000000000E+00 0.  1.
         -1   -1    0    0    0  501 -0.00000000000E+00 -0.00000000000E+00 -0.42658718561E+03  0.42658718561E+03  0.00000000000E+00 0.  1.
         25    1    1    2    0    0 -0.24418141154E+03 -0.12548445908E+03 -0.99878803107E+02  0.31776042316E+03  0.12500000000E+03 0.  0.
         21    1    1    2  503  502  0.48039005162E+02  0.94141590184E+02  0.12698680158E+02  0.10645018317E+03  0.00000000000E+00 0.  1.
         -1    1    1    2    0  503  0.19614240638E+03  0.31342868900E+02 -0.11317370026E+03  0.22860994170E+03  0.00000000000E+00 0.  1.
<mgrwt>
<rscale>  4 0.25492992E+03</rscale>
<asrwt>0</asrwt>
<pdfrwt beam="1">  1       21 0.34805133E-01 0.25492992E+03</pdfrwt>
<pdfrwt beam="2">  1       -1 0.65628797E-01 0.25492992E+03</pdfrwt>
<totfact> 0.17707196E+03</totfact>
</mgrwt>
</event>
<event>
 5    0  0.3040647E+000  0.2837500E+03  0.7546771E-02  0.1093658E+00
         21   -1    0    0  503  502  0.00000000000E+00  0.00000000000E+00  0.17341469406E+03  0.17341469406E+03  0.00000000000E+00 0. -1.
          1   -1    0    0  502    0 -0.00000000000E+00 -0.00000000000E+00 -0.25629842518E+04  0.25629842518E+04  0.00000000000E+00 0.  1.
         25    1    1    2    0    0  0.11510422468E+03 -0.18146140353E+03 -0.51851383447E+03  0.57502940798E+03  0.12500000000E+03 0.  0.
         21    1    1    2  503  501  0.37761150655E+02 -0.37825425506E+02  0.13103314757E+03  0.14151449776E+03  0.00000000000E+00 0. -1.
          1    1    1    2  501    0 -0.15286537534E+03  0.21928682904E+03 -0.20020888708E+04  0.20198550401E+04  0.00000000000E+00 0.  1.
<mgrwt>
<rscale>  4 0.28375001E+03</rscale>
<asrwt>0</asrwt>
<pdfrwt beam="1">  1       21 0.26679184E-01 0.28375001E+03</pdfrwt>
<pdfrwt beam="2">  1        1 0.39430526E+00 0.28375001E+03</pdfrwt>
<totfact> 0.20807754E+02</totfact>
</mgrwt>
</event>
<event>
 5    0  0.3040647E+000  0.3028474E+03  0.7546771E-02  0.1083826E+00
         21   -1    0    0  503  502  0.00000000000E+00  0.00000000000E+00  0.20873921898E+03  0.20873921898E+03  0.00000000000E+00 0.  1.
          3   -1    0    0  502    0 -0.00000000000E+00 -0.00000000000E+00 -0.87792467972E+03  0.87792467972E+03  0.00000000000E+00 0. -1.
         25    1    1    2    0    0  0.96335491372E+02  0.22457797324E+03  0.43024975644E+02  0.27783437781E+03  0.12500000000E+03 0.  0.
         21    1    1    2  503  501  0.33207614511E+01  0.38255235176E+02  0.47913985416E+01  0.38696872935E+02  0.00000000000E+00 0.  1.
          3    1    1    2  501    0 -0.99656252823E+02 -0.26283320842E+03 -0.71700183492E+03  0.77013264796E+03  0.00000000000E+00 0. -1.
<mgrwt>
<rscale>  4 0.30284740E+03</rscale>
<asrwt>0</asrwt>
<pdfrwt beam="1">  1       21 0.32113726E-01 0.30284740E+03</pdfrwt>
<pdfrwt beam="2">  1        3 0.13506534E+00 0.30284740E+03</pdfrwt>
<totfact> 0.20047827E+02</totfact>
</mgrwt>
</event>
<event>
 5    0  0.3040647E+000  0.2198071E+03  0.7546771E-02  0.1134027E+00
          2   -1    0    0  502    0 -0.00000000000E+00  0.00000000000E+00  0.11451159563E+04  0.11451159563E+04  0.00000000000E+00 0.  1.
         21   -1    0    0  503  502  0.00000000000E+00 -0.00000000000E+00 -0.59174582854E+02  0.59174582854E+02  0.00000000000E+00 0. -1.
         25    1    1    2    0    0 -0.43271017132E+01 -0.20343191432E+03  0.30550644129E+03  0.38776597741E+03  0.12500000000E+03 0.  0.
         21    1    1    2  503  501  0.32375525366E+02  0.30016372452E+02  0.57175530099E+02  0.72237099194E+02  0.00000000000E+00 0.  1.
          2    1    1    2  501    0 -0.28048423653E+02  0.17341554187E+03  0.72325940202E+03  0.74428746250E+03  0.00000000000E+00 0.  1.
<mgrwt>
<rscale>  4 0.21980713E+03</rscale>
<asrwt>0</asrwt>
<pdfrwt beam="1">  1       21 0.91037828E-02 0.21980713E+03</pdfrwt>
<pdfrwt beam="2">  1        2 0.17617167E+00 0.21980713E+03</pdfrwt>
<totfact> 0.26112842E+04</totfact>
</mgrwt>
</event>
<event>
 5    0  0.3040647E+000  0.1748859E+03  0.7546771E-02  0.1172846E+00
          2   -1    0    0  502    0 -0.00000000000E+00  0.00000000000E+00  0.14397886520E+04  0.14397886520E+04  0.00000000000E+00 0.  1.
         21   -1    0    0  503  502  0.00000000000E+00 -0.00000000000E+00 -0.95185198180E+02  0.95185198180E+02  0.00000000000E+00 0.  1.
         25    1    1    2    0    0  0.13797711849E+03 -0.15541610772E+03  0.11848217294E+03  0.26991642608E+03  0.12500000000E+03 0.  0.
         21    1    1    2  503  501 -0.74260615908E+02  0.55104287351E+02  0.11485172847E+03  0.14745182634E+03  0.00000000000E+00 0.  1.
          2    1    1    2  501    0 -0.63716502584E+02  0.10031182037E+03  0.11112695524E+04  0.11176055978E+04  0.00000000000E+00 0.  1.
<mgrwt>
<rscale>  4 0.17488587E+03</rscale>
<asrwt>0</asrwt>
<pdfrwt beam="1">  1       21 0.14643878E-01 0.17488587E+03</pdfrwt>
<pdfrwt beam="2">  1        2 0.22150593E+00 0.17488587E+03</pdfrwt>
<totfact> 0.77970918E+03</totfact>
</mgrwt>
</event>
<event>
 5    0  0.3040647E+000  0.2557563E+03  0.7546771E-02  0.1109720E+00
         21   -1    0    0  501  502  0.00000000000E+00  0.00000000000E+00  0.20880727459E+03  0.20880727459E+03  0.00000000000E+00 0.  1.
         -3   -1    0    0    0  501 -0.00000000000E+00 -0.00000000000E+00 -0.65882850741E+03  0.65882850741E+03  0.00000000000E+00 0.  1.
         25    1    1    2    0    0 -0.21811283589E+03  0.76870909061E+02  0.42054575851E+02  0.26622534288E+03  0.12500000000E+03 0.  0.
         21    1    1    2  503  502 -0.48077029578E+01 -0.66306097206E+02 -0.62443085912E+01  0.66772778317E+02  0.00000000000E+00 0.  1.
         -3    1    1    2    0  503  0.22292053885E+03 -0.10564811855E+02 -0.48583150008E+03  0.53463766081E+03  0.00000000000E+00 0.  1.
<mgrwt>
<rscale>  4 0.25575627E+03</rscale>
<asrwt>0</asrwt>
<pdfrwt beam="1">  1       21 0.32124196E-01 0.25575627E+03</pdfrwt>
<pdfrwt beam="2">  1       -3 0.10135823E+00 0.25575627E+03</pdfrwt>
<totfact> 0.39962729E+02</totfact>
</mgrwt>
</event>
<event>
 5    0  0.3040647E+000  0.3649057E+03  0.7546771E-02  0.1056658E+00
         21   -1    0    0  501  502  0.00000000000E+00  0.00000000000E+00  0.58651860673E+03  0.58651860673E+03  0.00000000000E+00 0. -1.
         -1   -1    0    0    0  501 -0.00000000000E+00 -0.00000000000E+00 -0.74713048381E+03  0.74713048381E+03  0.00000000000E+00 0. -1.
         25    1    1    2    0    0 -0.14828512459E+03 -0.28011442059E+03 -0.21079509417E+03  0.40063966170E+03  0.12500000000E+03 0.  0.
         21    1    1    2  503  502 -0.13769080969E+02 -0.45064757295E+02  0.41527589187E+03  0.41794076890E+03  0.00000000000E+00 0. -1.
         -1    1    1    2    0  503  0.16205420556E+03  0.32517917789E+03 -0.36509267479E+03  0.51506865994E+03  0.00000000000E+00 0. -1.
<mgrwt>
<rscale>  4 0.36490566E+03</rscale>
<asrwt>0</asrwt>
<pdfrwt beam="1">  1       21 0.90233632E-01 0.36490566E+03</pdfrwt>
<pdfrwt beam="2">  1       -1 0.11494315E+00 0.36490566E+03</pdfrwt>
<totfact> 0.65597632E+01</totfact>
</mgrwt>
</event>
<event>
 5    0  0.3040647E+000  0.2790429E+03  0.7546771E-02  0.1096213E+00
         21   -1    0    0  503  502  0.00000000000E+00  0.00000000000E+00  0.41134449485E+03  0.41134449485E+03  0.00000000000E+00 0.  1.
          2   -1    0    0  502    0 -0.00000000000E+00 -0.00000000000E+00 -0.37306923004E+04  0.37306923004E+04  0.00000000000E+00 0. -1.
         25    1    1    2    0    0 -0.22875673999E+03 -0.48206424472E+02  0.13733875652E+03  0.29856396214E+03  0.12500000000E+03 0.  0.
         21    1    1    2  503  501 -0.18050586479E+02  0.96973334743E+01  0.18856380102E+03  0.18967384902E+03  0.00000000000E+00 0.  1.
          2    1    1    2  501    0  0.24680732647E+03  0.38509090998E+02 -0.36452503631E+04  0.36537989841E+04  0.00000000000E+00 0. -1.
<mgrwt>
<rscale>  4 0.27904292E+03</rscale>
<asrwt>0</asrwt>
<pdfrwt beam="1">  1       21 0.63283769E-01 0.27904292E+03</pdfrwt>
<pdfrwt beam="2">  1        2 0.57395266E+00 0.27904292E+03</pdfrwt>
<totfact> 0.19768677E+01</totfact>
</mgrwt>
</event>
<event>
 5    0  0.3040647E+000  0.2452437E+03  0.7546771E-02  0.1116348E+00
          1   -1    0    0  502    0 -0.00000000000E+00  0.00000000000E+00  0.29180801403E+03  0.29180801403E+03  0.00000000000E+00 0. -1.
         21   -1    0    0  503  502  0.00000000000E+00 -0.00000000000E+00 -0.54300002967E+03  0.54300002967E+03  0.00000000000E+00 0. -1.
         25    1    1    2    0    0 -0.13406664448E+03  0.15100449832E+03 -0.36765891361E+03  0.43769201551E+03  0.12500000000E+03 0.  0.
         21    1    1    2  503  501 -0.10539493117E+03 -0.22057113772E+02  0.32441255989E+02  0.11245907200E+03  0.00000000000E+00 0. -1.
          1    1    1    2  501    0  0.23946157566E+03 -0.12894738455E+03  0.84025641987E+02  0.28465695620E+03  0.00000000000E+00 0. -1.
<mgrwt>
<rscale>  4 0.24524373E+03</rscale>
<asrwt>0</asrwt>
<pdfrwt beam="1">  1       21 0.83538466E-01 0.24524373E+03</pdfrwt>
<pdfrwt beam="2">  1        1 0.44893541E-01 0.24524373E+03</pdfrwt>
<totfact> 0.12079209E+03</totfact>
</mgrwt>
</event>
<event>
 5    0  0.3040647E+000  0.3989508E+03  0.7546771E-02  0.1044144E+00
         21   -1    0    0  503  502  0.00000000000E+00  0.00000000000E+00  0.12378553643E+03  0.12378553643E+03  0.00000000000E+00 0.  1.
          2   -1    0    0  502    0 -0.00000000000E+00 -0.00000000000E+00 -0.25515439962E+04  0.25515439962E+04  0.00000000000E+00 0.  1.
         25    1    1    2    0    0  0.16625941015E+03  0.34043989712E+03 -0.18331378450E+04  0.18760492727E+04  0.12500000000E+03 0.  0.
         21    1    1    2  503  501  0.65736673150E+02 -0.34390580768E+02  0.17902944151E+02  0.76318658607E+02  0.00000000000E+00 0.  1.
          2    1    1    2  501    0 -0.23199608330E+03 -0.30604931636E+03 -0.61252355899E+03  0.72296160135E+03  0.00000000000E+00 0.  1.
<mgrwt>
<rscale>  4 0.39895082E+03</rscale>
<asrwt>0</asrwt>
<pdfrwt beam="1">  1       21 0.19043932E-01 0.39895082E+03</pdfrwt>
<pdfrwt beam="2">  1        2 0.39254516E+00 0.39895082E+03</pdfrwt>
<totfact> 0.11207540E+03</totfact>
</mgrwt>
</event>
<event>
 5    0  0.3040647E+000  0.2700853E+03  0.7546771E-02  0.1101231E+00
         21   -1    0    0  503  502  0.00000000000E+00  0.00000000000E+00  0.13646680732E+03  0.13646680732E+03  0.00000000000E+00 0. -1.
          4   -1    0    0  502    0 -0.00000000000E+00 -0.00000000000E+00 -0.12033210025E+04  0.12033210025E+04  0.00000000000E+00 0. -1.
         25    1    1    2    0    0  0.22198796260E+03  0.17620556428E+02 -0.38131040244E+02  0.25820169593E+03  0.12500000000E+03 0.  0.
         21    1    1    2  503  501  0.19418351634E+02 -0.89331967490E+01  0.33365071740E+01  0.21633461685E+02  0.00000000000E+00 0. -1.
          4    1    1    2  501    0 -0.24140631424E+03 -0.86873596794E+01 -0.10320596621E+04  0.10599526522E+04  0.00000000000E+00 0. -1.
<mgrwt>
<rscale>  4 0.27008535E+03</rscale>
<asrwt>0</asrwt>
<pdfrwt beam="1">  1       21 0.20994893E-01 0.27008535E+03</pdfrwt>
<pdfrwt beam="2">  1        4 0.18512631E+00 0.27008535E+03</pdfrwt>
<totfact> 0.15788951E+02</totfact>
</mgrwt>
</event>
<event>
 5    0  0.3040647E+000  0.1852330E+03  0.7546771E-02  0.1162833E+00
          3   -1    0    0  502    0 -0.00000000000E+00  0.00000000000E+00  0.30548683170E+03  0.30548683170E+03  0.00000000000E+00 0. -1.
         21   -1    0    0  503  502  0.00000000000E+00 -0.00000000000E+00 -0.68862135748E+03  0.68862135748E+03  0.00000000000E+00 0. -1.
         25    1    1    2    0    0 -0.15212175926E+03 -0.16392628815E+03  0.21965128668E+03  0.33746784340E+03  0.12500000000E+03 0.  0.
         21    1    1    2  503  501  0.77867185316E+02  0.10907527710E+03 -0.50365636991E+03  0.52118178553E+03  0.00000000000E+00 0. -1.
          3    1    1    2  501    0  0.74254573947E+02  0.54851011044E+02 -0.99129442555E+02  0.13545856025E+03  0.00000000000E+00 0. -1.
<mgrwt>
<rscale>  4 0.18523296E+03</rscale>
<asrwt>0</asrwt>
<pdfrwt beam="1">  1       21 0.10594175E+00 0.18523296E+03</pdfrwt>
<pdfrwt beam="2">  1        3 0.46997974E-01 0.18523296E+03</pdfrwt>
<totfact> 0.16010969E+02</totfact>
</mgrwt>
</event>
<event>
 5    0  0.3040647E+000  0.3229508E+03  0.7546771E-02  0.1074299E+00
          2   -1    0    0  502    0 -0.00000000000E+00  0.00000000000E+00  0.71804270314E+03  0.71804270314E+03  0.00000000000E+00 0. -1.
         21   -1    0    0  503  502  0.00000000000E+00 -0.00000000000E+00 -0.14469099447E+04  0.14469099447E+04  0.00000000000E+00 0.  1.
         25    1    1    2    0    0 -0.30155009066E+03  0.55286423029E+02 -0.26486445919E+03  0.42398965494E+03  0.12500000000E+03 0.  0.
         21    1    1    2  503  501  0.62293958600E+01 -0.23971609874E+02 -0.10677983595E+04  0.10680855677E+04  0.00000000000E+00 0.  1.
          2    1    1    2  501    0  0.29532069480E+03 -0.31314813155E+02  0.60379557714E+03  0.67287742515E+03  0.00000000000E+00 0. -1.
<mgrwt>
<rscale>  4 0.32295080E+03</rscale>
<asrwt>0</asrwt>
<pdfrwt beam="1">  1       21 0.22260153E+00 0.32295080E+03</pdfrwt>
<pdfrwt beam="2">  1        2 0.11046811E+00 0.32295080E+03</pdfrwt>
<totfact> 0.44417496E+01</totfact>
</mgrwt>
</event>
<event>
 5    0  0.3040647E+000  0.2862212E+03  0.7546771E-02  0.1092339E+00
         21   -1    0    0  503  502  0.00000000000E+00  0.00000000000E+00  0.18816160751E+03  0.18816160751E+03  0.00000000000E+00 0.  1.
          2   -1    0    0  502    0 -0.00000000000E+00 -0.00000000000E+00 -0.13060979011E+04  0.13060979011E+04  0.00000000000E+00 0.  1.
         25    1    1    2    0    0  0.26809518961E+03  0.24174060847E+03 -0.40058215264E+03  0.55353826741E+03  0.12500000000E+03 0.  0.
         21    1    1    2  503  501 -0.11609723533E+03 -0.63464684273E+02  0.47663818138E+02  0.14063489525E+03  0.00000000000E+00 0.  1.
          2    1    1    2  501    0 -0.15199795428E+03 -0.17827592420E+03 -0.76501795907E+03  0.80008634594E+03  0.00000000000E+00 0.  1.
<mgrwt>
<rscale>  4 0.28622121E+03</rscale>
<asrwt>0</asrwt>
<pdfrwt beam="1">  1       21 0.28947940E-01 0.28622121E+03</pdfrwt>
<pdfrwt beam="2">  1        2 0.20093814E+00 0.28622121E+03</pdfrwt>
<totfact> 0.24463392E+03</totfact>
</mgrwt>
</event>
<event>
 5    0  0.3040647E+000  0.2690384E+03  0.7546771E-02  0.1101831E+00
          2   -1    0    0  502    0 -0.00000000000E+00  0.00000000000E+00  0.35327239751E+04  0.35327239751E+04  0.00000000000E+00 0.  1.
         21   -1    0    0  503  502  0.00000000000E+00 -0.00000000000E+00 -0.51142623595E+02  0.51142623595E+02  0.00000000000E+00 0.  1.
         25    1    1    2    0    0  0.20872596306E+03  0.99637958852E+02  0.24326414003E+04  0.24468067829E+04  0.12500000000E+03 0.  0.
         21    1    1    2  503  501  0.44213557813E+01  0.39239864188E+02 -0.15664452546E+02  0.42481647826E+02  0.00000000000E+00 0.  1.
          2    1    1    2  501    0 -0.21314731885E+03 -0.13887782304E+03  0.10646044038E+04  0.10945781680E+04  0.00000000000E+00 0.  1.
<mgrwt>
<rscale>  4 0.26903844E+03</rscale>
<asrwt>0</asrwt>
<pdfrwt beam="1">  1       21 0.78680987E-02 0.26903844E+03</pdfrwt>
<pdfrwt beam="2">  1        2 0.54349580E+00 0.26903844E+03</pdfrwt>
<totfact> 0.15054786E+03</totfact>
</mgrwt>
</event>
<event>
 5    0  0.3040647E+000  0.2401819E+03  0.7546771E-02  0.1119672E+00
         21   -1    0    0  503  502  0.00000000000E+00  0.00000000000E+00  0.91104062411E+03  0.91104062411E+03  0.00000000000E+00 0. -1.
          1   -1    0    0  502    0 -0.00000000000E+00 -0.00000000000E+00 -0.21470631698E+03  0.21470631698E+03  0.00000000000E+00 0. -1.
         25    1    1    2    0    0 -0.18940974539E+02 -0.30948818338E+03  0.65750487603E+03  0.73761735214E+03  0.12500000000E+03 0.  0.
         21    1    1    2  503  501  0.66243129578E+02  0.11911915726E+03  0.11437209931E+03  0.17792836464E+03  0.00000000000E+00 0. -1.
          1    1    1    2  501    0 -0.47302155039E+02  0.19036902612E+03 -0.75542668217E+02  0.21020122431E+03  0.00000000000E+00 0. -1.
<mgrwt>
<rscale>  4 0.24018195E+03</rscale>
<asrwt>0</asrwt>
<pdfrwt beam="1">  1       21 0.14016009E+00 0.24018195E+03</pdfrwt>
<pdfrwt beam="2">  1        1 0.33031741E-01 0.24018195E+03</pdfrwt>
<totfact> 0.50513863E+02</totfact>
</mgrwt>
</event>
<event>
 5    0  0.3040647E+000  0.2378140E+03  0.7546771E-02  0.1121258E+00
         21   -1    0    0  503  502  0.00000000000E+00  0.00000000000E+00  0.36672958509E+02  0.36672958509E+02  0.00000000000E+00 0. -1.
          2   -1    0    0  502    0 -0.00000000000E+00 -0.00000000000E+00 -0.17840880600E+04  0.17840880600E+04  0.00000000000E+00 0. -1.
         25    1    1    2    0    0 -0.21463148695E+03 -0.16208485708E+02 -0.57780869883E+03  0.62914011368E+03  0.12500000000E+03 0.  0.
         21    1    1    2  503  501  0.19319166929E+02 -0.16689628451E+02 -0.74643178069E+02  0.78888389139E+02  0.00000000000E+00 0. -1.
          2    1    1    2  501    0  0.19531232002E+03  0.32898114159E+02 -0.10949632246E+04  0.11127325157E+04  0.00000000000E+00 0. -1.
<mgrwt>
<rscale>  4 0.23781401E+03</rscale>
<asrwt>0</asrwt>
<pdfrwt beam="1">  1       21 0.56419941E-02 0.23781401E+03</pdfrwt>
<pdfrwt beam="2">  1        2 0.27447506E+00 0.23781401E+03</pdfrwt>
<totfact> 0.26978460E+04</totfact>
</mgrwt>
</event>
<event>
 5    0  0.3040647E+000  0.2808053E+03  0.7546771E-02  0.1095250E+00
         21   -1    0    0  503  502  0.00000000000E+00  0.00000000000E+00  0.44619257052E+03  0.44619257052E+03  0.00000000000E+00 0.  1.
          1   -1    0    0  502    0 -0.00000000000E+00 -0.00000000000E+00 -0.18645702272E+03  0.18645702272E+03  0.00000000000E+00 0.  1.
         25    1    1    2    0    0 -0.15861238409E+03 -0.19511213233E+03  0.22673160695E+02  0.28171919492E+03  0.12500000000E+03 0.  0.
         21    1    1    2  503  501  0.96058680525E+01  0.18128506565E+02  0.47816954025E+02  0.52032456636E+02  0.00000000000E+00 0.  1.
          1    1    1    2  501    0  0.14900651604E+03  0.17698362576E+03  0.18924543308E+03  0.29889794170E+03  0.00000000000E+00 0.  1.
<mgrwt>
<rscale>  4 0.28080533E+03</rscale>
<asrwt>0</asrwt>
<pdfrwt beam="1">  1       21 0.68645010E-01 0.28080533E+03</pdfrwt>
<pdfrwt beam="2">  1        1 0.28685696E-01 0.28080533E+03</pdfrwt>
<totfact> 0.32746697E+03</totfact>
</mgrwt>
</event>
<event>
 5    0  0.3040647E+000  0.3219712E+03  0.7546771E-02  0.1074746E+00
          2   -1    0    0  502    0 -0.00000000000E+00  0.00000000000E+00  0.68574774897E+03  0.68574774897E+03  0.00000000000E+00 0.  1.
         21   -1    0    0  503  502  0.00000000000E+00 -0.00000000000E+00 -0.18117183875E+03  0.18117183875E+03  0.00000000000E+00 0.  1.
         25    1    1    2    0    0 -0.28881435879E+03  0.27829641407E+02  0.37822138587E+03  0.49281298635E+03  0.12500000000E+03 0.  0.
         21    1    1    2  503  501 -0.18774827487E+02 -0.12392979756E+02 -0.22697976238E+02  0.31957443885E+02  0.00000000000E+00 0.  1.
          2    1    1    2  501    0  0.30758918628E+03 -0.15436661651E+02  0.14905250059E+03  0.34214915749E+03  0.00000000000E+00 0.  1.
<mgrwt>
<rscale>  4 0.32197120E+03</rscale>
<asrwt>0</asrwt>
<pdfrwt beam="1">  1       21 0.27872591E-01 0.32197120E+03</pdfrwt>
<pdfrwt beam="2">  1        2 0.10549965E+00 0.32197120E+03</pdfrwt>
<totfact> 0.64446955E+03</totfact>
</mgrwt>
</event>
<event>
 5    0  0.3040647E+000  0.3223770E+03  0.7546771E-02  0.1074561E+00
         21   -1    0    0  503  502  0.00000000000E+00  0.00000000000E+00  0.13530298734E+04  0.13530298734E+04  0.00000000000E+00 0. -1.
          1   -1    0    0  502    0 -0.00000000000E+00 -0.00000000000E+00 -0.11093279889E+03  0.11093279889E+03  0.00000000000E+00 0. -1.
         25    1    1    2    0    0  0.20999393556E+03  0.13645825488E+03  0.66911523632E+03  0.72529890926E+03  0.12500000000E+03 0.  0.
         21    1    1    2  503  501  0.48546843173E+01  0.10701781831E+03  0.28563694396E+03  0.30506531292E+03  0.00000000000E+00 0.  1.
          1    1    1    2  501    0 -0.21484861988E+03 -0.24347607320E+03  0.28734489419E+03  0.43359845007E+03  0.00000000000E+00 0. -1.
<mgrwt>
<rscale>  4 0.32237698E+03</rscale>
<asrwt>0</asrwt>
<pdfrwt beam="1">  1       21 0.20815843E+00 0.32237698E+03</pdfrwt>
<pdfrwt beam="2">  1        1 0.17066585E-01 0.32237698E+03</pdfrwt>
<totfact> 0.37227938E+02</totfact>
</mgrwt>
</event>
<event>
 5    0  0.3040647E+000  0.2878324E+03  0.7546771E-02  0.1091486E+00
         -3   -1    0    0    0  501 -0.00000000000E+00  0.00000000000E+00  0.19082358162E+04  0.19082358162E+04  0.00000000000E+00 0. -1.
         21   -1    0    0  501  502  0.00000000000E+00 -0.00000000000E+00 -0.50874756847E+03  0.50874756847E+03  0.00000000000E+00 0.  1.
         25    1    1    2    0    0  0.11106639804E+03  0.22481325754E+03 -0.38275699271E+03  0.47434656213E+03  0.12500000000E+03 0.  0.
         21    1    1    2  503  502 -0.58294244698E+02  0.29389171174E+02 -0.56083512058E+02  0.86065688123E+02  0.00000000000E+00 0. -1.
         -3    1    1    2    0  503 -0.52772153343E+02 -0.25420242871E+03  0.18383287525E+04  0.18565711344E+04  0.00000000000E+00 0. -1.
<mgrwt>
<rscale>  4 0.28783235E+03</rscale>
<asrwt>0</asrwt>
<pdfrwt beam="1">  1       21 0.78268858E-01 0.28783235E+03</pdfrwt>
<pdfrwt beam="2">  1       -3 0.29357474E+00 0.28783235E+03</pdfrwt>
<totfact> 0.32149037E+00</totfact>
</mgrwt>
</event>
<event>
 5    0  0.3040647E+000  0.2328569E+03  0.7546771E-02  0.1124645E+00
         21   -1    0    0  503  502  0.00000000000E+00  0.00000000000E+00  0.70159080198E+02  0.70159080198E+02  0.00000000000E+00 0. -1.
          2   -1    0    0  502    0 -0.00000000000E+00 -0.00000000000E+00 -0.28436808671E+04  0.28436808671E+04  0.00000000000E+00 0. -1.
         25    1    1    2    0    0 -0.42345076410E+02 -0.20394420004E+03 -0.33256551331E+03  0.41183875833E+03  0.12500000000E+03 0.  0.
         21    1    1    2  503  501  0.21328027893E+02  0.96844944597E+01  0.21505927675E+02  0.31799042941E+02  0.00000000000E+00 0. -1.
          2    1    1    2  501    0  0.21017048516E+02  0.19425970558E+03 -0.24624622013E+04  0.24702021460E+04  0.00000000000E+00 0. -1.
<mgrwt>
<rscale>  4 0.23285688E+03</rscale>
<asrwt>0</asrwt>
<pdfrwt beam="1">  1       21 0.10793708E-01 0.23285688E+03</pdfrwt>
<pdfrwt beam="2">  1        2 0.43748923E+00 0.23285688E+03</pdfrwt>
<totfact> 0.23365832E+03</totfact>
</mgrwt>
</event>
<event>
 5    0  0.3040647E+000  0.2600599E+03  0.7546771E-02  0.1107107E+00
         21   -1    0    0  503  502  0.00000000000E+00  0.00000000000E+00  0.14807769737E+03  0.14807769737E+03  0.00000000000E+00 0. -1.
          2   -1    0    0  502    0 -0.00000000000E+00 -0.00000000000E+00 -0.59505143785E+03  0.59505143785E+03  0.00000000000E+00 0. -1.
         25    1    1    2    0    0 -0.12633334694E+03  0.20156372120E+03 -0.91612088791E+02  0.28391164658E+03  0.12500000000E+03 0.  0.
         21    1    1    2  503  501 -0.26695351818E+02 -0.35712252830E+02 -0.84709659861E+01  0.45384623780E+02  0.00000000000E+00 0. -1.
          2    1    1    2  501    0  0.15302869876E+03 -0.16585146837E+03 -0.34689068571E+03  0.41383286486E+03  0.00000000000E+00 0. -1.
<mgrwt>
<rscale>  4 0.26005992E+03</rscale>
<asrwt>0</asrwt>
<pdfrwt beam="1">  1       21 0.22781184E-01 0.26005992E+03</pdfrwt>
<pdfrwt beam="2">  1        2 0.91546376E-01 0.26005992E+03</pdfrwt>
<totfact> 0.11401620E+04</totfact>
</mgrwt>
</event>
<event>
 5    0  0.3040647E+000  0.1893042E+03  0.7546771E-02  0.1159090E+00
         21   -1    0    0  503  502  0.00000000000E+00  0.00000000000E+00  0.35735558253E+03  0.35735558253E+03  0.00000000000E+00 0. -1.
          1   -1    0    0  502    0 -0.00000000000E+00 -0.00000000000E+00 -0.11128666787E+04  0.11128666787E+04  0.00000000000E+00 0.  1.
         25    1    1    2    0    0 -0.45288029350E+02  0.24156610747E+03 -0.90332391285E+03  0.94447037084E+03  0.12500000000E+03 0.  0.
         21    1    1    2  503  501 -0.24222941915E+02 -0.13855894808E+03  0.29877040997E+03  0.33022581801E+03  0.00000000000E+00 0. -1.
          1    1    1    2  501    0  0.69510971265E+02 -0.10300715939E+03 -0.15095759334E+03  0.19552607243E+03  0.00000000000E+00 0.  1.
<mgrwt>
<rscale>  4 0.18930422E+03</rscale>
<asrwt>0</asrwt>
<pdfrwt beam="1">  1       21 0.54977782E-01 0.18930422E+03</pdfrwt>
<pdfrwt beam="2">  1        1 0.17121026E+00 0.18930422E+03</pdfrwt>
<totfact> 0.46579152E+02</totfact>
</mgrwt>
</event>
<event>
 5    0  0.3040647E+000  0.2379336E+03  0.7546771E-02  0.1121177E+00
         21   -1    0    0  503  502  0.00000000000E+00  0.00000000000E+00  0.12319578172E+03  0.12319578172E+03  0.00000000000E+00 0.  1.
          2   -1    0    0  502    0 -0.00000000000E+00 -0.00000000000E+00 -0.90988262412E+03  0.90988262412E+03  0.00000000000E+00 0.  1.
         25    1    1    2    0    0 -0.23482117421E+03 -0.15657537015E+03 -0.30060116417E+03  0.43086296000E+03  0.12500000000E+03 0.  0.
         21    1    1    2  503  501  0.70536453936E+02  0.78849031154E+02 -0.28065112347E+02  0.10945415286E+03  0.00000000000E+00 0.  1.
          2    1    1    2  501    0  0.16428472028E+03  0.77726338999E+02 -0.45802056588E+03  0.49276129298E+03  0.00000000000E+00 0.  1.
<mgrwt>
<rscale>  4 0.23793361E+03</rscale>
<asrwt>0</asrwt>
<pdfrwt beam="1">  1       21 0.18953198E-01 0.23793361E+03</pdfrwt>
<pdfrwt beam="2">  1        2 0.13998194E+00 0.23793361E+03</pdfrwt>
<totfact> 0.95658402E+03</totfact>
</mgrwt>
</event>
<event>
 5    0  0.3040647E+000  0.5242015E+03  0.7546771E-02  0.1007648E+00
         21   -1    0    0  503  502  0.00000000000E+00  0.00000000000E+00  0.14539123907E+04  0.14539123907E+04  0.00000000000E+00 0.  1.
          2   -1    0    0  502    0 -0.00000000000E+00 -0.00000000000E+00 -0.34830011043E+04  0.34830011043E+04  0.00000000000E+00 0. -1.
         25    1    1    2    0    0 -0.18169278226E+03 -0.40606934379E+03  0.12218032841E+04  0.13062667585E+04  0.12500000000E+03 0.  0.
         21    1    1    2  503  501 -0.80184562886E+01 -0.67383534712E+02  0.16420378210E+03  0.17767306618E+03  0.00000000000E+00 0.  1.
          2    1    1    2  501    0  0.18971123855E+03  0.47345287850E+03 -0.34150957799E+04  0.34529736703E+04  0.00000000000E+00 0. -1.
<mgrwt>
<rscale>  4 0.52420148E+03</rscale>
<asrwt>0</asrwt>
<pdfrwt beam="1">  1       21 0.22367883E+00 0.52420148E+03</pdfrwt>
<pdfrwt beam="2">  1        2 0.53584632E+00 0.52420148E+03</pdfrwt>
<totfact> 0.93305004E-01</totfact>
</mgrwt>
</event>
<event>
 5    0  0.3040647E+000  0.2863377E+03  0.7546771E-02  0.1092277E+00
         21   -1    0    0  501  502  0.00000000000E+00  0.00000000000E+00  0.20965754873E+03  0.20965754873E+03  0.00000000000E+00 0. -1.
         -1   -1    0    0    0  501 -0.00000000000E+00 -0.00000000000E+00 -0.87444555208E+03  0.87444555208E+03  0.00000000000E+00 0. -1.
         25    1    1    2    0    0  0.23283396747E+03  0.92211190773E+02 -0.29787632730E+02  0.28147266861E+03  0.12500000000E+03 0.  0.
         21    1    1    2  503  502  0.16951550633E+02 -0.23065812407E+02  0.56946674459E+02  0.63736257364E+02  0.00000000000E+00 0. -1.
         -1    1    1    2    0  503 -0.24978551811E+03 -0.69145378366E+02 -0.69194704508E+03  0.73889417483E+03  0.00000000000E+00 0. -1.
<mgrwt>
<rscale>  4 0.28633771E+03</rscale>
<asrwt>0</asrwt>
<pdfrwt beam="1">  1       21 0.32255007E-01 0.28633771E+03</pdfrwt>
<pdfrwt beam="2">  1       -1 0.13453009E+00 0.28633771E+03</pdfrwt>
<totfact> 0.41974157E+02</totfact>
</mgrwt>
</event>
<event>
 5    0  0.3040647E+000  0.2433835E+03  0.7546771E-02  0.1117559E+00
         -2   -1    0    0    0  501 -0.00000000000E+00  0.00000000000E+00  0.10383269174E+04  0.10383269174E+04  0.00000000000E+00 0. -1.
         21   -1    0    0  501  502  0.00000000000E+00 -0.00000000000E+00 -0.38850203460E+03  0.38850203460E+03  0.00000000000E+00 0. -1.
         25    1    1    2    0    0 -0.11983001588E+03  0.19496706536E+03  0.44768694237E+03  0.51809264389E+03  0.12500000000E+03 0.  0.
         21    1    1    2  503  502 -0.11385262019E+01 -0.36887304327E+02 -0.33441747608E+03  0.33644764492E+03  0.00000000000E+00 0. -1.
         -2    1    1    2    0  503  0.12096854209E+03 -0.15807976104E+03  0.53655541647E+03  0.57228866315E+03  0.00000000000E+00 0. -1.
<mgrwt>
<rscale>  4 0.24338346E+03</rscale>
<asrwt>0</asrwt>
<pdfrwt beam="1">  1       21 0.59769544E-01 0.24338346E+03</pdfrwt>
<pdfrwt beam="2">  1       -2 0.15974260E+00 0.24338346E+03</pdfrwt>
<totfact> 0.56479917E+01</totfact>
</mgrwt>
</event>
<event>
 5    0  0.3040647E+000  0.2429569E+03  0.7546771E-02  0.1117839E+00
         21   -1    0    0  501  502  0.00000000000E+00  0.00000000000E+00  0.13566537297E+03  0.13566537297E+03  0.00000000000E+00 0. -1.
         -3   -1    0    0    0  501 -0.00000000000E+00 -0.00000000000E+00 -0.62591497687E+03  0.62591497687E+03  0.00000000000E+00 0. -1.
         25    1    1    2    0    0  0.11113843800E+02 -0.21651034239E+03 -0.83985247055E+02  0.26396736088E+03  0.12500000000E+03 0.  0.
         21    1    1    2  503  502  0.63161191797E+02  0.22009971666E+02 -0.44890352625E+02  0.80553825239E+02  0.00000000000E+00 0.  1.
         -3    1    1    2    0  503 -0.74275035597E+02  0.19450037072E+03 -0.36137400422E+03  0.41705916373E+03  0.00000000000E+00 0. -1.
<mgrwt>
<rscale>  4 0.24295685E+03</rscale>
<asrwt>0</asrwt>
<pdfrwt beam="1">  1       21 0.20871595E-01 0.24295685E+03</pdfrwt>
<pdfrwt beam="2">  1       -3 0.96294615E-01 0.24295685E+03</pdfrwt>
<totfact> 0.10346694E+03</totfact>
</mgrwt>
</event>
<event>
 5    0  0.3040647E+000  0.2345263E+03  0.7546771E-02  0.1123494E+00
          2   -1    0    0  502    0 -0.00000000000E+00  0.00000000000E+00  0.36474645775E+03  0.36474645775E+03  0.00000000000E+00 0. -1.
         21   -1    0    0  503  502  0.00000000000E+00 -0.00000000000E+00 -0.86070437547E+03  0.86070437547E+03  0.00000000000E+00 0. -1.
         25    1    1    2    0    0 -0.16869262241E+03  0.16455472663E+03 -0.47590058681E+03  0.54556560323E+03  0.12500000000E+03 0.  0.
         21    1    1    2  503  501  0.45007192230E+02 -0.12015538029E+02 -0.31890392795E+03  0.32228828053E+03  0.00000000000E+00 0. -1.
          2    1    1    2  501    0  0.12368543017E+03 -0.15253918860E+03  0.29884659704E+03  0.35759694945E+03  0.00000000000E+00 0. -1.
<mgrwt>
<rscale>  4 0.23452633E+03</rscale>
<asrwt>0</asrwt>
<pdfrwt beam="1">  1       21 0.13241605E+00 0.23452633E+03</pdfrwt>
<pdfrwt beam="2">  1        2 0.56114841E-01 0.23452633E+03</pdfrwt>
<totfact> 0.44203321E+02</totfact>
</mgrwt>
</event>
<event>
 5    0  0.3040647E+000  0.3687484E+03  0.7546771E-02  0.1055173E+00
          2   -1    0    0  502    0 -0.00000000000E+00  0.00000000000E+00  0.16046252805E+04  0.16046252805E+04  0.00000000000E+00 0.  1.
         21   -1    0    0  503  502  0.00000000000E+00 -0.00000000000E+00 -0.26107707194E+03  0.26107707194E+03  0.00000000000E+00 0.  1.
         25    1    1    2    0    0  0.10310215075E+03 -0.23086163320E+03 -0.11454830281E+03  0.30442316083E+03  0.12500000000E+03 0.  0.
         21    1    1    2  503  501  0.60010384041E+02 -0.86784082538E+02  0.66773722917E+02  0.12486574089E+03  0.00000000000E+00 0. -1.
          2    1    1    2  501    0 -0.16311253479E+03  0.31764571574E+03  0.13913227885E+04  0.14364134507E+04  0.00000000000E+00 0.  1.
<mgrwt>
<rscale>  4 0.36874841E+03</rscale>
<asrwt>0</asrwt>
<pdfrwt beam="1">  1       21 0.40165704E-01 0.36874841E+03</pdfrwt>
<pdfrwt beam="2">  1        2 0.24686542E+00 0.36874841E+03</pdfrwt>
<totfact> 0.84751326E+02</totfact>
</mgrwt>
</event>
<event>
 5    0  0.3040647E+000  0.2311903E+03  0.7546771E-02  0.1125805E+00
         21   -1    0    0  501  502  0.00000000000E+00  0.00000000000E+00  0.22023019733E+04  0.22023019733E+04  0.00000000000E+00 0.  1.
         -3   -1    0    0    0  501 -0.00000000000E+00 -0.00000000000E+00 -0.82994494382E+02  0.82994494382E+02  0.00000000000E+00 0.  1.
         25    1    1    2    0    0 -0.11316358843E+03 -0.22252743444E+03  0.12658307850E+04  0.12962550031E+04  0.12500000000E+03 0.  0.
         21    1    1    2  503  502  0.93362819142E+02  0.13813014024E+03  0.88212438986E+03  0.89774160583E+03  0.00000000000E+00 0.  1.
         -3    1    1    2    0  503  0.19800769287E+02  0.84397294199E+02 -0.28647695911E+02  0.91299858782E+02  0.00000000000E+00 0.  1.
<mgrwt>
<rscale>  4 0.23119031E+03</rscale>
<asrwt>0</asrwt>
<pdfrwt beam="1">  1       21 0.33881564E+00 0.23119031E+03</pdfrwt>
<pdfrwt beam="2">  1       -3 0.12768385E-01 0.23119031E+03</pdfrwt>
<totfact> 0.47298400E+01</totfact>
</mgrwt>
</event>
<event>
 5    0  0.3040647E+000  0.2272821E+03  0.7546771E-02  0.1128567E+00
         21   -1    0    0  503  502  0.00000000000E+00  0.00000000000E+00  0.29203843971E+03  0.29203843971E+03  0.00000000000E+00 0.  1.
          1   -1    0    0  502    0 -0.00000000000E+00 -0.00000000000E+00 -0.66469172980E+03  0.66469172980E+03  0.00000000000E+00 0. -1.
         25    1    1    2    0    0  0.31324270657E+03  0.86644667747E+02 -0.20432433789E+03  0.40373472321E+03  0.12500000000E+03 0.  0.
         21    1    1    2  503  501 -0.16100586291E+03 -0.58065319492E+02  0.13128601885E+03  0.21570926722E+03  0.00000000000E+00 0.  1.
          1    1    1    2  501    0 -0.15223684367E+03 -0.28579348255E+02 -0.29961497105E+03  0.33728617907E+03  0.00000000000E+00 0. -1.
<mgrwt>
<rscale>  4 0.22728214E+03</rscale>
<asrwt>0</asrwt>
<pdfrwt beam="1">  1       21 0.44928991E-01 0.22728214E+03</pdfrwt>
<pdfrwt beam="2">  1        1 0.10226027E+00 0.22728214E+03</pdfrwt>
<totfact> 0.15825921E+03</totfact>
</mgrwt>
</event>
<event>
 5    0  0.3040647E+000  0.2816767E+03  0.7546771E-02  0.1094777E+00
         21   -1    0    0  503  502  0.00000000000E+00  0.00000000000E+00  0.64247837863E+03  0.64247837863E+03  0.00000000000E+00 0. -1.
          2   -1    0    0  502    0 -0.00000000000E+00 -0.00000000000E+00 -0.15218391924E+03  0.15218391924E+03  0.00000000000E+00 0. -1.
         25    1    1    2    0    0  0.14953836967E+03  0.21853115639E+03  0.20698073226E+03  0.35858557395E+03  0.12500000000E+03 0.  0.
         21    1    1    2  503  501 -0.19126151208E+02 -0.12448488783E+02  0.16216646345E+03  0.16376427083E+03  0.00000000000E+00 0. -1.
          2    1    1    2  501    0 -0.13041221847E+03 -0.20608266760E+03  0.12114726368E+03  0.27231245309E+03  0.00000000000E+00 0. -1.
<mgrwt>
<rscale>  4 0.28167669E+03</rscale>
<asrwt>0</asrwt>
<pdfrwt beam="1">  1       21 0.98842826E-01 0.28167669E+03</pdfrwt>
<pdfrwt beam="2">  1        2 0.23412911E-01 0.28167669E+03</pdfrwt>
<totfact> 0.23250934E+03</totfact>
</mgrwt>
</event>
<event>
 5    0  0.3040647E+000  0.2041521E+03  0.7546771E-02  0.1146282E+00
          1   -1    0    0  502    0 -0.00000000000E+00  0.00000000000E+00  0.66963132668E+03  0.66963132668E+03  0.00000000000E+00 0. -1.
         21   -1    0    0  503  502  0.00000000000E+00 -0.00000000000E+00 -0.67540200250E+03  0.67540200250E+03  0.00000000000E+00 0.  1.
         25    1    1    2    0    0  0.11707846372E+03  0.22691882579E+03 -0.57017872351E+03  0.63712502455E+03  0.12500000000E+03 0.  0.
         21    1    1    2  503  501 -0.43993068996E+02 -0.84865667058E+02 -0.23703621456E+02  0.98485700663E+02  0.00000000000E+00 0.  1.
          1    1    1    2  501    0 -0.73085394720E+02 -0.14205315873E+03  0.58811166915E+03  0.60942260396E+03  0.00000000000E+00 0. -1.
<mgrwt>
<rscale>  4 0.20415210E+03</rscale>
<asrwt>0</asrwt>
<pdfrwt beam="1">  1       21 0.10390800E+00 0.20415210E+03</pdfrwt>
<pdfrwt beam="2">  1        1 0.10302020E+00 0.20415210E+03</pdfrwt>
<totfact> 0.24862892E+02</totfact>
</mgrwt>
</event>
<event>
 5    0  0.3040647E+000  0.2567776E+03  0.7546771E-02  0.1109095E+00
         21   -1    0    0  501  502  0.00000000000E+00  0.00000000000E+00  0.10587865268E+03  0.10587865268E+03  0.00000000000E+00 0.  1.
         -1   -1    0    0    0  501 -0.00000000000E+00 -0.00000000000E+00 -0.94180077146E+03  0.94180077146E+03  0.00000000000E+00 0. -1.
         25    1    1    2    0    0 -0.11492711916E+03 -0.17729350258E+03 -0.12858174401E+03  0.27712721568E+03  0.12500000000E+03 0.  0.
         21    1    1    2  503  502  0.62268947677E+01 -0.22593700931E+02  0.39404764651E+01  0.23765035135E+02  0.00000000000E+00 0.  1.
         -1    1    1    2    0  503  0.10870022439E+03  0.19988720351E+03 -0.71128085124E+03  0.74678717333E+03  0.00000000000E+00 0. -1.
<mgrwt>
<rscale>  4 0.25677762E+03</rscale>
<asrwt>0</asrwt>
<pdfrwt beam="1">  1       21 0.16289024E-01 0.25677762E+03</pdfrwt>
<pdfrwt beam="2">  1       -1 0.14489242E+00 0.25677762E+03</pdfrwt>
<totfact> 0.12935275E+03</totfact>
</mgrwt>
</event>
<event>
 5    0  0.3040647E+000  0.2393390E+03  0.7546771E-02  0.1120234E+00
          2   -1    0    0  502    0 -0.00000000000E+00  0.00000000000E+00  0.22894327796E+04  0.22894327796E+04  0.00000000000E+00 0.  1.
         21   -1    0    0  503  502  0.00000000000E+00 -0.00000000000E+00 -0.51321325147E+02  0.51321325147E+02  0.00000000000E+00 0.  1.
         25    1    1    2    0    0 -0.17382440673E+03 -0.10134738142E+03  0.33360939906E+03  0.40915332974E+03  0.12500000000E+03 0.  0.
         21    1    1    2  503  501 -0.20693386586E+02  0.36357657273E+02  0.47449055781E+02  0.63257476912E+02  0.00000000000E+00 0. -1.
          2    1    1    2  501    0  0.19451779332E+03  0.64989724149E+02  0.18570529997E+04  0.18683432981E+04  0.00000000000E+00 0.  1.
<mgrwt>
<rscale>  4 0.23933896E+03</rscale>
<asrwt>0</asrwt>
<pdfrwt beam="1">  1       21 0.78955903E-02 0.23933896E+03</pdfrwt>
<pdfrwt beam="2">  1        2 0.35222035E+00 0.23933896E+03</pdfrwt>
<totfact> 0.81743017E+03</totfact>
</mgrwt>
</event>
<event>
 5    0  0.3040647E+000  0.3346858E+03  0.7546771E-02  0.1069082E+00
         21   -1    0    0  503  502  0.00000000000E+00  0.00000000000E+00  0.20768545770E+04  0.20768545770E+04  0.00000000000E+00 0. -1.
          2   -1    0    0  502    0 -0.00000000000E+00 -0.00000000000E+00 -0.20111893686E+04  0.20111893686E+04  0.00000000000E+00 0.  1.
         25    1    1    2    0    0 -0.29072626743E+03  0.15507259038E+03  0.94909240005E+03  0.10124083438E+04  0.12500000000E+03 0.  0.
         21    1    1    2  503  501  0.13168398159E+02 -0.16487859881E+02  0.10838459721E+04  0.10840513583E+04  0.00000000000E+00 0. -1.
          2    1    1    2  501    0  0.27755786927E+03 -0.13858473050E+03 -0.19672731637E+04  0.19915842435E+04  0.00000000000E+00 0.  1.
<mgrwt>
<rscale>  4 0.33468583E+03</rscale>
<asrwt>0</asrwt>
<pdfrwt beam="1">  1       21 0.31951609E+00 0.33468583E+03</pdfrwt>
<pdfrwt beam="2">  1        2 0.30941375E+00 0.33468583E+03</pdfrwt>
<totfact> 0.20561101E+00</totfact>
</mgrwt>
</event>
<event>
 5    0  0.3040647E+000  0.4577522E+03  0.7546771E-02  0.1025435E+00
          2   -1    0    0  502    0 -0.00000000000E+00  0.00000000000E+00  0.24873115843E+04  0.24873115843E+04  0.00000000000E+00 0.  1.
         21   -1    0    0  503  502  0.00000000000E+00 -0.00000000000E+00 -0.57172770030E+03  0.57172770030E+03  0.00000000000E+00 0.  1.
         25    1    1    2    0    0  0.55269348349E+03  0.14217168953E+02 -0.29169033479E+03  0.63747977694E+03  0.12500000000E+03 0.  0.
         21    1    1    2  503  501 -0.11750343803E+03 -0.40104601487E+01 -0.46275728826E+02  0.12635103805E+03  0.00000000000E+00 0.  1.
          2    1    1    2  501    0 -0.43519004547E+03 -0.10206708804E+02  0.22535499476E+04  0.22952084696E+04  0.00000000000E+00 0.  1.
<mgrwt>
<rscale>  4 0.45775219E+03</rscale>
<asrwt>0</asrwt>
<pdfrwt beam="1">  1       21 0.87958109E-01 0.45775219E+03</pdfrwt>
<pdfrwt beam="2">  1        2 0.38266331E+00 0.45775219E+03</pdfrwt>
<totfact> 0.49047564E+01</totfact>
</mgrwt>
</event>
<event>
 5    0  0.3040647E+000  0.2645412E+03  0.7546771E-02  0.1104445E+00
         21   -1    0    0  503  502  0.00000000000E+00  0.00000000000E+00  0.20734258408E+03  0.20734258408E+03  0.00000000000E+00 0. -1.
          1   -1    0    0  502    0 -0.00000000000E+00 -0.00000000000E+00 -0.69907238351E+03  0.69907238351E+03  0.00000000000E+00 0. -1.
         25    1    1    2    0    0 -0.64810276786E+02  0.24069103252E+03  0.61184618527E+02  0.28548397968E+03  0.12500000000E+03 0.  0.
         21    1    1    2  503  501  0.12635510216E+02 -0.15643718549E+02  0.16461586216E+01  0.20176518200E+02  0.00000000000E+00 0. -1.
          1    1    1    2  501    0  0.52174766570E+02 -0.22504731397E+03 -0.55456057658E+03  0.60075446971E+03  0.00000000000E+00 0. -1.
<mgrwt>
<rscale>  4 0.26454119E+03</rscale>
<asrwt>0</asrwt>
<pdfrwt beam="1">  1       21 0.31898859E-01 0.26454119E+03</pdfrwt>
<pdfrwt beam="2">  1        1 0.10754960E+00 0.26454119E+03</pdfrwt>
<totfact> 0.28970856E+03</totfact>
</mgrwt>
</event>
<event>
 5    0  0.3040647E+000  0.4397998E+03  0.7546771E-02  0.1030808E+00
          2   -1    0    0  502    0 -0.00000000000E+00  0.00000000000E+00  0.15624429094E+04  0.15624429094E+04  0.00000000000E+00 0.  1.
         21   -1    0    0  503  502  0.00000000000E+00 -0.00000000000E+00 -0.39001996697E+03  0.39001996697E+03  0.00000000000E+00 0.  1.
         25    1    1    2    0    0 -0.38130473239E+03  0.67865798217E+02 -0.64228348900E+02  0.41200648820E+03  0.12500000000E+03 0.  0.
         21    1    1    2  503  501 -0.38234204557E+02  0.83046690446E+01 -0.11587851680E+03  0.12230557053E+03  0.00000000000E+00 0. -1.
          2    1    1    2  501    0  0.41953893695E+03 -0.76170467262E+02  0.13525298082E+04  0.14181508177E+04  0.00000000000E+00 0.  1.
<mgrwt>
<rscale>  4 0.43979984E+03</rscale>
<asrwt>0</asrwt>
<pdfrwt beam="1">  1       21 0.60003073E-01 0.43979984E+03</pdfrwt>
<pdfrwt beam="2">  1        2 0.24037583E+00 0.43979984E+03</pdfrwt>
<totfact> 0.37251582E+02</totfact>
</mgrwt>
</event>
<event>
 5    0  0.3040647E+000  0.3178909E+03  0.7546771E-02  0.1076624E+00
          1   -1    0    0  502    0 -0.00000000000E+00  0.00000000000E+00  0.21120494844E+04  0.21120494844E+04  0.00000000000E+00 0.  1.
         21   -1    0    0  503  502  0.00000000000E+00 -0.00000000000E+00 -0.14186072189E+04  0.14186072189E+04  0.00000000000E+00 0.  1.
         25    1    1    2    0    0  0.24350622173E+03  0.21643645788E+03 -0.98869310011E+03  0.10484651003E+04  0.12500000000E+03 0.  0.
         21    1    1    2  503  501 -0.22956396032E+02 -0.25149335291E+02 -0.38904709845E+03  0.39053441589E+03  0.00000000000E+00 0.  1.
          1    1    1    2  501    0 -0.22054982569E+03 -0.19128712259E+03  0.20711824641E+04  0.20916571871E+04  0.00000000000E+00 0.  1.
<mgrwt>
<rscale>  4 0.31789087E+03</rscale>
<asrwt>0</asrwt>
<pdfrwt beam="1">  1       21 0.21824727E+00 0.31789087E+03</pdfrwt>
<pdfrwt beam="2">  1        1 0.32493069E+00 0.31789087E+03</pdfrwt>
<totfact> 0.29018444E+00</totfact>
</mgrwt>
</event>
<event>
 5    0  0.3040647E+000  0.2767865E+03  0.7546771E-02  0.1097457E+00
         21   -1    0    0  503  502  0.00000000000E+00  0.00000000000E+00  0.18747744881E+03  0.18747744881E+03  0.00000000000E+00 0.  1.
          1   -1    0    0  502    0 -0.00000000000E+00 -0.00000000000E+00 -0.18115866286E+04  0.18115866286E+04  0.00000000000E+00 0.  1.
         25    1    1    2    0    0 -0.34822412726E+03  0.70725519560E+02 -0.27304748629E+03  0.46523335187E+03  0.12500000000E+03 0.  0.
         21    1    1    2  503  501  0.12715972690E+03  0.12086325964E+02  0.31255451108E+02  0.13150124959E+03  0.00000000000E+00 0.  1.
          1    1    1    2  501    0  0.22106440036E+03 -0.82811845524E+02 -0.13823171446E+04  0.14023294760E+04  0.00000000000E+00 0.  1.
<mgrwt>
<rscale>  4 0.27678652E+03</rscale>
<asrwt>0</asrwt>
<pdfrwt beam="1">  1       21 0.28842685E-01 0.27678652E+03</pdfrwt>
<pdfrwt beam="2">  1        1 0.27870563E+00 0.27678652E+03</pdfrwt>
<totfact> 0.55812058E+02</totfact>
</mgrwt>
</event>
<event>
 5    0  0.3040647E+000  0.2396777E+03  0.7546771E-02  0.1120008E+00
          4   -1    0    0  502    0 -0.00000000000E+00  0.00000000000E+00  0.30702637659E+03  0.30702637659E+03  0.00000000000E+00 0.  1.
         21   -1    0    0  503  502  0.00000000000E+00 -0.00000000000E+00 -0.14861607441E+04  0.14861607441E+04  0.00000000000E+00 0. -1.
         25    1    1    2    0    0 -0.18183469480E+03 -0.13622339078E+03 -0.11909467715E+04  0.12188518700E+04  0.12500000000E+03 0.  0.
         21    1    1    2  503  501  0.40594393025E+01  0.36398061249E+02 -0.24427073944E+03  0.24700099606E+03  0.00000000000E+00 0.  1.
          4    1    1    2  501    0  0.17777525549E+03  0.99825329532E+02  0.25608314346E+03  0.32733425462E+03  0.00000000000E+00 0.  1.
<mgrwt>
<rscale>  4 0.23967767E+03</rscale>
<asrwt>0</asrwt>
<pdfrwt beam="1">  1       21 0.22864012E+00 0.23967767E+03</pdfrwt>
<pdfrwt beam="2">  1        4 0.47234825E-01 0.23967767E+03</pdfrwt>
<totfact> 0.15833176E+01</totfact>
</mgrwt>
</event>
<event>
 5    0  0.3040647E+000  0.2752151E+03  0.7546771E-02  0.1098331E+00
         -3   -1    0    0    0  501 -0.00000000000E+00  0.00000000000E+00  0.74597064954E+03  0.74597064954E+03  0.00000000000E+00 0. -1.
         21   -1    0    0  501  502  0.00000000000E+00 -0.00000000000E+00 -0.18481505892E+03  0.18481505892E+03  0.00000000000E+00 0. -1.
         25    1    1    2    0    0 -0.25318195911E+03 -0.23475749427E+02  0.21213131341E+03  0.35394478292E+03  0.12500000000E+03 0.  0.
         21    1    1    2  503  502  0.17767156344E+02 -0.31981129608E+02 -0.77959024097E+02  0.86116629832E+02  0.00000000000E+00 0. -1.
         -3    1    1    2    0  503  0.23541480277E+03  0.55456879035E+02  0.42698330131E+03  0.49072429571E+03  0.00000000000E+00 0. -1.
<mgrwt>
<rscale>  4 0.27521514E+03</rscale>
<asrwt>0</asrwt>
<pdfrwt beam="1">  1       21 0.28433086E-01 0.27521514E+03</pdfrwt>
<pdfrwt beam="2">  1       -3 0.11476471E+00 0.27521514E+03</pdfrwt>
<totfact> 0.37858203E+02</totfact>
</mgrwt>
</event>
<event>
 5    0  0.3040647E+000  0.2326089E+03  0.7546771E-02  0.1124817E+00
          1   -1    0    0  502    0 -0.00000000000E+00  0.00000000000E+00  0.56425230898E+03  0.56425230898E+03  0.00000000000E+00 0.  1.
         21   -1    0    0  503  502  0.00000000000E+00 -0.00000000000E+00 -0.94444594292E+03  0.94444594292E+03  0.00000000000E+00 0. -1.
         25    1    1    2    0    0 -0.93423240044E+02 -0.17916523802E+03 -0.89525977899E+03  0.92625220981E+03  0.12500000000E+03 0.  0.
         21    1    1    2  503  501  0.23750965836E+02 -0.41185203977E+01 -0.67280090043E+01  0.25026719592E+02  0.00000000000E+00 0. -1.
          1    1    1    2  501    0  0.69672274208E+02  0.18328375842E+03  0.52179415406E+03  0.55741932251E+03  0.00000000000E+00 0.  1.
<mgrwt>
<rscale>  4 0.23260890E+03</rscale>
<asrwt>0</asrwt>
<pdfrwt beam="1">  1       21 0.14529937E+00 0.23260890E+03</pdfrwt>
<pdfrwt beam="2">  1        1 0.86808049E-01 0.23260890E+03</pdfrwt>
<totfact> 0.13368727E+02</totfact>
</mgrwt>
</event>
<event>
 5    0  0.3040647E+000  0.2812929E+03  0.7546771E-02  0.1094985E+00
          1   -1    0    0  502    0 -0.00000000000E+00  0.00000000000E+00  0.90388056101E+03  0.90388056101E+03  0.00000000000E+00 0. -1.
         21   -1    0    0  503  502  0.00000000000E+00 -0.00000000000E+00 -0.92424517761E+02  0.92424517761E+02  0.00000000000E+00 0.  1.
         25    1    1    2    0    0 -0.34194886895E+02 -0.23404218508E+03  0.30700170006E+03  0.40721011595E+03  0.12500000000E+03 0.  0.
         21    1    1    2  503  501 -0.29535075002E+02 -0.21154987554E+02  0.32278743242E+02  0.48598059828E+02  0.00000000000E+00 0. -1.
          1    1    1    2  501    0  0.63729961897E+02  0.25519717264E+03  0.47217559994E+03  0.54049690300E+03  0.00000000000E+00 0. -1.
<mgrwt>
<rscale>  4 0.28129285E+03</rscale>
<asrwt>0</asrwt>
<pdfrwt beam="1">  1       21 0.14219157E-01 0.28129285E+03</pdfrwt>
<pdfrwt beam="2">  1        1 0.13905854E+00 0.28129285E+03</pdfrwt>
<totfact> 0.89832095E+03</totfact>
</mgrwt>
</event>
<event>
 5    0  0.3040647E+000  0.2189003E+03  0.7546771E-02  0.1134706E+00
         -2   -1    0    0    0  501 -0.00000000000E+00  0.00000000000E+00  0.15046202647E+04  0.15046202647E+04  0.00000000000E+00 0.  1.
         21   -1    0    0  501  502  0.00000000000E+00 -0.00000000000E+00 -0.23916707419E+03  0.23916707419E+03  0.00000000000E+00 0.  1.
         25    1    1    2    0    0  0.25435832127E+03  0.76840183126E+02  0.27978492240E+03  0.40559483743E+03  0.12500000000E+03 0.  0.
         21    1    1    2  503  502 -0.82365777627E+02 -0.82393032547E+02 -0.14979340281E+03  0.18976510918E+03  0.00000000000E+00 0.  1.
         -2    1    1    2    0  503 -0.17199254364E+03  0.55528494209E+01  0.11354616709E+04  0.11484273923E+04  0.00000000000E+00 0.  1.
<mgrwt>
<rscale>  4 0.21890033E+03</rscale>
<asrwt>0</asrwt>
<pdfrwt beam="1">  1       21 0.36794935E-01 0.21890033E+03</pdfrwt>
<pdfrwt beam="2">  1       -2 0.23148004E+00 0.21890033E+03</pdfrwt>
<totfact> 0.54048755E+01</totfact>
</mgrwt>
</event>
<event>
 5    0  0.3040647E+000  0.2405849E+03  0.7546771E-02  0.1119404E+00
         21   -1    0    0  503  502  0.00000000000E+00  0.00000000000E+00  0.17507907137E+03  0.17507907137E+03  0.00000000000E+00 0. -1.
          2   -1    0    0  502    0 -0.00000000000E+00 -0.00000000000E+00 -0.39029879160E+04  0.39029879160E+04  0.00000000000E+00 0.  1.
         25    1    1    2    0    0  0.14192262750E+03  0.20332071391E+03  0.52178677191E+02  0.28254019051E+03  0.12500000000E+03 0.  0.
         21    1    1    2  503  501 -0.26571282778E+02 -0.34043129087E+02 -0.90692577309E+02  0.10044954597E+03  0.00000000000E+00 0. -1.
          2    1    1    2  501    0 -0.11535134472E+03 -0.16927758482E+03 -0.36893949446E+04  0.36950772509E+04  0.00000000000E+00 0.  1.
<mgrwt>
<rscale>  4 0.24058486E+03</rscale>
<asrwt>0</asrwt>
<pdfrwt beam="1">  1       21 0.26935244E-01 0.24058486E+03</pdfrwt>
<pdfrwt beam="2">  1        2 0.60045963E+00 0.24058486E+03</pdfrwt>
<totfact> 0.88528544E+01</totfact>
</mgrwt>
</event>
<event>
 5    0  0.3040647E+000  0.3653836E+03  0.7546771E-02  0.1057404E+00
         21   -1    0    0  503  502  0.00000000000E+00  0.00000000000E+00  0.59642441034E+03  0.59642441034E+03  0.00000000000E+00 0.  1.
          2   -1    0    0  502    0 -0.00000000000E+00 -0.00000000000E+00 -0.20590997333E+04  0.20590997333E+04  0.00000000000E+00 0.  1.
         25    1    1    2    0    0  0.11045054124E+03  0.31441961944E+03 -0.91292280753E+03  0.97985308678E+03  0.12500000000E+03 0.  0.
         21    1    1    2  503  501 -0.37478214555E+03 -0.50570115027E+02  0.46208199197E+03  0.59710866721E+03  0.00000000000E+00 0.  1.
          2    1    1    2  501    0  0.26433160431E+03 -0.26384950441E+03 -0.10118345074E+04  0.10785623896E+04  0.00000000000E+00 0.  1.
<mgrwt>
<rscale>  4 0.36299619E+03</rscale>
<asrwt>0</asrwt>
<pdfrwt beam="1">  1       21 0.91757602E-01 0.36538360E+03</pdfrwt>
<pdfrwt beam="2">  1        2 0.31678457E+00 0.36538360E+03</pdfrwt>
<totfact> 0.79394665E+01</totfact>
</mgrwt>
</event>
<event>
 5    0  0.3040647E+000  0.4219543E+03  0.7546771E-02  0.1037606E+00
          1   -1    0    0  502    0 -0.00000000000E+00  0.00000000000E+00  0.16647844104E+04  0.16647844104E+04  0.00000000000E+00 0. -1.
         21   -1    0    0  503  502  0.00000000000E+00 -0.00000000000E+00 -0.10847071899E+03  0.10847071899E+03  0.00000000000E+00 0. -1.
         25    1    1    2    0    0  0.38796108380E+03 -0.93176104589E+01  0.95770667430E+03  0.10408783283E+04  0.12500000000E+03 0.  0.
         21    1    1    2  503  501 -0.29446038479E+03  0.26287457449E+02  0.30928994453E+03  0.42785303366E+03  0.00000000000E+00 0. -1.
          1    1    1    2  501    0 -0.93500699010E+02 -0.16969846990E+02  0.28931707259E+03  0.30452376741E+03  0.00000000000E+00 0. -1.
<mgrwt>
<rscale>  4 0.41834670E+03</rscale>
<asrwt>0</asrwt>
<pdfrwt beam="1">  1       21 0.16687804E-01 0.42195428E+03</pdfrwt>
<pdfrwt beam="2">  1        1 0.25612066E+00 0.42195428E+03</pdfrwt>
<totfact> 0.18822010E+03</totfact>
</mgrwt>
</event>
<event>
 5    0  0.3040647E+000  0.2839977E+03  0.7546771E-02  0.1093525E+00
          1   -1    0    0  502    0 -0.00000000000E+00  0.00000000000E+00  0.11130127851E+04  0.11130127851E+04  0.00000000000E+00 0. -1.
         21   -1    0    0  503  502  0.00000000000E+00 -0.00000000000E+00 -0.13731354706E+03  0.13731354706E+03  0.00000000000E+00 0. -1.
         25    1    1    2    0    0 -0.13460372226E+03  0.28097952475E+03  0.51225509549E+03  0.61245239670E+03  0.12500000000E+03 0.  0.
         21    1    1    2  503  501  0.13231132810E+03 -0.19832918843E+03  0.89117337434E+02  0.25452436889E+03  0.00000000000E+00 0. -1.
          1    1    1    2  501    0  0.22923941600E+01 -0.82650336321E+02  0.37432680510E+03  0.38334956656E+03  0.00000000000E+00 0. -1.
<mgrwt>
<rscale>  4 0.28399766E+03</rscale>
<asrwt>0</asrwt>
<pdfrwt beam="1">  1       21 0.21125162E-01 0.28399766E+03</pdfrwt>
<pdfrwt beam="2">  1        1 0.17123273E+00 0.28399766E+03</pdfrwt>
<totfact> 0.29942333E+03</totfact>
</mgrwt>
</event>
<event>
 5    0  0.3040647E+000  0.2630085E+03  0.7546771E-02  0.1105349E+00
          1   -1    0    0  502    0 -0.00000000000E+00  0.00000000000E+00  0.12227419559E+04  0.12227419559E+04  0.00000000000E+00 0.  1.
         21   -1    0    0  503  502  0.00000000000E+00 -0.00000000000E+00 -0.13420004507E+03  0.13420004507E+03  0.00000000000E+00 0. -1.
         25    1    1    2    0    0  0.13399709922E+03 -0.17350163130E+03  0.45079907928E+03  0.51662641100E+03  0.12500000000E+03 0.  0.
         21    1    1    2  503  501  0.19302389863E+02 -0.93559753171E+01 -0.80585801785E+02  0.83391774042E+02  0.00000000000E+00 0. -1.
          1    1    1    2  501    0 -0.15329948908E+03  0.18285760662E+03  0.71832863331E+03  0.75692381591E+03  0.00000000000E+00 0.  1.
<mgrwt>
<rscale>  4 0.26300852E+03</rscale>
<asrwt>0</asrwt>
<pdfrwt beam="1">  1       21 0.20646162E-01 0.26300852E+03</pdfrwt>
<pdfrwt beam="2">  1        1 0.18811414E+00 0.26300852E+03</pdfrwt>
<totfact> 0.26334599E+03</totfact>
</mgrwt>
</event>
<event>
 5    0  0.3040647E+000  0.2678946E+03  0.7546771E-02  0.1102491E+00
          1   -1    0    0  502    0 -0.00000000000E+00  0.00000000000E+00  0.55437821860E+03  0.55437821860E+03  0.00000000000E+00 0. -1.
         21   -1    0    0  503  502  0.00000000000E+00 -0.00000000000E+00 -0.15080404553E+03  0.15080404553E+03  0.00000000000E+00 0. -1.
         25    1    1    2    0    0  0.21006636487E+03  0.94422914676E+02  0.71482911236E+02  0.27162174262E+03  0.12500000000E+03 0.  0.
         21    1    1    2  503  501  0.19025564534E+02 -0.22740959412E+02  0.88623913152E+01  0.30946168109E+02  0.00000000000E+00 0.  1.
          1    1    1    2  501    0 -0.22909192940E+03 -0.71681955265E+02  0.32322887052E+03  0.40261435340E+03  0.00000000000E+00 0. -1.
<mgrwt>
<rscale>  4 0.26789463E+03</rscale>
<asrwt>0</asrwt>
<pdfrwt beam="1">  1       21 0.23200623E-01 0.26789463E+03</pdfrwt>
<pdfrwt beam="2">  1        1 0.85288956E-01 0.26789463E+03</pdfrwt>
<totfact> 0.74519128E+03</totfact>
</mgrwt>
</event>
<event>
 5    0  0.3040647E+000  0.2427008E+03  0.7546771E-02  0.1118007E+00
         -4   -1    0    0    0  501 -0.00000000000E+00  0.00000000000E+00  0.49739808386E+02  0.49739808386E+02  0.00000000000E+00 0.  1.
         21   -1    0    0  501  502  0.00000000000E+00 -0.00000000000E+00 -0.27318067819E+04  0.27318067819E+04  0.00000000000E+00 0.  1.
         25    1    1    2    0    0  0.12930058897E+03  0.22156417358E+03 -0.66394371941E+03  0.72267253156E+03  0.12500000000E+03 0.  0.
         21    1    1    2  503  502 -0.41060382487E+02 -0.65616419689E+02 -0.16249915692E+04  0.16268340633E+04  0.00000000000E+00 0.  1.
         -4    1    1    2    0  503 -0.88240206479E+02 -0.15594775389E+03 -0.39313168499E+03  0.43203999551E+03  0.00000000000E+00 0.  1.
<mgrwt>
<rscale>  4 0.24270079E+03</rscale>
<asrwt>0</asrwt>
<pdfrwt beam="1">  1       21 0.42027803E+00 0.24270079E+03</pdfrwt>
<pdfrwt beam="2">  1       -4 0.76522770E-02 0.24270079E+03</pdfrwt>
<totfact> 0.30958580E+01</totfact>
</mgrwt>
</event>
<event>
 5    0  0.3040647E+000  0.2405690E+03  0.7546771E-02  0.1119414E+00
          2   -1    0    0  502    0 -0.00000000000E+00  0.00000000000E+00  0.20405489081E+04  0.20405489081E+04  0.00000000000E+00 0. -1.
         21   -1    0    0  503  502  0.00000000000E+00 -0.00000000000E+00 -0.33839837550E+02  0.33839837550E+02  0.00000000000E+00 0. -1.
         25    1    1    2    0    0 -0.22112618830E+03 -0.72682178593E+01  0.74842767556E+03  0.79039142435E+03  0.12500000000E+03 0.  0.
         21    1    1    2  503  501  0.21860130673E+02 -0.38957753074E+01  0.20472435302E+02  0.30202036115E+02  0.00000000000E+00 0.  1.
          2    1    1    2  501    0  0.19926605763E+03  0.11163993167E+02  0.12378089597E+04  0.12537952852E+04  0.00000000000E+00 0. -1.
<mgrwt>
<rscale>  4 0.24056899E+03</rscale>
<asrwt>0</asrwt>
<pdfrwt beam="1">  1       21 0.52061305E-02 0.24056899E+03</pdfrwt>
<pdfrwt beam="2">  1        2 0.31393050E+00 0.24056899E+03</pdfrwt>
<totfact> 0.22710119E+04</totfact>
</mgrwt>
</event>
<event>
 5    0  0.3040647E+000  0.3841050E+03  0.7546771E-02  0.1049427E+00
         -2   -1    0    0    0  501 -0.00000000000E+00  0.00000000000E+00  0.49898707048E+03  0.49898707048E+03  0.00000000000E+00 0.  1.
         21   -1    0    0  501  502  0.00000000000E+00 -0.00000000000E+00 -0.38951313175E+03  0.38951313175E+03  0.00000000000E+00 0.  1.
         25    1    1    2    0    0  0.24982060885E+03  0.28757425444E+03  0.21455967884E+02  0.40149053162E+03  0.12500000000E+03 0.  0.
         21    1    1    2  503  502 -0.27150629213E+01 -0.35221875721E+02 -0.86222696462E+02  0.93178889675E+02  0.00000000000E+00 0.  1.
         -2    1    1    2    0  503 -0.24710554593E+03 -0.25235237872E+03  0.17424066730E+03  0.39383078094E+03  0.00000000000E+00 0.  1.
<mgrwt>
<rscale>  4 0.38410501E+03</rscale>
<asrwt>0</asrwt>
<pdfrwt beam="1">  1       21 0.59925097E-01 0.38410501E+03</pdfrwt>
<pdfrwt beam="2">  1       -2 0.76767242E-01 0.38410501E+03</pdfrwt>
<totfact> 0.31056350E+02</totfact>
</mgrwt>
</event>
<event>
 5    0  0.3040647E+000  0.1991457E+03  0.7546771E-02  0.1150462E+00
         -1   -1    0    0    0  501 -0.00000000000E+00  0.00000000000E+00  0.53057721416E+03  0.53057721416E+03  0.00000000000E+00 0.  1.
         21   -1    0    0  501  502  0.00000000000E+00 -0.00000000000E+00 -0.34057056285E+03  0.34057056285E+03  0.00000000000E+00 0. -1.
         25    1    1    2    0    0  0.17090768689E+03  0.15452920415E+03  0.54011563567E+01  0.26218864366E+03  0.12500000000E+03 0.  0.
         21    1    1    2  503  502 -0.47357271759E+02 -0.74694686441E+02 -0.18832904955E+03  0.20806210196E+03  0.00000000000E+00 0. -1.
         -1    1    1    2    0  503 -0.12355041513E+03 -0.79834517712E+02  0.37293454450E+03  0.40089703139E+03  0.00000000000E+00 0.  1.
<mgrwt>
<rscale>  4 0.19914568E+03</rscale>
<asrwt>0</asrwt>
<pdfrwt beam="1">  1       21 0.52395471E-01 0.19914568E+03</pdfrwt>
<pdfrwt beam="2">  1       -1 0.81627263E-01 0.19914568E+03</pdfrwt>
<totfact> 0.50339995E+02</totfact>
</mgrwt>
</event>
<event>
 5    0  0.3040647E+000  0.2355990E+03  0.7546771E-02  0.1122760E+00
          2   -1    0    0  502    0 -0.00000000000E+00  0.00000000000E+00  0.15318873739E+04  0.15318873739E+04  0.00000000000E+00 0. -1.
         21   -1    0    0  503  502  0.00000000000E+00 -0.00000000000E+00 -0.16151739820E+03  0.16151739820E+03  0.00000000000E+00 0. -1.
         25    1    1    2    0    0 -0.25096683875E+03  0.68406379583E+02  0.27705456549E+02  0.28992478204E+03  0.12500000000E+03 0.  0.
         21    1    1    2  503  501  0.64031470944E+02 -0.82605166428E+01  0.21867903557E+02  0.68165024847E+02  0.00000000000E+00 0.  1.
          2    1    1    2  501    0  0.18693536781E+03 -0.60145862940E+02  0.13207966156E+04  0.13353149652E+04  0.00000000000E+00 0. -1.
<mgrwt>
<rscale>  4 0.23559899E+03</rscale>
<asrwt>0</asrwt>
<pdfrwt beam="1">  1       21 0.24848832E-01 0.23559899E+03</pdfrwt>
<pdfrwt beam="2">  1        2 0.23567497E+00 0.23559899E+03</pdfrwt>
<totfact> 0.25317547E+03</totfact>
</mgrwt>
</event>
<event>
 5    0  0.3040647E+000  0.2832163E+03  0.7546771E-02  0.1093945E+00
          2   -1    0    0  502    0 -0.00000000000E+00  0.00000000000E+00  0.93485212082E+03  0.93485212082E+03  0.00000000000E+00 0.  1.
         21   -1    0    0  503  502  0.00000000000E+00 -0.00000000000E+00 -0.11805230151E+03  0.11805230151E+03  0.00000000000E+00 0.  1.
         25    1    1    2    0    0  0.23209199286E+03 -0.12766432852E+03  0.17298482446E+03  0.34016705223E+03  0.12500000000E+03 0.  0.
         21    1    1    2  503  501 -0.22628842035E+03  0.73479585907E+02  0.42321925219E+03  0.48551028224E+03  0.00000000000E+00 0.  1.
          2    1    1    2  501    0 -0.58035725104E+01  0.54184742612E+02  0.22059574265E+03  0.22722708787E+03  0.00000000000E+00 0.  1.
<mgrwt>
<rscale>  4 0.28321628E+03</rscale>
<asrwt>0</asrwt>
<pdfrwt beam="1">  1       21 0.18161893E-01 0.28321628E+03</pdfrwt>
<pdfrwt beam="2">  1        2 0.14382340E+00 0.28321628E+03</pdfrwt>
<totfact> 0.98773424E+03</totfact>
</mgrwt>
</event>
<event>
 5    0  0.3040647E+000  0.2424107E+03  0.7546771E-02  0.1118197E+00
         21   -1    0    0  503  502  0.00000000000E+00  0.00000000000E+00  0.63237850810E+03  0.63237850810E+03  0.00000000000E+00 0.  1.
          2   -1    0    0  502    0 -0.00000000000E+00 -0.00000000000E+00 -0.20520649796E+04  0.20520649796E+04  0.00000000000E+00 0. -1.
         25    1    1    2    0    0 -0.30291716233E+03  0.79035181370E+02  0.50034614734E+03  0.60330476070E+03  0.12500000000E+03 0.  0.
         21    1    1    2  503  501  0.12019729417E+03  0.17670521550E+02  0.25929978124E+02  0.12422560374E+03  0.00000000000E+00 0.  1.
          2    1    1    2  501    0  0.18271986815E+03 -0.96705702920E+02 -0.19459625969E+04  0.19569131232E+04  0.00000000000E+00 0. -1.
<mgrwt>
<rscale>  4 0.24241067E+03</rscale>
<asrwt>0</asrwt>
<pdfrwt beam="1">  1       21 0.97289003E-01 0.24241067E+03</pdfrwt>
<pdfrwt beam="2">  1        2 0.31570230E+00 0.24241067E+03</pdfrwt>
<totfact> 0.75648026E+01</totfact>
</mgrwt>
</event>
<event>
 5    0  0.3040647E+000  0.8608870E+03  0.7546771E-02  0.9477065E-01
         -3   -1    0    0    0  501 -0.00000000000E+00  0.00000000000E+00  0.27485512429E+04  0.27485512429E+04  0.00000000000E+00 0. -1.
         21   -1    0    0  501  502  0.00000000000E+00 -0.00000000000E+00 -0.28592972089E+03  0.28592972089E+03  0.00000000000E+00 0. -1.
         25    1    1    2    0    0  0.78891378544E+03  0.31106003069E+03  0.85405472909E+03  0.12100321417E+04  0.12500000000E+03 0.  0.
         21    1    1    2  503  502 -0.10303362347E+02 -0.31299213045E+02  0.49615356022E+02  0.59560755251E+02  0.00000000000E+00 0.  1.
         -3    1    1    2    0  503 -0.77861042309E+03 -0.27976081764E+03  0.15589514368E+04  0.17648880668E+04  0.00000000000E+00 0. -1.
<mgrwt>
<rscale>  4 0.85996030E+03</rscale>
<asrwt>0</asrwt>
<pdfrwt beam="1">  1       21 0.43989190E-01 0.86088697E+03</pdfrwt>
<pdfrwt beam="2">  1       -3 0.42285402E+00 0.86088697E+03</pdfrwt>
<totfact> 0.18695289E+00</totfact>
</mgrwt>
</event>
<event>
 5    0  0.3040647E+000  0.2890491E+03  0.7546771E-02  0.1090847E+00
         21   -1    0    0  503  502  0.00000000000E+00  0.00000000000E+00  0.82793972141E+03  0.82793972141E+03  0.00000000000E+00 0.  1.
          1   -1    0    0  502    0 -0.00000000000E+00 -0.00000000000E+00 -0.17422587139E+04  0.17422587139E+04  0.00000000000E+00 0. -1.
         25    1    1    2    0    0 -0.38556663458E+01  0.22495409245E+03 -0.11412799049E+02  0.25763241615E+03  0.12500000000E+03 0.  0.
         21    1    1    2  503  501  0.29926861304E+02  0.37637817753E+02  0.69316337004E+03  0.69482924515E+03  0.00000000000E+00 0.  1.
          1    1    1    2  501    0 -0.26071194958E+02 -0.26259191020E+03 -0.15960695634E+04  0.16177367740E+04  0.00000000000E+00 0. -1.
<mgrwt>
<rscale>  4 0.28904906E+03</rscale>
<asrwt>0</asrwt>
<pdfrwt beam="1">  1       21 0.12737534E+00 0.28904906E+03</pdfrwt>
<pdfrwt beam="2">  1        1 0.26803980E+00 0.28904906E+03</pdfrwt>
<totfact> 0.23520327E+01</totfact>
</mgrwt>
</event>
<event>
 5    0  0.3040647E+000  0.2306003E+03  0.7546771E-02  0.1126218E+00
         21   -1    0    0  503  502  0.00000000000E+00  0.00000000000E+00  0.10401621228E+03  0.10401621228E+03  0.00000000000E+00 0. -1.
          2   -1    0    0  502    0 -0.00000000000E+00 -0.00000000000E+00 -0.26371830415E+04  0.26371830415E+04  0.00000000000E+00 0.  1.
         25    1    1    2    0    0  0.30266845597E+03 -0.37082159955E+02 -0.30969022429E+03  0.45223480168E+03  0.12500000000E+03 0.  0.
         21    1    1    2  503  501 -0.11589642441E+03  0.21963236722E+02 -0.92861765534E+02  0.15012552234E+03  0.00000000000E+00 0. -1.
          2    1    1    2  501    0 -0.18677203156E+03  0.15118923233E+02 -0.21306148394E+04  0.21388389298E+04  0.00000000000E+00 0.  1.
<mgrwt>
<rscale>  4 0.23060032E+03</rscale>
<asrwt>0</asrwt>
<pdfrwt beam="1">  1       21 0.16002496E-01 0.23060032E+03</pdfrwt>
<pdfrwt beam="2">  1        2 0.40572041E+00 0.23060032E+03</pdfrwt>
<totfact> 0.14999599E+03</totfact>
</mgrwt>
</event>
<event>
 5    0  0.3040647E+000  0.2291842E+03  0.7546771E-02  0.1127215E+00
          2   -1    0    0  502    0 -0.00000000000E+00  0.00000000000E+00  0.23515022848E+04  0.23515022848E+04  0.00000000000E+00 0. -1.
         21   -1    0    0  503  502  0.00000000000E+00 -0.00000000000E+00 -0.57838120254E+02  0.57838120254E+02  0.00000000000E+00 0. -1.
         25    1    1    2    0    0  0.46581873870E+02  0.19890762327E+03  0.29305153171E+03  0.37846837887E+03  0.12500000000E+03 0.  0.
         21    1    1    2  503  501  0.13682137947E+02 -0.17792690919E+02  0.13152973415E+01  0.22483566355E+02  0.00000000000E+00 0. -1.
          2    1    1    2  501    0 -0.60264011817E+02 -0.18111493235E+03  0.19992973355E+04  0.20083884598E+04  0.00000000000E+00 0. -1.
<mgrwt>
<rscale>  4 0.22918415E+03</rscale>
<asrwt>0</asrwt>
<pdfrwt beam="1">  1       21 0.88981742E-02 0.22918415E+03</pdfrwt>
<pdfrwt beam="2">  1        2 0.36176951E+00 0.22918415E+03</pdfrwt>
<totfact> 0.61673892E+03</totfact>
</mgrwt>
</event>
<event>
 5    0  0.3040647E+000  0.2001779E+03  0.7546771E-02  0.1149589E+00
         -1   -1    0    0    0  501 -0.00000000000E+00  0.00000000000E+00  0.63638919025E+03  0.63638919025E+03  0.00000000000E+00 0.  1.
         21   -1    0    0  501  502  0.00000000000E+00 -0.00000000000E+00 -0.13263562237E+03  0.13263562237E+03  0.00000000000E+00 0. -1.
         25    1    1    2    0    0  0.24410480668E+03 -0.42553827210E+02  0.18764893156E+03  0.33501508380E+03  0.12500000000E+03 0.  0.
         21    1    1    2  503  502 -0.12953762696E+03 -0.34035510214E+02  0.68016708535E+02  0.15021546323E+03  0.00000000000E+00 0. -1.
         -1    1    1    2    0  503 -0.11456717972E+03  0.76589337424E+02  0.24808792778E+03  0.28379426559E+03  0.00000000000E+00 0.  1.
<mgrwt>
<rscale>  4 0.20017785E+03</rscale>
<asrwt>0</asrwt>
<pdfrwt beam="1">  1       21 0.20405481E-01 0.20017785E+03</pdfrwt>
<pdfrwt beam="2">  1       -1 0.97906027E-01 0.20017785E+03</pdfrwt>
<totfact> 0.21988634E+03</totfact>
</mgrwt>
</event>
<event>
 5    0  0.3040647E+000  0.3803988E+03  0.7546771E-02  0.1050786E+00
          2   -1    0    0  502    0 -0.00000000000E+00  0.00000000000E+00  0.99025571432E+03  0.99025571432E+03  0.00000000000E+00 0. -1.
         21   -1    0    0  503  502  0.00000000000E+00 -0.00000000000E+00 -0.27254791134E+03  0.27254791134E+03  0.00000000000E+00 0. -1.
         25    1    1    2    0    0 -0.38597476007E+03  0.53474518087E+02  0.58262788113E+03  0.71198053862E+03  0.12500000000E+03 0.  0.
         21    1    1    2  503  501  0.34133715922E+03 -0.88398567192E+02 -0.51032779217E+02  0.35627195722E+03  0.00000000000E+00 0. -1.
          2    1    1    2  501    0  0.44637600853E+02  0.34924049105E+02  0.18611270107E+03  0.19455112982E+03  0.00000000000E+00 0. -1.
<mgrwt>
<rscale>  4 0.38039882E+03</rscale>
<asrwt>0</asrwt>
<pdfrwt beam="1">  1       21 0.41930448E-01 0.38039882E+03</pdfrwt>
<pdfrwt beam="2">  1        2 0.15234703E+00 0.38039882E+03</pdfrwt>
<totfact> 0.17281433E+03</totfact>
</mgrwt>
</event>
<event>
 5    0  0.3040647E+000  0.2760648E+03  0.7546771E-02  0.1097858E+00
         21   -1    0    0  503  502  0.00000000000E+00  0.00000000000E+00  0.10366752738E+03  0.10366752738E+03  0.00000000000E+00 0. -1.
          2   -1    0    0  502    0 -0.00000000000E+00 -0.00000000000E+00 -0.10253574228E+04  0.10253574228E+04  0.00000000000E+00 0. -1.
         25    1    1    2    0    0  0.25817532666E+03  0.10149832629E+03 -0.37367011482E+03  0.48188252121E+03  0.12500000000E+03 0.  0.
         21    1    1    2  503  501 -0.35378641101E+02 -0.34077888522E+02  0.27546722510E+01  0.49198973073E+02  0.00000000000E+00 0. -1.
          2    1    1    2  501    0 -0.22279668556E+03 -0.67420437770E+02 -0.55077445284E+03  0.59794345588E+03  0.00000000000E+00 0. -1.
<mgrwt>
<rscale>  4 0.27606482E+03</rscale>
<asrwt>0</asrwt>
<pdfrwt beam="1">  1       21 0.15948851E-01 0.27606482E+03</pdfrwt>
<pdfrwt beam="2">  1        2 0.15774729E+00 0.27606482E+03</pdfrwt>
<totfact> 0.11060332E+04</totfact>
</mgrwt>
</event>
<event>
 5    0  0.3040647E+000  0.4640576E+03  0.7546771E-02  0.1023611E+00
         21   -1    0    0  503  502  0.00000000000E+00  0.00000000000E+00  0.42076447281E+03  0.42076447281E+03  0.00000000000E+00 0.  1.
          2   -1    0    0  502    0 -0.00000000000E+00 -0.00000000000E+00 -0.12777898231E+04  0.12777898231E+04  0.00000000000E+00 0.  1.
         25    1    1    2    0    0  0.35889492225E+02  0.42349854922E+03  0.13407266558E+03  0.46286019109E+03  0.12500000000E+03 0.  0.
         21    1    1    2  503  501 -0.61558287795E+02  0.14864302012E+03 -0.16469871326E+03  0.23023865092E+03  0.00000000000E+00 0.  1.
          2    1    1    2  501    0  0.25668795571E+02 -0.57214156934E+03 -0.82639930261E+03  0.10054554539E+04  0.00000000000E+00 0.  1.
<mgrwt>
<rscale>  4 0.46405760E+03</rscale>
<asrwt>0</asrwt>
<pdfrwt beam="1">  1       21 0.64732998E-01 0.46405760E+03</pdfrwt>
<pdfrwt beam="2">  1        2 0.19658304E+00 0.46405760E+03</pdfrwt>
<totfact> 0.44971740E+02</totfact>
</mgrwt>
</event>
<event>
 5    0  0.3040647E+000  0.2678842E+03  0.7546771E-02  0.1102497E+00
          2   -1    0    0  502    0 -0.00000000000E+00  0.00000000000E+00  0.71233547237E+03  0.71233547237E+03  0.00000000000E+00 0.  1.
         21   -1    0    0  503  502  0.00000000000E+00 -0.00000000000E+00 -0.30019362582E+03  0.30019362582E+03  0.00000000000E+00 0.  1.
         25    1    1    2    0    0 -0.29853880610E+03  0.85888441521E+01  0.16977316883E+03  0.36557778358E+03  0.12500000000E+03 0.  0.
         21    1    1    2  503  501  0.81668315596E+02  0.28088235592E+02 -0.16373128253E+03  0.18511238648E+03  0.00000000000E+00 0.  1.
          2    1    1    2  501    0  0.21687049050E+03 -0.36677079744E+02  0.40609996024E+03  0.46183892813E+03  0.00000000000E+00 0.  1.
<mgrwt>
<rscale>  4 0.26788424E+03</rscale>
<asrwt>0</asrwt>
<pdfrwt beam="1">  1       21 0.46183635E-01 0.26788424E+03</pdfrwt>
<pdfrwt beam="2">  1        2 0.10959007E+00 0.26788424E+03</pdfrwt>
<totfact> 0.22578499E+03</totfact>
</mgrwt>
</event>
<event>
 5    0  0.3040647E+000  0.4546134E+03  0.7546771E-02  0.1026355E+00
         -1   -1    0    0    0  501 -0.00000000000E+00  0.00000000000E+00  0.76788957258E+03  0.76788957258E+03  0.00000000000E+00 0. -1.
         21   -1    0    0  501  502  0.00000000000E+00 -0.00000000000E+00 -0.61657824618E+03  0.61657824618E+03  0.00000000000E+00 0. -1.
         25    1    1    2    0    0 -0.22292154673E+03 -0.42327879713E+03 -0.36069636030E+03  0.61203416607E+03  0.12500000000E+03 0.  0.
         21    1    1    2  503  502  0.22549067951E+02  0.41848302517E+02 -0.46868333689E+02  0.66756135237E+02  0.00000000000E+00 0.  1.
         -1    1    1    2    0  503  0.20037247878E+03  0.38143049462E+03  0.55887602039E+03  0.70567751745E+03  0.00000000000E+00 0. -1.
<mgrwt>
<rscale>  4 0.45461336E+03</rscale>
<asrwt>0</asrwt>
<pdfrwt beam="1">  1       21 0.94858192E-01 0.45461336E+03</pdfrwt>
<pdfrwt beam="2">  1       -1 0.11813686E+00 0.45461336E+03</pdfrwt>
<totfact> 0.52872267E+01</totfact>
</mgrwt>
</event>
<event>
 5    0  0.3040647E+000  0.2703377E+03  0.7546771E-02  0.1101086E+00
          2   -1    0    0  502    0 -0.00000000000E+00  0.00000000000E+00  0.12879827004E+04  0.12879827004E+04  0.00000000000E+00 0. -1.
         21   -1    0    0  503  502  0.00000000000E+00 -0.00000000000E+00 -0.10483522282E+03  0.10483522282E+03  0.00000000000E+00 0. -1.
         25    1    1    2    0    0  0.41530446819E+02 -0.24468448111E+03  0.13227865104E+03  0.30776275739E+03  0.12500000000E+03 0.  0.
         21    1    1    2  503  501 -0.39517280224E+02  0.20914557505E+03  0.68124744585E+03  0.71372373470E+03  0.00000000000E+00 0. -1.
          2    1    1    2  501    0 -0.20131665959E+01  0.35538906067E+02  0.36962138073E+03  0.37133143117E+03  0.00000000000E+00 0. -1.
<mgrwt>
<rscale>  4 0.27033770E+03</rscale>
<asrwt>0</asrwt>
<pdfrwt beam="1">  1       21 0.16128497E-01 0.27033770E+03</pdfrwt>
<pdfrwt beam="2">  1        2 0.19815117E+00 0.27033770E+03</pdfrwt>
<totfact> 0.76426199E+03</totfact>
</mgrwt>
</event>
<event>
 5    0  0.3040647E+000  0.2788371E+03  0.7546771E-02  0.1096326E+00
         21   -1    0    0  503  502  0.00000000000E+00  0.00000000000E+00  0.18827173851E+03  0.18827173851E+03  0.00000000000E+00 0.  1.
          2   -1    0    0  502    0 -0.00000000000E+00 -0.00000000000E+00 -0.52335823463E+03  0.52335823463E+03  0.00000000000E+00 0.  1.
         25    1    1    2    0    0 -0.13187504896E+03  0.22569334640E+03 -0.32542137559E+02  0.29156904133E+03  0.12500000000E+03 0.  0.
         21    1    1    2  503  501  0.56547782211E+02 -0.62429625229E+01 -0.83070174722E+02  0.10068406121E+03  0.00000000000E+00 0.  1.
          2    1    1    2  501    0  0.75327266752E+02 -0.21945038387E+03 -0.21947418384E+03  0.31937687059E+03  0.00000000000E+00 0.  1.
<mgrwt>
<rscale>  4 0.27883708E+03</rscale>
<asrwt>0</asrwt>
<pdfrwt beam="1">  1       21 0.28964883E-01 0.27883708E+03</pdfrwt>
<pdfrwt beam="2">  1        2 0.80516651E-01 0.27883708E+03</pdfrwt>
<totfact> 0.82808834E+03</totfact>
</mgrwt>
</event>
<event>
 5    0  0.3040647E+000  0.2539079E+03  0.7546771E-02  0.1110860E+00
         21   -1    0    0  501  502  0.00000000000E+00  0.00000000000E+00  0.91343710051E+02  0.91343710051E+02  0.00000000000E+00 0. -1.
         -2   -1    0    0    0  501 -0.00000000000E+00 -0.00000000000E+00 -0.65470131957E+03  0.65470131957E+03  0.00000000000E+00 0. -1.
         25    1    1    2    0    0  0.10916359758E+03 -0.19216532086E+03 -0.33493595862E+03  0.42029905776E+03  0.12500000000E+03 0.  0.
         21    1    1    2  503  502 -0.22940880994E+02  0.27452365900E+02 -0.67085871280E+01  0.36399471913E+02  0.00000000000E+00 0. -1.
         -2    1    1    2    0  503 -0.86222716584E+02  0.16471295496E+03 -0.22171306377E+03  0.28934649995E+03  0.00000000000E+00 0. -1.
<mgrwt>
<rscale>  4 0.25390786E+03</rscale>
<asrwt>0</asrwt>
<pdfrwt beam="1">  1       21 0.14052879E-01 0.25390786E+03</pdfrwt>
<pdfrwt beam="2">  1       -2 0.10072328E+00 0.25390786E+03</pdfrwt>
<totfact> 0.30283946E+03</totfact>
</mgrwt>
</event>
<event>
 5    0  0.3040647E+000  0.3628857E+03  0.7546771E-02  0.1057447E+00
         -3   -1    0    0    0  501 -0.00000000000E+00  0.00000000000E+00  0.45521648884E+03  0.45521648884E+03  0.00000000000E+00 0. -1.
         21   -1    0    0  501  502  0.00000000000E+00 -0.00000000000E+00 -0.39842756621E+03  0.39842756621E+03  0.00000000000E+00 0.  1.
         25    1    1    2    0    0 -0.86777164645E+02  0.32112199336E+03 -0.17626422563E+03  0.39666571336E+03  0.12500000000E+03 0.  0.
         21    1    1    2  503  502 -0.28177338780E+02  0.24312179790E+01 -0.16280808381E+02  0.32633387246E+02  0.00000000000E+00 0. -1.
         -3    1    1    2    0  503  0.11495450342E+03 -0.32355321134E+03  0.24933395664E+03  0.42434495444E+03  0.00000000000E+00 0. -1.
<mgrwt>
<rscale>  4 0.36288572E+03</rscale>
<asrwt>0</asrwt>
<pdfrwt beam="1">  1       21 0.61296549E-01 0.36288572E+03</pdfrwt>
<pdfrwt beam="2">  1       -3 0.70033306E-01 0.36288572E+03</pdfrwt>
<totfact> 0.23418585E+02</totfact>
</mgrwt>
</event>
<event>
 5    0  0.3040647E+000  0.2412581E+03  0.7546771E-02  0.1118958E+00
         21   -1    0    0  503  502  0.00000000000E+00  0.00000000000E+00  0.50776662495E+02  0.50776662495E+02  0.00000000000E+00 0.  1.
          1   -1    0    0  502    0 -0.00000000000E+00 -0.00000000000E+00 -0.28350583605E+04  0.28350583605E+04  0.00000000000E+00 0.  1.
         25    1    1    2    0    0 -0.28535463248E+03  0.26236196584E+02 -0.86035382724E+03  0.91539571352E+03  0.12500000000E+03 0.  0.
         21    1    1    2  503  501  0.93580674104E+02 -0.25837851390E+02 -0.11128377669E+03  0.14767875976E+03  0.00000000000E+00 0. -1.
          1    1    1    2  501    0  0.19177395838E+03 -0.39834519409E+00 -0.18126440941E+04  0.18227605497E+04  0.00000000000E+00 0.  1.
<mgrwt>
<rscale>  4 0.24125812E+03</rscale>
<asrwt>0</asrwt>
<pdfrwt beam="1">  1       21 0.78117913E-02 0.24125812E+03</pdfrwt>
<pdfrwt beam="2">  1        1 0.43616299E+00 0.24125812E+03</pdfrwt>
<totfact> 0.13258005E+03</totfact>
</mgrwt>
</event>
<event>
 5    0  0.3040647E+000  0.3599519E+03  0.7546771E-02  0.1058603E+00
         21   -1    0    0  503  502  0.00000000000E+00  0.00000000000E+00  0.13863445864E+04  0.13863445864E+04  0.00000000000E+00 0. -1.
          2   -1    0    0  502    0 -0.00000000000E+00 -0.00000000000E+00 -0.16020542142E+03  0.16020542142E+03  0.00000000000E+00 0.  1.
         25    1    1    2    0    0  0.19790610618E+03 -0.17269352160E+03  0.92377047634E+03  0.96848684669E+03  0.12500000000E+03 0.  0.
         21    1    1    2  503  501  0.71361898178E+02 -0.62763844698E+02  0.17357270980E+03  0.19788710494E+03  0.00000000000E+00 0.  1.
          2    1    1    2  501    0 -0.26926800436E+03  0.23545736630E+03  0.12879597882E+03  0.38017605616E+03  0.00000000000E+00 0.  1.
<mgrwt>
<rscale>  4 0.35995194E+03</rscale>
<asrwt>0</asrwt>
<pdfrwt beam="1">  1       21 0.21328377E+00 0.35995194E+03</pdfrwt>
<pdfrwt beam="2">  1        2 0.24646989E-01 0.35995194E+03</pdfrwt>
<totfact> 0.26871316E+02</totfact>
</mgrwt>
</event>
<event>
 5    0  0.3040647E+000  0.4291301E+03  0.7546771E-02  0.1034135E+00
          1   -1    0    0  502    0 -0.00000000000E+00  0.00000000000E+00  0.15604561276E+04  0.15604561276E+04  0.00000000000E+00 0. -1.
         21   -1    0    0  503  502  0.00000000000E+00 -0.00000000000E+00 -0.11551677229E+03  0.11551677229E+03  0.00000000000E+00 0.  1.
         25    1    1    2    0    0  0.13031128826E+03  0.38928985674E+03  0.70677762046E+03  0.82685381368E+03  0.12500000000E+03 0.  0.
         21    1    1    2  503  501 -0.81651741134E+01 -0.19286636201E+02  0.98845333380E+01  0.23159196954E+02  0.00000000000E+00 0.  1.
          1    1    1    2  501    0 -0.12214611415E+03 -0.37000322054E+03  0.72827720150E+03  0.82595988924E+03  0.00000000000E+00 0. -1.
<mgrwt>
<rscale>  4 0.42913008E+03</rscale>
<asrwt>0</asrwt>
<pdfrwt beam="1">  1       21 0.17771812E-01 0.42913008E+03</pdfrwt>
<pdfrwt beam="2">  1        1 0.24007016E+00 0.42913008E+03</pdfrwt>
<totfact> 0.19596392E+03</totfact>
</mgrwt>
</event>
<event>
 5    0  0.3040647E+000  0.2788237E+03  0.7546771E-02  0.1096333E+00
          2   -1    0    0  502    0 -0.00000000000E+00  0.00000000000E+00  0.11061695397E+03  0.11061695397E+03  0.00000000000E+00 0. -1.
         21   -1    0    0  503  502  0.00000000000E+00 -0.00000000000E+00 -0.10314724326E+04  0.10314724326E+04  0.00000000000E+00 0. -1.
         25    1    1    2    0    0  0.22154131941E+03 -0.99145276635E+02 -0.46936056115E+03  0.54298681241E+03  0.12500000000E+03 0.  0.
         21    1    1    2  503  501  0.37732835922E+02  0.93593511358E+02 -0.25343564986E+03  0.27278772130E+03  0.00000000000E+00 0. -1.
          2    1    1    2  501    0 -0.25927415533E+03  0.55517652776E+01 -0.19805926766E+03  0.32631485290E+03  0.00000000000E+00 0. -1.
<mgrwt>
<rscale>  4 0.27882373E+03</rscale>
<asrwt>0</asrwt>
<pdfrwt beam="1">  1       21 0.15868807E+00 0.27882373E+03</pdfrwt>
<pdfrwt beam="2">  1        2 0.17017993E-01 0.27882373E+03</pdfrwt>
<totfact> 0.10101138E+03</totfact>
</mgrwt>
</event>
<event>
 5    0  0.3040647E+000  0.2232245E+03  0.7546771E-02  0.1131502E+00
         21   -1    0    0  503  502  0.00000000000E+00  0.00000000000E+00  0.99692763444E+02  0.99692763444E+02  0.00000000000E+00 0. -1.
          2   -1    0    0  502    0 -0.00000000000E+00 -0.00000000000E+00 -0.11073835943E+04  0.11073835943E+04  0.00000000000E+00 0.  1.
         25    1    1    2    0    0 -0.20071703350E+03 -0.15797093018E+02 -0.10328825335E+03  0.25851564550E+03  0.12500000000E+03 0.  0.
         21    1    1    2  503  501  0.17748318666E+02  0.24109305161E+02 -0.45791763667E+01  0.30285809665E+02  0.00000000000E+00 0. -1.
          2    1    1    2  501    0  0.18296871484E+03 -0.83122121434E+01 -0.89982340112E+03  0.91827490257E+03  0.00000000000E+00 0.  1.
<mgrwt>
<rscale>  4 0.22322450E+03</rscale>
<asrwt>0</asrwt>
<pdfrwt beam="1">  1       21 0.15337349E-01 0.22322450E+03</pdfrwt>
<pdfrwt beam="2">  1        2 0.17036670E+00 0.22322450E+03</pdfrwt>
<totfact> 0.10763398E+04</totfact>
</mgrwt>
</event>
<event>
 5    0  0.3040647E+000  0.4042593E+03  0.7546771E-02  0.1042315E+00
         21   -1    0    0  503  502  0.00000000000E+00  0.00000000000E+00  0.16869963703E+03  0.16869963703E+03  0.00000000000E+00 0.  1.
          2   -1    0    0  502    0 -0.00000000000E+00 -0.00000000000E+00 -0.12745250784E+04  0.12745250784E+04  0.00000000000E+00 0. -1.
         25    1    1    2    0    0 -0.25424618068E+03 -0.32391957081E+03 -0.36005424766E+03  0.56109631081E+03  0.12500000000E+03 0.  0.
         21    1    1    2  503  501  0.10888291255E+03 -0.22389226000E+01 -0.23390452356E+03  0.25801516925E+03  0.00000000000E+00 0.  1.
          2    1    1    2  501    0  0.14536326812E+03  0.32615849341E+03 -0.51186667015E+03  0.62411323536E+03  0.00000000000E+00 0. -1.
<mgrwt>
<rscale>  4 0.40425930E+03</rscale>
<asrwt>0</asrwt>
<pdfrwt beam="1">  1       21 0.25953789E-01 0.40425930E+03</pdfrwt>
<pdfrwt beam="2">  1        2 0.19608079E+00 0.40425930E+03</pdfrwt>
<totfact> 0.30486757E+03</totfact>
</mgrwt>
</event>
<event>
 5    0  0.3040647E+000  0.2606309E+03  0.7546771E-02  0.1106765E+00
         21   -1    0    0  501  502  0.00000000000E+00  0.00000000000E+00  0.13139643050E+03  0.13139643050E+03  0.00000000000E+00 0.  1.
         -2   -1    0    0    0  501 -0.00000000000E+00 -0.00000000000E+00 -0.64955931455E+03  0.64955931455E+03  0.00000000000E+00 0.  1.
         25    1    1    2    0    0 -0.21161287698E+03  0.67485832144E+02 -0.14471568732E+03  0.29309039118E+03  0.12500000000E+03 0.  0.
         21    1    1    2  503  502  0.12971218872E+02  0.56203455277E+02 -0.14662954138E+02  0.59515402445E+02  0.00000000000E+00 0. -1.
         -2    1    1    2    0  503  0.19864165811E+03 -0.12368928742E+03 -0.35878424258E+03  0.42834995143E+03  0.00000000000E+00 0.  1.
<mgrwt>
<rscale>  4 0.26063092E+03</rscale>
<asrwt>0</asrwt>
<pdfrwt beam="1">  1       21 0.20214835E-01 0.26063092E+03</pdfrwt>
<pdfrwt beam="2">  1       -2 0.99932206E-01 0.26063092E+03</pdfrwt>
<totfact> 0.15715244E+03</totfact>
</mgrwt>
</event>
<event>
 5    0  0.3040647E+000  0.2200193E+03  0.7546771E-02  0.1133869E+00
          3   -1    0    0  502    0 -0.00000000000E+00  0.00000000000E+00  0.16410854415E+03  0.16410854415E+03  0.00000000000E+00 0. -1.
         21   -1    0    0  503  502  0.00000000000E+00 -0.00000000000E+00 -0.33288829448E+04  0.33288829448E+04  0.00000000000E+00 0. -1.
         25    1    1    2    0    0  0.38540457771E+02 -0.21043634617E+03 -0.26918913967E+03  0.36586420376E+03  0.12500000000E+03 0.  0.
         21    1    1    2  503  501  0.51543884901E+01  0.41651164590E+02 -0.29454800963E+04  0.29457790795E+04  0.00000000000E+00 0. -1.
          3    1    1    2  501    0 -0.43694846261E+02  0.16878518158E+03  0.49894835372E+02  0.18134820569E+03  0.00000000000E+00 0. -1.
<mgrwt>
<rscale>  4 0.22001934E+03</rscale>
<asrwt>0</asrwt>
<pdfrwt beam="1">  1       21 0.51213583E+00 0.22001934E+03</pdfrwt>
<pdfrwt beam="2">  1        3 0.25247469E-01 0.22001934E+03</pdfrwt>
<totfact> 0.10849776E+00</totfact>
</mgrwt>
</event>
<event>
 5    0  0.3040647E+000  0.2343987E+03  0.7546771E-02  0.1123581E+00
         21   -1    0    0  503  502  0.00000000000E+00  0.00000000000E+00  0.11847964029E+03  0.11847964029E+03  0.00000000000E+00 0.  1.
          2   -1    0    0  502    0 -0.00000000000E+00 -0.00000000000E+00 -0.52574626399E+03  0.52574626399E+03  0.00000000000E+00 0. -1.
         25    1    1    2    0    0 -0.15106416142E+03 -0.13667134513E+03 -0.25360149034E+03  0.34847977466E+03  0.12500000000E+03 0.  0.
         21    1    1    2  503  501 -0.25228471115E+02  0.50520324079E+02 -0.33575346753E+02  0.65696901064E+02  0.00000000000E+00 0. -1.
          2    1    1    2  501    0  0.17629263253E+03  0.86151021055E+02 -0.12008978661E+03  0.23004922856E+03  0.00000000000E+00 0. -1.
<mgrwt>
<rscale>  4 0.23439874E+03</rscale>
<asrwt>0</asrwt>
<pdfrwt beam="1">  1       21 0.18227636E-01 0.23439874E+03</pdfrwt>
<pdfrwt beam="2">  1        2 0.80884043E-01 0.23439874E+03</pdfrwt>
<totfact> 0.20082241E+04</totfact>
</mgrwt>
</event>
<event>
 5    0  0.3040647E+000  0.2580145E+03  0.7546771E-02  0.1108342E+00
         21   -1    0    0  503  502  0.00000000000E+00  0.00000000000E+00  0.13254090861E+03  0.13254090861E+03  0.00000000000E+00 0. -1.
          2   -1    0    0  502    0 -0.00000000000E+00 -0.00000000000E+00 -0.71343162319E+03  0.71343162319E+03  0.00000000000E+00 0. -1.
         25    1    1    2    0    0  0.14963853850E+03 -0.18801392612E+03 -0.38466485577E+03  0.47046039141E+03  0.12500000000E+03 0.  0.
         21    1    1    2  503  501  0.10200352918E+02  0.46772154526E+02  0.36220421677E+02  0.60029997377E+02  0.00000000000E+00 0.  1.
          2    1    1    2  501    0 -0.15983889142E+03  0.14124177159E+03 -0.23244628049E+03  0.31548214302E+03  0.00000000000E+00 0. -1.
<mgrwt>
<rscale>  4 0.25801451E+03</rscale>
<asrwt>0</asrwt>
<pdfrwt beam="1">  1       21 0.20390909E-01 0.25801451E+03</pdfrwt>
<pdfrwt beam="2">  1        2 0.10975871E+00 0.25801451E+03</pdfrwt>
<totfact> 0.11333320E+04</totfact>
</mgrwt>
</event>
<event>
 5    0  0.3040647E+000  0.3442188E+03  0.7546771E-02  0.1065013E+00
          2   -1    0    0  502    0 -0.00000000000E+00  0.00000000000E+00  0.12684130677E+04  0.12684130677E+04  0.00000000000E+00 0. -1.
         21   -1    0    0  503  502  0.00000000000E+00 -0.00000000000E+00 -0.20270919101E+03  0.20270919101E+03  0.00000000000E+00 0. -1.
         25    1    1    2    0    0 -0.86082878452E+02  0.30244890319E+03  0.10712628638E+04  0.11234387942E+04  0.12500000000E+03 0.  0.
         21    1    1    2  503  501  0.10824824395E+03 -0.30290998915E+03 -0.18158883583E+02  0.32218300529E+03  0.00000000000E+00 0. -1.
          2    1    1    2  501    0 -0.22165365497E+02  0.46108595672E+00  0.12599896454E+02  0.25500459182E+02  0.00000000000E+00 0. -1.
<mgrwt>
<rscale>  4 0.34421877E+03</rscale>
<asrwt>0</asrwt>
<pdfrwt beam="1">  1       21 0.31186030E-01 0.34421877E+03</pdfrwt>
<pdfrwt beam="2">  1        2 0.19514047E+00 0.34421877E+03</pdfrwt>
<totfact> 0.21758080E+03</totfact>
</mgrwt>
</event>
<event>
 5    0  0.3040647E+000  0.2599606E+03  0.7546771E-02  0.1107167E+00
          1   -1    0    0  502    0 -0.00000000000E+00  0.00000000000E+00  0.21339782452E+04  0.21339782452E+04  0.00000000000E+00 0.  1.
         21   -1    0    0  503  502  0.00000000000E+00 -0.00000000000E+00 -0.63909944511E+02  0.63909944511E+02  0.00000000000E+00 0.  1.
         25    1    1    2    0    0 -0.21368079133E+03  0.15344796523E+03  0.78159435201E+03  0.83409860911E+03  0.12500000000E+03 0.  0.
         21    1    1    2  503  501  0.29104143971E+02 -0.23606023341E+03  0.57605331398E+03  0.62322460280E+03  0.00000000000E+00 0.  1.
          1    1    1    2  501    0  0.18457664736E+03  0.82612268184E+02  0.71242063471E+03  0.74056497782E+03  0.00000000000E+00 0.  1.
<mgrwt>
<rscale>  4 0.25996061E+03</rscale>
<asrwt>0</asrwt>
<pdfrwt beam="1">  1       21 0.98323008E-02 0.25996061E+03</pdfrwt>
<pdfrwt beam="2">  1        1 0.32830429E+00 0.25996061E+03</pdfrwt>
<totfact> 0.25622050E+03</totfact>
</mgrwt>
</event>
<event>
 5    0  0.3040647E+000  0.5789878E+03  0.7546771E-02  0.9949985E-01
         21   -1    0    0  503  502  0.00000000000E+00  0.00000000000E+00  0.97663919045E+03  0.97663919045E+03  0.00000000000E+00 0. -1.
          2   -1    0    0  502    0 -0.00000000000E+00 -0.00000000000E+00 -0.54960294699E+03  0.54960294699E+03  0.00000000000E+00 0.  1.
         25    1    1    2    0    0 -0.25719468730E+03 -0.51144339644E+03  0.63829459501E+03  0.86646895210E+03  0.12500000000E+03 0.  0.
         21    1    1    2  503  501 -0.17823843178E+02  0.19392122416E+02  0.35692877693E+02  0.44359049983E+02  0.00000000000E+00 0. -1.
          2    1    1    2  501    0  0.27501853048E+03  0.49205127403E+03 -0.24695122924E+03  0.61541413536E+03  0.00000000000E+00 0.  1.
<mgrwt>
<rscale>  4 0.57898780E+03</rscale>
<asrwt>0</asrwt>
<pdfrwt beam="1">  1       21 0.15025218E+00 0.57898780E+03</pdfrwt>
<pdfrwt beam="2">  1        2 0.84554300E-01 0.57898780E+03</pdfrwt>
<totfact> 0.17597574E+02</totfact>
</mgrwt>
</event>
<event>
 5    0  0.3040647E+000  0.3330200E+03  0.7546771E-02  0.1069808E+00
         21   -1    0    0  503  502  0.00000000000E+00  0.00000000000E+00  0.23743159764E+03  0.23743159764E+03  0.00000000000E+00 0. -1.
          1   -1    0    0  502    0 -0.00000000000E+00 -0.00000000000E+00 -0.96963799919E+03  0.96963799919E+03  0.00000000000E+00 0.  1.
         25    1    1    2    0    0  0.24008502188E+02  0.23421346761E+03 -0.64357939856E+02  0.27422490954E+03  0.12500000000E+03 0.  0.
         21    1    1    2  503  501  0.39811551351E+01  0.98358618551E+02  0.71494965512E+02  0.12166263820E+03  0.00000000000E+00 0. -1.
          1    1    1    2  501    0 -0.27989657324E+02 -0.33257208616E+03 -0.73934342721E+03  0.81118204909E+03  0.00000000000E+00 0.  1.
<mgrwt>
<rscale>  4 0.33302000E+03</rscale>
<asrwt>0</asrwt>
<pdfrwt beam="1">  1       21 0.36527938E-01 0.33302000E+03</pdfrwt>
<pdfrwt beam="2">  1        1 0.14917508E+00 0.33302000E+03</pdfrwt>
<totfact> 0.12914544E+03</totfact>
</mgrwt>
</event>
<event>
 5    0  0.3040647E+000  0.1828326E+03  0.7546771E-02  0.1165089E+00
         21   -1    0    0  503  502  0.00000000000E+00  0.00000000000E+00  0.23433184039E+03  0.23433184039E+03  0.00000000000E+00 0. -1.
          2   -1    0    0  502    0 -0.00000000000E+00 -0.00000000000E+00 -0.11629001422E+04  0.11629001422E+04  0.00000000000E+00 0.  1.
         25    1    1    2    0    0  0.11389522822E+03 -0.19279914256E+03 -0.33538041255E+03  0.42219504202E+03  0.12500000000E+03 0.  0.
         21    1    1    2  503  501 -0.72868276572E+02  0.10551227826E+03  0.16599363988E+03  0.20975346261E+03  0.00000000000E+00 0. -1.
          2    1    1    2  501    0 -0.41026951653E+02  0.87286864302E+02 -0.75918152911E+03  0.76528347792E+03  0.00000000000E+00 0.  1.
<mgrwt>
<rscale>  4 0.18283258E+03</rscale>
<asrwt>0</asrwt>
<pdfrwt beam="1">  1       21 0.36051053E-01 0.18283258E+03</pdfrwt>
<pdfrwt beam="2">  1        2 0.17890771E+00 0.18283258E+03</pdfrwt>
<totfact> 0.19990860E+03</totfact>
</mgrwt>
</event>
<event>
 5    0  0.3040647E+000  0.3590148E+03  0.7546771E-02  0.1058975E+00
         21   -1    0    0  503  502  0.00000000000E+00  0.00000000000E+00  0.54744534998E+03  0.54744534998E+03  0.00000000000E+00 0. -1.
          1   -1    0    0  502    0 -0.00000000000E+00 -0.00000000000E+00 -0.21830106726E+04  0.21830106726E+04  0.00000000000E+00 0.  1.
         25    1    1    2    0    0  0.14450304589E+03  0.31397175834E+03  0.44773053458E+03  0.57926421166E+03  0.12500000000E+03 0.  0.
         21    1    1    2  503  501  0.23266627791E+02 -0.22450703309E+02  0.77658258514E+01  0.33251738286E+02  0.00000000000E+00 0. -1.
          1    1    1    2  501    0 -0.16776967368E+03 -0.29152105503E+03 -0.20910616830E+04  0.21179400726E+04  0.00000000000E+00 0.  1.
<mgrwt>
<rscale>  4 0.35901477E+03</rscale>
<asrwt>0</asrwt>
<pdfrwt beam="1">  1       21 0.84222361E-01 0.35901477E+03</pdfrwt>
<pdfrwt beam="2">  1        1 0.33584780E+00 0.35901477E+03</pdfrwt>
<totfact> 0.31588977E+01</totfact>
</mgrwt>
</event>
<event>
 5    0  0.3040647E+000  0.2162361E+03  0.7546771E-02  0.1136721E+00
         21   -1    0    0  501  502  0.00000000000E+00  0.00000000000E+00  0.38434344917E+03  0.38434344917E+03  0.00000000000E+00 0.  1.
         -1   -1    0    0    0  501 -0.00000000000E+00 -0.00000000000E+00 -0.52093616301E+03  0.52093616301E+03  0.00000000000E+00 0.  1.
         25    1    1    2    0    0 -0.81929831357E+02  0.25313184333E+03  0.13263870658E+03  0.32250000598E+03  0.12500000000E+03 0.  0.
         21    1    1    2  503  502  0.70326972596E+02 -0.83558608742E+02  0.11745531692E+03  0.16038602072E+03  0.00000000000E+00 0.  1.
         -1    1    1    2    0  503  0.11602858761E+02 -0.16957323459E+03 -0.38668673734E+03  0.42239358548E+03  0.00000000000E+00 0.  1.
<mgrwt>
<rscale>  4 0.21623612E+03</rscale>
<asrwt>0</asrwt>
<pdfrwt beam="1">  1       21 0.59129762E-01 0.21623612E+03</pdfrwt>
<pdfrwt beam="2">  1       -1 0.80144025E-01 0.21623612E+03</pdfrwt>
<totfact> 0.40109871E+02</totfact>
</mgrwt>
</event>
<event>
 5    0  0.3040647E+000  0.3184318E+03  0.7546771E-02  0.1076373E+00
          2   -1    0    0  502    0 -0.00000000000E+00  0.00000000000E+00  0.33283996553E+04  0.33283996553E+04  0.00000000000E+00 0. -1.
         21   -1    0    0  503  502  0.00000000000E+00 -0.00000000000E+00 -0.36702854137E+02  0.36702854137E+02  0.00000000000E+00 0. -1.
         25    1    1    2    0    0 -0.22920865445E+03  0.19745444903E+03  0.20890204572E+04  0.21145108979E+04  0.12500000000E+03 0.  0.
         21    1    1    2  503  501 -0.10551596467E+02 -0.49700972734E+02  0.95699265226E+02  0.10835069102E+03  0.00000000000E+00 0.  1.
          2    1    1    2  501    0  0.23976025092E+03 -0.14775347629E+03  0.11069770788E+04  0.11422409206E+04  0.00000000000E+00 0. -1.
<mgrwt>
<rscale>  4 0.31843176E+03</rscale>
<asrwt>0</asrwt>
<pdfrwt beam="1">  1       21 0.56465956E-02 0.31843176E+03</pdfrwt>
<pdfrwt beam="2">  1        2 0.51206125E+00 0.31843176E+03</pdfrwt>
<totfact> 0.35571767E+03</totfact>
</mgrwt>
</event>
<event>
 5    0  0.3573894E+000  0.3203536E+03  0.7546771E-02  0.1075487E+00
          2   -1    0    0  502    0 -0.00000000000E+00  0.00000000000E+00  0.25822732934E+04  0.25822732934E+04  0.00000000000E+00 0. -1.
         21   -1    0    0  503  502  0.00000000000E+00 -0.00000000000E+00 -0.62236389323E+02  0.62236389323E+02  0.00000000000E+00 0. -1.
         25    1    1    2    0    0  0.80668091502E+01 -0.29615835641E+03  0.20735997381E+04  0.20983840733E+04  0.12500000000E+03 0.  0.
         21    1    1    2  503  501 -0.20647566805E+02  0.59310589856E+01  0.51955063057E+02  0.56221242008E+02  0.00000000000E+00 0.  1.
          2    1    1    2  501    0  0.12580757655E+02  0.29022729742E+03  0.39448210293E+03  0.48990436736E+03  0.00000000000E+00 0. -1.
<mgrwt>
<rscale>  4 0.32035364E+03</rscale>
<asrwt>0</asrwt>
<pdfrwt beam="1">  1       21 0.95748311E-02 0.32035364E+03</pdfrwt>
<pdfrwt beam="2">  1        2 0.39727273E+00 0.32035364E+03</pdfrwt>
<totfact> 0.39057873E+03</totfact>
</mgrwt>
</event>
<event>
 5    0  0.3040647E+000  0.2345673E+03  0.7546771E-02  0.1123466E+00
          2   -1    0    0  502    0 -0.00000000000E+00  0.00000000000E+00  0.12518605246E+03  0.12518605246E+03  0.00000000000E+00 0.  1.
         21   -1    0    0  503  502  0.00000000000E+00 -0.00000000000E+00 -0.13735868962E+04  0.13735868962E+04  0.00000000000E+00 0. -1.
         25    1    1    2    0    0 -0.99330407356E+02  0.18263315718E+03 -0.11411721203E+04  0.11666705653E+04  0.12500000000E+03 0.  0.
         21    1    1    2  503  501 -0.28677557447E+02 -0.31491842562E+02 -0.12613972356E+03  0.13313665276E+03  0.00000000000E+00 0. -1.
          2    1    1    2  501    0  0.12800796480E+03 -0.15114131462E+03  0.18911000030E+02  0.19896573062E+03  0.00000000000E+00 0.  1.
<mgrwt>
<rscale>  4 0.23456733E+03</rscale>
<asrwt>0</asrwt>
<pdfrwt beam="1">  1       21 0.21132107E+00 0.23456733E+03</pdfrwt>
<pdfrwt beam="2">  1        2 0.19259392E-01 0.23456733E+03</pdfrwt>
<totfact> 0.39173879E+02</totfact>
</mgrwt>
</event>
<event>
 5    0  0.3040647E+000  0.2439743E+03  0.7546771E-02  0.1117173E+00
         21   -1    0    0  501  502  0.00000000000E+00  0.00000000000E+00  0.87075947225E+03  0.87075947225E+03  0.00000000000E+00 0. -1.
         -3   -1    0    0    0  501 -0.00000000000E+00 -0.00000000000E+00 -0.31018052703E+03  0.31018052703E+03  0.00000000000E+00 0. -1.
         25    1    1    2    0    0 -0.98873663142E+02  0.20577112739E+03  0.76552329377E+03  0.80855962763E+03  0.12500000000E+03 0.  0.
         21    1    1    2  503  502  0.16648036878E+02 -0.14036747469E+02  0.43087245863E+02  0.48277304890E+02  0.00000000000E+00 0. -1.
         -3    1    1    2    0  503  0.82225626264E+02 -0.19173437992E+03 -0.24803159441E+03  0.32410306676E+03  0.00000000000E+00 0. -1.
<mgrwt>
<rscale>  4 0.24397435E+03</rscale>
<asrwt>0</asrwt>
<pdfrwt beam="1">  1       21 0.13396299E+00 0.24397435E+03</pdfrwt>
<pdfrwt beam="2">  1       -3 0.47720082E-01 0.24397435E+03</pdfrwt>
<totfact> 0.84858132E+01</totfact>
</mgrwt>
</event>
<event>
 5    0  0.3040647E+000  0.2422451E+03  0.7546771E-02  0.1118306E+00
         21   -1    0    0  503  502  0.00000000000E+00  0.00000000000E+00  0.37643089953E+02  0.37643089953E+02  0.00000000000E+00 0. -1.
          2   -1    0    0  502    0 -0.00000000000E+00 -0.00000000000E+00 -0.20449473716E+04  0.20449473716E+04  0.00000000000E+00 0. -1.
         25    1    1    2    0    0 -0.18764675245E+03 -0.11452337896E+03 -0.13105698088E+04  0.13347453434E+04  0.12500000000E+03 0.  0.
         21    1    1    2  503  501  0.40210571194E+02 -0.12855930351E+02 -0.26452357839E+02  0.49818593077E+02  0.00000000000E+00 0. -1.
          2    1    1    2  501    0  0.14743618126E+03  0.12737930931E+03 -0.67028211501E+03  0.69802652506E+03  0.00000000000E+00 0. -1.
<mgrwt>
<rscale>  4 0.24224507E+03</rscale>
<asrwt>0</asrwt>
<pdfrwt beam="1">  1       21 0.57912413E-02 0.24224507E+03</pdfrwt>
<pdfrwt beam="2">  1        2 0.31460747E+00 0.24224507E+03</pdfrwt>
<totfact> 0.18815000E+04</totfact>
</mgrwt>
</event>
<event>
 5    0  0.3040647E+000  0.4219394E+03  0.7546771E-02  0.1036437E+00
          2   -1    0    0  502    0 -0.00000000000E+00  0.00000000000E+00  0.14597152060E+04  0.14597152060E+04  0.00000000000E+00 0. -1.
         21   -1    0    0  503  502  0.00000000000E+00 -0.00000000000E+00 -0.38022256548E+03  0.38022256548E+03  0.00000000000E+00 0. -1.
         25    1    1    2    0    0  0.32406923975E+02 -0.36899388771E+03  0.76350788564E+03  0.85777385675E+03  0.12500000000E+03 0.  0.
         21    1    1    2  503  501 -0.61621377214E+02  0.40346294326E+03 -0.20672195243E+03  0.45750793035E+03  0.00000000000E+00 0. -1.
          2    1    1    2  501    0  0.29214453239E+02 -0.34469055552E+02  0.52270670734E+03  0.52465598440E+03  0.00000000000E+00 0. -1.
<mgrwt>
<rscale>  4 0.42193938E+03</rscale>
<asrwt>0</asrwt>
<pdfrwt beam="1">  1       21 0.58495780E-01 0.42193938E+03</pdfrwt>
<pdfrwt beam="2">  1        2 0.22457157E+00 0.42193938E+03</pdfrwt>
<totfact> 0.45069307E+02</totfact>
</mgrwt>
</event>
<event>
 5    0  0.3040647E+000  0.2702923E+03  0.7546771E-02  0.1101112E+00
          2   -1    0    0  502    0 -0.00000000000E+00  0.00000000000E+00  0.27283463552E+04  0.27283463552E+04  0.00000000000E+00 0. -1.
         21   -1    0    0  503  502  0.00000000000E+00 -0.00000000000E+00 -0.44073136873E+02  0.44073136873E+02  0.00000000000E+00 0. -1.
         25    1    1    2    0    0  0.99355978138E+01 -0.21863638125E+03  0.45255745847E+03  0.51800949463E+03  0.12500000000E+03 0.  0.
         21    1    1    2  503  501  0.45509378609E+01 -0.24867640768E+02  0.30039995379E+02  0.39262092598E+02  0.00000000000E+00 0. -1.
          2    1    1    2  501    0 -0.14486535675E+02  0.24350402202E+03  0.22016757645E+04  0.22151479048E+04  0.00000000000E+00 0. -1.
<mgrwt>
<rscale>  4 0.27029227E+03</rscale>
<asrwt>0</asrwt>
<pdfrwt beam="1">  1       21 0.67804847E-02 0.27029227E+03</pdfrwt>
<pdfrwt beam="2">  1        2 0.41974546E+00 0.27029227E+03</pdfrwt>
<totfact> 0.60478032E+03</totfact>
</mgrwt>
</event>
<event>
 5    0  0.3040647E+000  0.2597192E+03  0.7546771E-02  0.1107312E+00
         21   -1    0    0  501  502  0.00000000000E+00  0.00000000000E+00  0.68105415395E+02  0.68105415395E+02  0.00000000000E+00 0. -1.
         -2   -1    0    0    0  501 -0.00000000000E+00 -0.00000000000E+00 -0.15878175032E+04  0.15878175032E+04  0.00000000000E+00 0.  1.
         25    1    1    2    0    0 -0.98693176805E+02  0.26534244769E+03 -0.85695744553E+03  0.91112459144E+03  0.12500000000E+03 0.  0.
         21    1    1    2  503  502  0.34879303861E+02 -0.79621924898E+02 -0.47699803702E+02  0.99153860416E+02  0.00000000000E+00 0. -1.
         -2    1    1    2    0  503  0.63813872945E+02 -0.18572052279E+03 -0.61505483853E+03  0.64564446669E+03  0.00000000000E+00 0.  1.
<mgrwt>
<rscale>  4 0.25971921E+03</rscale>
<asrwt>0</asrwt>
<pdfrwt beam="1">  1       21 0.10477756E-01 0.25971921E+03</pdfrwt>
<pdfrwt beam="2">  1       -2 0.24427962E+00 0.25971921E+03</pdfrwt>
<totfact> 0.47307762E+02</totfact>
</mgrwt>
</event>
<event>
 5    0  0.3040647E+000  0.2928303E+03  0.7546771E-02  0.1088881E+00
         21   -1    0    0  503  502  0.00000000000E+00  0.00000000000E+00  0.92444748072E+02  0.92444748072E+02  0.00000000000E+00 0. -1.
          2   -1    0    0  502    0 -0.00000000000E+00 -0.00000000000E+00 -0.10840218387E+04  0.10840218387E+04  0.00000000000E+00 0. -1.
         25    1    1    2    0    0  0.24641185686E+03 -0.11109193466E+03 -0.45004052535E+03  0.53964960447E+03  0.12500000000E+03 0.  0.
         21    1    1    2  503  501 -0.28576483845E+02 -0.35526908952E+02 -0.14253499966E+02  0.47769644649E+02  0.00000000000E+00 0. -1.
          2    1    1    2  501    0 -0.21783537301E+03  0.14661884362E+03 -0.52728306534E+03  0.58904733769E+03  0.00000000000E+00 0. -1.
<mgrwt>
<rscale>  4 0.29283028E+03</rscale>
<asrwt>0</asrwt>
<pdfrwt beam="1">  1       21 0.14222268E-01 0.29283028E+03</pdfrwt>
<pdfrwt beam="2">  1        2 0.16677260E+00 0.29283028E+03</pdfrwt>
<totfact> 0.12542196E+04</totfact>
</mgrwt>
</event>
<event>
 5    0  0.3040647E+000  0.3910479E+03  0.7546771E-02  0.1046924E+00
         21   -1    0    0  503  502  0.00000000000E+00  0.00000000000E+00  0.37137458364E+03  0.37137458364E+03  0.00000000000E+00 0. -1.
          2   -1    0    0  502    0 -0.00000000000E+00 -0.00000000000E+00 -0.10956250171E+04  0.10956250171E+04  0.00000000000E+00 0.  1.
         25    1    1    2    0    0 -0.15195292850E+03  0.40282706470E+03 -0.41820010864E+03  0.61308699823E+03  0.12500000000E+03 0.  0.
         21    1    1    2  503  501 -0.19038723787E+02 -0.10801176694E+03  0.20916392314E+03  0.23617485376E+03  0.00000000000E+00 0. -1.
          2    1    1    2  501    0  0.17099165228E+03 -0.29481529775E+03 -0.51521424801E+03  0.61773774880E+03  0.00000000000E+00 0.  1.
<mgrwt>
<rscale>  4 0.39104786E+03</rscale>
<asrwt>0</asrwt>
<pdfrwt beam="1">  1       21 0.57134552E-01 0.39104786E+03</pdfrwt>
<pdfrwt beam="2">  1        2 0.16855769E+00 0.39104786E+03</pdfrwt>
<totfact> 0.77216950E+02</totfact>
</mgrwt>
</event>
<event>
 5    0  0.3040647E+000  0.2850225E+03  0.7546771E-02  0.1092977E+00
          2   -1    0    0  502    0 -0.00000000000E+00  0.00000000000E+00  0.17584818630E+04  0.17584818630E+04  0.00000000000E+00 0. -1.
         21   -1    0    0  503  502  0.00000000000E+00 -0.00000000000E+00 -0.50384179603E+03  0.50384179603E+03  0.00000000000E+00 0. -1.
         25    1    1    2    0    0  0.18564915148E+03  0.20977875577E+03 -0.75564746311E+02  0.31592366911E+03  0.12500000000E+03 0.  0.
         21    1    1    2  503  501  0.54691917091E+02 -0.12010985194E+03 -0.28335191780E+03  0.31257941655E+03  0.00000000000E+00 0. -1.
          2    1    1    2  501    0 -0.24034106857E+03 -0.89668903828E+02  0.16135567311E+04  0.16338205734E+04  0.00000000000E+00 0. -1.
<mgrwt>
<rscale>  4 0.28502246E+03</rscale>
<asrwt>0</asrwt>
<pdfrwt beam="1">  1       21 0.77514124E-01 0.28502246E+03</pdfrwt>
<pdfrwt beam="2">  1        2 0.27053567E+00 0.28502246E+03</pdfrwt>
<totfact> 0.17721150E+02</totfact>
</mgrwt>
</event>
<event>
 5    0  0.3040647E+000  0.4500957E+03  0.7546771E-02  0.1027693E+00
          3   -1    0    0  502    0 -0.00000000000E+00  0.00000000000E+00  0.50960820992E+03  0.50960820992E+03  0.00000000000E+00 0. -1.
         21   -1    0    0  503  502  0.00000000000E+00 -0.00000000000E+00 -0.69944103157E+03  0.69944103157E+03  0.00000000000E+00 0. -1.
         25    1    1    2    0    0  0.19567021274E+03 -0.39869923011E+03 -0.28160051741E+03  0.54052914782E+03  0.12500000000E+03 0.  0.
         21    1    1    2  503  501 -0.10833717030E+03 -0.24442987016E+02 -0.13961730529E+03  0.17840233749E+03  0.00000000000E+00 0. -1.
          3    1    1    2  501    0 -0.87333042439E+02  0.42314221712E+03  0.23138500105E+03  0.49011775618E+03  0.00000000000E+00 0. -1.
<mgrwt>
<rscale>  4 0.45009574E+03</rscale>
<asrwt>0</asrwt>
<pdfrwt beam="1">  1       21 0.10760631E+00 0.45009574E+03</pdfrwt>
<pdfrwt beam="2">  1        3 0.78401263E-01 0.45009574E+03</pdfrwt>
<totfact> 0.48845086E+01</totfact>
</mgrwt>
</event>
<event>
 5    0  0.3040647E+000  0.5261391E+03  0.7546771E-02  0.1007173E+00
          2   -1    0    0  502    0 -0.00000000000E+00  0.00000000000E+00  0.11539602861E+04  0.11539602861E+04  0.00000000000E+00 0.  1.
         21   -1    0    0  503  502  0.00000000000E+00 -0.00000000000E+00 -0.25659855058E+03  0.25659855058E+03  0.00000000000E+00 0. -1.
         25    1    1    2    0    0  0.79994095949E+02 -0.50446561820E+03  0.47878637317E+03  0.71115821479E+03  0.12500000000E+03 0.  0.
         21    1    1    2  503  501  0.26354553110E+02  0.38997679357E+01 -0.13302369919E+02  0.29777906324E+02  0.00000000000E+00 0.  1.
          2    1    1    2  501    0 -0.10634864906E+03  0.50056585026E+03  0.43187773231E+03  0.66962271562E+03  0.00000000000E+00 0.  1.
<mgrwt>
<rscale>  4 0.52613907E+03</rscale>
<asrwt>0</asrwt>
<pdfrwt beam="1">  1       21 0.39476701E-01 0.52613907E+03</pdfrwt>
<pdfrwt beam="2">  1        2 0.17753235E+00 0.52613907E+03</pdfrwt>
<totfact> 0.15048251E+03</totfact>
</mgrwt>
</event>
<event>
 5    0  0.3040647E+000  0.3005683E+03  0.7546771E-02  0.1084957E+00
         21   -1    0    0  503  502  0.00000000000E+00  0.00000000000E+00  0.26898291920E+03  0.26898291920E+03  0.00000000000E+00 0.  1.
          4   -1    0    0  502    0 -0.00000000000E+00 -0.00000000000E+00 -0.38405081566E+03  0.38405081566E+03  0.00000000000E+00 0. -1.
         25    1    1    2    0    0 -0.28496650390E+03 -0.30917710632E+02 -0.86112097785E+02  0.32434874219E+03  0.12500000000E+03 0.  0.
         21    1    1    2  503  501  0.30622686241E+02 -0.49101954497E+02 -0.22153107700E+02  0.61963788044E+02  0.00000000000E+00 0. -1.
          4    1    1    2  501    0  0.25434381766E+03  0.80019665129E+02 -0.68026909738E+01  0.26672120462E+03  0.00000000000E+00 0. -1.
<mgrwt>
<rscale>  4 0.30056832E+03</rscale>
<asrwt>0</asrwt>
<pdfrwt beam="1">  1       21 0.41381987E-01 0.30056832E+03</pdfrwt>
<pdfrwt beam="2">  1        4 0.59084741E-01 0.30056832E+03</pdfrwt>
<totfact> 0.64467154E+02</totfact>
</mgrwt>
</event>
<event>
 5    0  0.3040647E+000  0.2339920E+03  0.7546771E-02  0.1123861E+00
         21   -1    0    0  503  502  0.00000000000E+00  0.00000000000E+00  0.44628442695E+02  0.44628442695E+02  0.00000000000E+00 0. -1.
          2   -1    0    0  502    0 -0.00000000000E+00 -0.00000000000E+00 -0.23634017067E+04  0.23634017067E+04  0.00000000000E+00 0.  1.
         25    1    1    2    0    0  0.19192366170E+03  0.74629333091E+02 -0.34550429371E+03  0.42119169774E+03  0.12500000000E+03 0.  0.
         21    1    1    2  503  501 -0.20235349845E+01 -0.22798289472E+02 -0.75637755401E+02  0.79024848869E+02  0.00000000000E+00 0.  1.
          2    1    1    2  501    0 -0.18990012672E+03 -0.51831043619E+02 -0.18976312149E+04  0.19078136028E+04  0.00000000000E+00 0.  1.
<mgrwt>
<rscale>  4 0.23399200E+03</rscale>
<asrwt>0</asrwt>
<pdfrwt beam="1">  1       21 0.68659155E-02 0.23399200E+03</pdfrwt>
<pdfrwt beam="2">  1        2 0.36360020E+00 0.23399200E+03</pdfrwt>
<totfact> 0.95365960E+03</totfact>
</mgrwt>
</event>
<event>
 5    0  0.3040647E+000  0.2707649E+03  0.7546771E-02  0.1100843E+00
          2   -1    0    0  502    0 -0.00000000000E+00  0.00000000000E+00  0.40620340532E+03  0.40620340532E+03  0.00000000000E+00 0. -1.
         21   -1    0    0  503  502  0.00000000000E+00 -0.00000000000E+00 -0.71951623153E+03  0.71951623153E+03  0.00000000000E+00 0. -1.
         25    1    1    2    0    0 -0.26238863151E+03  0.10816096062E+02 -0.22428148021E+03  0.36727641395E+03  0.12500000000E+03 0.  0.
         21    1    1    2  503  501  0.26531400146E+02  0.12966653567E+02 -0.38112151023E+03  0.38226385503E+03  0.00000000000E+00 0. -1.
          2    1    1    2  501    0  0.23585723137E+03 -0.23782749629E+02  0.29209016424E+03  0.37617936787E+03  0.00000000000E+00 0. -1.
<mgrwt>
<rscale>  4 0.27076487E+03</rscale>
<asrwt>0</asrwt>
<pdfrwt beam="1">  1       21 0.11069480E+00 0.27076487E+03</pdfrwt>
<pdfrwt beam="2">  1        2 0.62492833E-01 0.27076487E+03</pdfrwt>
<totfact> 0.60434825E+02</totfact>
</mgrwt>
</event>
<event>
 5    0  0.3040647E+000  0.4024416E+03  0.7546771E-02  0.1042937E+00
          1   -1    0    0  502    0 -0.00000000000E+00  0.00000000000E+00  0.38245914529E+04  0.38245914529E+04  0.00000000000E+00 0.  1.
         21   -1    0    0  503  502  0.00000000000E+00 -0.00000000000E+00 -0.55652774539E+02  0.55652774539E+02  0.00000000000E+00 0.  1.
         25    1    1    2    0    0  0.33911839423E+03 -0.18970705889E+03  0.16311874489E+04  0.16814837338E+04  0.12500000000E+03 0.  0.
         21    1    1    2  503  501 -0.28737152102E+02 -0.28321324882E+02  0.16052885103E+02  0.43423685635E+02  0.00000000000E+00 0.  1.
          1    1    1    2  501    0 -0.31038124213E+03  0.21802838377E+03  0.21216983444E+04  0.21553368081E+04  0.00000000000E+00 0.  1.
<mgrwt>
<rscale>  4 0.40244165E+03</rscale>
<asrwt>0</asrwt>
<pdfrwt beam="1">  1       21 0.85619684E-02 0.40244165E+03</pdfrwt>
<pdfrwt beam="2">  1        1 0.58839848E+00 0.40244165E+03</pdfrwt>
<totfact> 0.19299366E+02</totfact>
</mgrwt>
</event>
<event>
 5    0  0.3040647E+000  0.2315714E+03  0.7546771E-02  0.1125539E+00
         21   -1    0    0  503  502  0.00000000000E+00  0.00000000000E+00  0.90257731703E+02  0.90257731703E+02  0.00000000000E+00 0. -1.
          2   -1    0    0  502    0 -0.00000000000E+00 -0.00000000000E+00 -0.81721629393E+03  0.81721629393E+03  0.00000000000E+00 0. -1.
         25    1    1    2    0    0  0.20845398775E+03  0.56894242140E+02 -0.34052452844E+03  0.42222265959E+03  0.12500000000E+03 0.  0.
         21    1    1    2  503  501 -0.23125817263E+02 -0.46219835281E+02  0.51057760313E+01  0.51934049970E+02  0.00000000000E+00 0.  1.
          2    1    1    2  501    0 -0.18532817049E+03 -0.10674406860E+02 -0.39153980982E+03  0.43331731608E+03  0.00000000000E+00 0. -1.
<mgrwt>
<rscale>  4 0.23157142E+03</rscale>
<asrwt>0</asrwt>
<pdfrwt beam="1">  1       21 0.13885805E-01 0.23157142E+03</pdfrwt>
<pdfrwt beam="2">  1        2 0.12572559E+00 0.23157142E+03</pdfrwt>
<totfact> 0.19559346E+04</totfact>
</mgrwt>
</event>
<event>
 5    0  0.3040647E+000  0.5153747E+03  0.7546771E-02  0.1009842E+00
          2   -1    0    0  502    0 -0.00000000000E+00  0.00000000000E+00  0.17340424954E+04  0.17340424954E+04  0.00000000000E+00 0.  1.
         21   -1    0    0  503  502  0.00000000000E+00 -0.00000000000E+00 -0.23887376111E+03  0.23887376111E+03  0.00000000000E+00 0. -1.
         25    1    1    2    0    0 -0.48505890308E+03  0.10563756403E+03  0.21605754949E+03  0.55565033887E+03  0.12500000000E+03 0.  0.
         21    1    1    2  503  501 -0.30605356845E+02 -0.78305142687E+02  0.10424078685E+03  0.13391984499E+03  0.00000000000E+00 0.  1.
          2    1    1    2  501    0  0.51566425993E+03 -0.27332421343E+02  0.11748703979E+04  0.12833460726E+04  0.00000000000E+00 0.  1.
<mgrwt>
<rscale>  4 0.51537466E+03</rscale>
<asrwt>0</asrwt>
<pdfrwt beam="1">  1       21 0.36749810E-01 0.51537466E+03</pdfrwt>
<pdfrwt beam="2">  1        2 0.26677576E+00 0.51537466E+03</pdfrwt>
<totfact> 0.82904588E+02</totfact>
</mgrwt>
</event>
<event>
 5    0  0.3040647E+000  0.2433908E+03  0.7546771E-02  0.1117554E+00
         21   -1    0    0  503  502  0.00000000000E+00  0.00000000000E+00  0.12383052622E+03  0.12383052622E+03  0.00000000000E+00 0.  1.
          1   -1    0    0  502    0 -0.00000000000E+00 -0.00000000000E+00 -0.47277212888E+03  0.47277212888E+03  0.00000000000E+00 0.  1.
         25    1    1    2    0    0  0.20867263084E+03  0.83549055368E+01 -0.92712710087E+02  0.26045098948E+03  0.12500000000E+03 0.  0.
         21    1    1    2  503  501 -0.17730926595E+03  0.22115140189E+01 -0.17819655385E+03  0.25139108653E+03  0.00000000000E+00 0.  1.
          1    1    1    2  501    0 -0.31363364899E+02 -0.10566419556E+02 -0.78032338729E+02  0.84760579089E+02  0.00000000000E+00 0.  1.
<mgrwt>
<rscale>  4 0.24339078E+03</rscale>
<asrwt>0</asrwt>
<pdfrwt beam="1">  1       21 0.19050850E-01 0.24339078E+03</pdfrwt>
<pdfrwt beam="2">  1        1 0.72734173E-01 0.24339078E+03</pdfrwt>
<totfact> 0.13447532E+04</totfact>
</mgrwt>
</event>
<event>
 5    0  0.3040647E+000  0.2344184E+03  0.7546771E-02  0.1123568E+00
         21   -1    0    0  503  502  0.00000000000E+00  0.00000000000E+00  0.28505279083E+03  0.28505279083E+03  0.00000000000E+00 0. -1.
          1   -1    0    0  502    0 -0.00000000000E+00 -0.00000000000E+00 -0.63852001389E+03  0.63852001389E+03  0.00000000000E+00 0. -1.
         25    1    1    2    0    0 -0.49033927728E+02  0.19994953305E+03  0.16365155430E+03  0.29118889584E+03  0.12500000000E+03 0.  0.
         21    1    1    2  503  501  0.23613255892E+02 -0.37594547495E+01  0.36975281271E+02  0.44032837507E+02  0.00000000000E+00 0.  1.
          1    1    1    2  501    0  0.25420671836E+02 -0.19619007830E+03 -0.55409405863E+03  0.58835107137E+03  0.00000000000E+00 0. -1.
<mgrwt>
<rscale>  4 0.23441836E+03</rscale>
<asrwt>0</asrwt>
<pdfrwt beam="1">  1       21 0.43854276E-01 0.23441836E+03</pdfrwt>
<pdfrwt beam="2">  1        1 0.98233847E-01 0.23441836E+03</pdfrwt>
<totfact> 0.17561258E+03</totfact>
</mgrwt>
</event>
<event>
 5    0  0.3040647E+000  0.3677488E+03  0.7546771E-02  0.1055557E+00
         -3   -1    0    0    0  501 -0.00000000000E+00  0.00000000000E+00  0.76745155766E+03  0.76745155766E+03  0.00000000000E+00 0.  1.
         21   -1    0    0  501  502  0.00000000000E+00 -0.00000000000E+00 -0.24613917562E+03  0.24613917562E+03  0.00000000000E+00 0.  1.
         25    1    1    2    0    0 -0.27858931434E+03  0.15590108770E+03  0.28287392002E+01  0.34285588369E+03  0.12500000000E+03 0.  0.
         21    1    1    2  503  502 -0.30605120104E+02  0.17117465480E+02 -0.81551409252E+01  0.36002601636E+02  0.00000000000E+00 0.  1.
         -3    1    1    2    0  503  0.30919443445E+03 -0.17301855318E+03  0.52663878377E+03  0.63473224796E+03  0.00000000000E+00 0.  1.
<mgrwt>
<rscale>  4 0.36774880E+03</rscale>
<asrwt>0</asrwt>
<pdfrwt beam="1">  1       21 0.37867566E-01 0.36774880E+03</pdfrwt>
<pdfrwt beam="2">  1       -3 0.11806947E+00 0.36774880E+03</pdfrwt>
<totfact> 0.19682290E+02</totfact>
</mgrwt>
</event>
<event>
 5    0  0.3647938E+000  0.2185673E+03  0.7546771E-02  0.1134956E+00
         21   -1    0    0  503  502  0.00000000000E+00  0.00000000000E+00  0.20432278634E+04  0.20432278634E+04  0.00000000000E+00 0. -1.
          2   -1    0    0  502    0 -0.00000000000E+00 -0.00000000000E+00 -0.72800290437E+03  0.72800290437E+03  0.00000000000E+00 0. -1.
         25    1    1    2    0    0 -0.50391104509E+02 -0.20057578335E+03  0.19605876719E+04  0.19754237337E+04  0.12500000000E+03 0.  0.
         21    1    1    2  503  501  0.26178654760E+02  0.23074245114E+02  0.59258034184E+02  0.68769596247E+02  0.00000000000E+00 0. -1.
          2    1    1    2  501    0  0.24212449749E+02  0.17750153824E+03 -0.70462074708E+03  0.72703743784E+03  0.00000000000E+00 0. -1.
<mgrwt>
<rscale>  4 0.21856726E+03</rscale>
<asrwt>0</asrwt>
<pdfrwt beam="1">  1       21 0.31434275E+00 0.21856726E+03</pdfrwt>
<pdfrwt beam="2">  1        2 0.11200045E+00 0.21856726E+03</pdfrwt>
<totfact> 0.13720868E+01</totfact>
</mgrwt>
</event>
<event>
 5    0  0.3040647E+000  0.2473799E+03  0.7546771E-02  0.1114972E+00
          2   -1    0    0  502    0 -0.00000000000E+00  0.00000000000E+00  0.41406135208E+03  0.41406135208E+03  0.00000000000E+00 0. -1.
         21   -1    0    0  503  502  0.00000000000E+00 -0.00000000000E+00 -0.21870547020E+03  0.21870547020E+03  0.00000000000E+00 0. -1.
         25    1    1    2    0    0 -0.19778269221E+03  0.48778586238E+02 -0.79455386407E+02  0.25186405508E+03  0.12500000000E+03 0.  0.
         21    1    1    2  503  501 -0.23804834805E+01  0.32641582090E+02  0.18762506437E+01  0.32782005726E+02  0.00000000000E+00 0. -1.
          2    1    1    2  501    0  0.20016317569E+03 -0.81420168329E+02  0.27293501764E+03  0.34812076147E+03  0.00000000000E+00 0. -1.
<mgrwt>
<rscale>  4 0.24737990E+03</rscale>
<asrwt>0</asrwt>
<pdfrwt beam="1">  1       21 0.33646995E-01 0.24737990E+03</pdfrwt>
<pdfrwt beam="2">  1        2 0.63701746E-01 0.24737990E+03</pdfrwt>
<totfact> 0.80499181E+03</totfact>
</mgrwt>
</event>
<event>
 5    0  0.3040647E+000  0.3471539E+03  0.7546771E-02  0.1063789E+00
          2   -1    0    0  502    0 -0.00000000000E+00  0.00000000000E+00  0.14524340130E+04  0.14524340130E+04  0.00000000000E+00 0.  1.
         21   -1    0    0  503  502  0.00000000000E+00 -0.00000000000E+00 -0.99918198898E+02  0.99918198898E+02  0.00000000000E+00 0.  1.
         25    1    1    2    0    0 -0.14924884319E+02  0.33786074602E+03  0.44173373556E+03  0.57019849965E+03  0.12500000000E+03 0.  0.
         21    1    1    2  503  501  0.22249333343E+01 -0.20271363535E+02  0.33496493620E+01  0.20666365398E+02  0.00000000000E+00 0. -1.
          2    1    1    2  501    0  0.12699950984E+02 -0.31758938249E+03  0.90743242922E+03  0.96148734689E+03  0.00000000000E+00 0.  1.
<mgrwt>
<rscale>  4 0.34715393E+03</rscale>
<asrwt>0</asrwt>
<pdfrwt beam="1">  1       21 0.15372032E-01 0.34715393E+03</pdfrwt>
<pdfrwt beam="2">  1        2 0.22345137E+00 0.34715393E+03</pdfrwt>
<totfact> 0.66470890E+03</totfact>
</mgrwt>
</event>
<event>
 5    0  0.3040647E+000  0.1945391E+03  0.7546771E-02  0.1154430E+00
         21   -1    0    0  503  502  0.00000000000E+00  0.00000000000E+00  0.82355113638E+03  0.82355113638E+03  0.00000000000E+00 0.  1.
          4   -1    0    0  502    0 -0.00000000000E+00 -0.00000000000E+00 -0.12017528946E+03  0.12017528946E+03  0.00000000000E+00 0. -1.
         25    1    1    2    0    0 -0.16848462741E+03 -0.11356535059E+03  0.35572467086E+03  0.42830970102E+03  0.12500000000E+03 0.  0.
         21    1    1    2  503  501  0.32119372650E+02  0.75132506238E+02  0.36376182717E+03  0.37282598421E+03  0.00000000000E+00 0.  1.
          4    1    1    2  501    0  0.13636525476E+03  0.38432844353E+02 -0.16110651100E+02  0.14259074062E+03  0.00000000000E+00 0. -1.
<mgrwt>
<rscale>  4 0.19453912E+03</rscale>
<asrwt>0</asrwt>
<pdfrwt beam="1">  1       21 0.12670017E+00 0.19453912E+03</pdfrwt>
<pdfrwt beam="2">  1        4 0.18488507E-01 0.19453912E+03</pdfrwt>
<totfact> 0.50402621E+02</totfact>
</mgrwt>
</event>
<event>
 5    0  0.3040647E+000  0.2985567E+03  0.7546771E-02  0.1085964E+00
         21   -1    0    0  503  502  0.00000000000E+00  0.00000000000E+00  0.78033712767E+02  0.78033712767E+02  0.00000000000E+00 0.  1.
          1   -1    0    0  502    0 -0.00000000000E+00 -0.00000000000E+00 -0.33438755414E+04  0.33438755414E+04  0.00000000000E+00 0. -1.
         25    1    1    2    0    0  0.51653645436E+02  0.24280573012E+03 -0.21530146995E+03  0.35157139336E+03  0.12500000000E+03 0.  0.
         21    1    1    2  503  501  0.19602835143E+00  0.25440148798E+02 -0.39864196093E+02  0.47290524718E+02  0.00000000000E+00 0.  1.
          1    1    1    2  501    0 -0.51849673788E+02 -0.26824587892E+03 -0.30106761626E+04  0.30230473361E+04  0.00000000000E+00 0. -1.
<mgrwt>
<rscale>  4 0.29855668E+03</rscale>
<asrwt>0</asrwt>
<pdfrwt beam="1">  1       21 0.12005190E-01 0.29855668E+03</pdfrwt>
<pdfrwt beam="2">  1        1 0.51444225E+00 0.29855668E+03</pdfrwt>
<totfact> 0.26087441E+02</totfact>
</mgrwt>
</event>
<event>
 5    0  0.3040647E+000  0.2581920E+03  0.7546771E-02  0.1108234E+00
          2   -1    0    0  502    0 -0.00000000000E+00  0.00000000000E+00  0.10341340842E+04  0.10341340842E+04  0.00000000000E+00 0. -1.
         21   -1    0    0  503  502  0.00000000000E+00 -0.00000000000E+00 -0.30425411938E+03  0.30425411938E+03  0.00000000000E+00 0.  1.
         25    1    1    2    0    0 -0.62830359402E+02 -0.22903679096E+03 -0.19864967458E+03  0.33390447569E+03  0.12500000000E+03 0.  0.
         21    1    1    2  503  501  0.19676897984E+02  0.78332882271E+01 -0.20251084611E+02  0.29302681561E+02  0.00000000000E+00 0.  1.
          2    1    1    2  501    0  0.43153461417E+02  0.22120350273E+03  0.94878072400E+03  0.97518104631E+03  0.00000000000E+00 0. -1.
<mgrwt>
<rscale>  4 0.25819199E+03</rscale>
<asrwt>0</asrwt>
<pdfrwt beam="1">  1       21 0.46808327E-01 0.25819199E+03</pdfrwt>
<pdfrwt beam="2">  1        2 0.15909755E+00 0.25819199E+03</pdfrwt>
<totfact> 0.13470130E+03</totfact>
</mgrwt>
</event>
<event>
 5    0  0.3040647E+000  0.2539365E+03  0.7546771E-02  0.1110842E+00
          1   -1    0    0  502    0 -0.00000000000E+00  0.00000000000E+00  0.13845020383E+04  0.13845020383E+04  0.00000000000E+00 0. -1.
         21   -1    0    0  503  502  0.00000000000E+00 -0.00000000000E+00 -0.11335897859E+03  0.11335897859E+03  0.00000000000E+00 0. -1.
         25    1    1    2    0    0  0.20961875731E+03  0.23756441326E+01  0.60004504966E+03  0.64778447706E+03  0.12500000000E+03 0.  0.
         21    1    1    2  503  501  0.19136386345E+02  0.17322239506E+02 -0.69798859412E+02  0.74418694151E+02  0.00000000000E+00 0. -1.
          1    1    1    2  501    0 -0.22875514366E+03 -0.19697883639E+02  0.74089686951E+03  0.77565784571E+03  0.00000000000E+00 0. -1.
<mgrwt>
<rscale>  4 0.25393655E+03</rscale>
<asrwt>0</asrwt>
<pdfrwt beam="1">  1       21 0.17439844E-01 0.25393655E+03</pdfrwt>
<pdfrwt beam="2">  1        1 0.21300030E+00 0.25393655E+03</pdfrwt>
<totfact> 0.28087339E+03</totfact>
</mgrwt>
</event>
<event>
 5    0  0.3040647E+000  0.2177346E+03  0.7546771E-02  0.1135583E+00
         21   -1    0    0  501  502  0.00000000000E+00  0.00000000000E+00  0.43594110614E+03  0.43594110614E+03  0.00000000000E+00 0. -1.
         -4   -1    0    0    0  501 -0.00000000000E+00 -0.00000000000E+00 -0.17635717354E+03  0.17635717354E+03  0.00000000000E+00 0. -1.
         25    1    1    2    0    0 -0.12023440401E+03  0.17055608114E+03  0.23251306218E+03  0.33650113344E+03  0.12500000000E+03 0.  0.
         21    1    1    2  503  502  0.10863513744E+03 -0.10978129585E+03  0.97035654844E+02  0.18239913463E+03  0.00000000000E+00 0. -1.
         -4    1    1    2    0  503  0.11599266572E+02 -0.60774785296E+02 -0.69964784421E+02  0.93398011606E+02  0.00000000000E+00 0. -1.
<mgrwt>
<rscale>  4 0.21773465E+03</rscale>
<asrwt>0</asrwt>
<pdfrwt beam="1">  1       21 0.67067862E-01 0.21773465E+03</pdfrwt>
<pdfrwt beam="2">  1       -4 0.27131873E-01 0.21773465E+03</pdfrwt>
<totfact> 0.11000182E+03</totfact>
</mgrwt>
</event>
<event>
 5    0  0.3040647E+000  0.2493243E+03  0.7546771E-02  0.1113733E+00
         -2   -1    0    0    0  501 -0.00000000000E+00  0.00000000000E+00  0.16302913196E+03  0.16302913196E+03  0.00000000000E+00 0.  1.
         21   -1    0    0  501  502  0.00000000000E+00 -0.00000000000E+00 -0.14559447628E+04  0.14559447628E+04  0.00000000000E+00 0.  1.
         25    1    1    2    0    0 -0.86949725769E+02 -0.24120302933E+03 -0.12331393518E+03  0.31075791668E+03  0.12500000000E+03 0.  0.
         21    1    1    2  503  502  0.10348142554E+03  0.18507857823E+03 -0.12154973728E+04  0.12338542656E+04  0.00000000000E+00 0.  1.
         -2    1    1    2    0  503 -0.16531699768E+02  0.56124451094E+02  0.45895677103E+02  0.74361712491E+02  0.00000000000E+00 0.  1.
<mgrwt>
<rscale>  4 0.24932429E+03</rscale>
<asrwt>0</asrwt>
<pdfrwt beam="1">  1       21 0.22399149E+00 0.24932429E+03</pdfrwt>
<pdfrwt beam="2">  1       -2 0.25081406E-01 0.24932429E+03</pdfrwt>
<totfact> 0.10280468E+02</totfact>
</mgrwt>
</event>
<event>
 5    0  0.3040647E+000  0.2862034E+03  0.7546771E-02  0.1092348E+00
          2   -1    0    0  502    0 -0.00000000000E+00  0.00000000000E+00  0.76214792871E+03  0.76214792871E+03  0.00000000000E+00 0. -1.
         21   -1    0    0  503  502  0.00000000000E+00 -0.00000000000E+00 -0.62020046016E+03  0.62020046016E+03  0.00000000000E+00 0. -1.
         25    1    1    2    0    0 -0.11889488961E+02  0.25425282850E+03 -0.42568903398E+03  0.51148999443E+03  0.12500000000E+03 0.  0.
         21    1    1    2  503  501  0.31299503729E+02  0.27125992704E+01 -0.12654592168E+03  0.13038745117E+03  0.00000000000E+00 0.  1.
          2    1    1    2  501    0 -0.19410014768E+02 -0.25696542777E+03  0.69418242422E+03  0.74047094327E+03  0.00000000000E+00 0. -1.
<mgrwt>
<rscale>  4 0.28620336E+03</rscale>
<asrwt>0</asrwt>
<pdfrwt beam="1">  1       21 0.95415456E-01 0.28620336E+03</pdfrwt>
<pdfrwt beam="2">  1        2 0.11725353E+00 0.28620336E+03</pdfrwt>
<totfact> 0.41431266E+02</totfact>
</mgrwt>
</event>
<event>
 5    0  0.3040647E+000  0.2479161E+03  0.7546771E-02  0.1114629E+00
          2   -1    0    0  502    0 -0.00000000000E+00  0.00000000000E+00  0.33272284485E+03  0.33272284485E+03  0.00000000000E+00 0. -1.
         21   -1    0    0  503  502  0.00000000000E+00 -0.00000000000E+00 -0.17156576313E+03  0.17156576313E+03  0.00000000000E+00 0. -1.
         25    1    1    2    0    0 -0.78487925291E+02 -0.19919093226E+03  0.10276449650E+03  0.26837086961E+03  0.12500000000E+03 0.  0.
         21    1    1    2  503  501  0.75261568735E+01  0.54002103524E+02  0.50189682055E+02  0.74107181886E+02  0.00000000000E+00 0.  1.
          2    1    1    2  501    0  0.70961768417E+02  0.14518882874E+03  0.82029031672E+01  0.16181055648E+03  0.00000000000E+00 0. -1.
<mgrwt>
<rscale>  4 0.24791608E+03</rscale>
<asrwt>0</asrwt>
<pdfrwt beam="1">  1       21 0.26394733E-01 0.24791608E+03</pdfrwt>
<pdfrwt beam="2">  1        2 0.51188130E-01 0.24791608E+03</pdfrwt>
<totfact> 0.16425527E+04</totfact>
</mgrwt>
</event>
<event>
 5    0  0.3040647E+000  0.2627911E+03  0.7546771E-02  0.1105478E+00
         21   -1    0    0  501  502  0.00000000000E+00  0.00000000000E+00  0.13739926157E+03  0.13739926157E+03  0.00000000000E+00 0.  1.
         -2   -1    0    0    0  501 -0.00000000000E+00 -0.00000000000E+00 -0.76711134626E+03  0.76711134626E+03  0.00000000000E+00 0.  1.
         25    1    1    2    0    0  0.15413338510E+03 -0.16791916422E+03 -0.27995274597E+03  0.38203728364E+03  0.12500000000E+03 0.  0.
         21    1    1    2  503  502 -0.12653872498E+02 -0.17852706904E+02  0.52763718247E+02  0.57121358494E+02  0.00000000000E+00 0.  1.
         -2    1    1    2    0  503 -0.14147951260E+03  0.18577187112E+03 -0.40252305697E+03  0.46535196570E+03  0.00000000000E+00 0.  1.
<mgrwt>
<rscale>  4 0.26279114E+03</rscale>
<asrwt>0</asrwt>
<pdfrwt beam="1">  1       21 0.21138348E-01 0.26279114E+03</pdfrwt>
<pdfrwt beam="2">  1       -2 0.11801713E+00 0.26279114E+03</pdfrwt>
<totfact> 0.97275387E+02</totfact>
</mgrwt>
</event>
<event>
 5    0  0.3040647E+000  0.4198318E+03  0.7546771E-02  0.1037121E+00
          3   -1    0    0  502    0 -0.00000000000E+00  0.00000000000E+00  0.62475791537E+03  0.62475791537E+03  0.00000000000E+00 0.  1.
         21   -1    0    0  503  502  0.00000000000E+00 -0.00000000000E+00 -0.48503947789E+03  0.48503947789E+03  0.00000000000E+00 0.  1.
         25    1    1    2    0    0 -0.39073020585E+03 -0.96743903469E+02  0.21978226358E+02  0.42206340644E+03  0.12500000000E+03 0.  0.
         21    1    1    2  503  501 -0.70679973565E+01  0.47229200321E+02 -0.18138297266E+03  0.18756422026E+03  0.00000000000E+00 0.  1.
          3    1    1    2  501    0  0.39779820321E+03  0.49514703148E+02  0.29912318379E+03  0.50016976656E+03  0.00000000000E+00 0.  1.
<mgrwt>
<rscale>  4 0.41983182E+03</rscale>
<asrwt>0</asrwt>
<pdfrwt beam="1">  1       21 0.74621458E-01 0.41983182E+03</pdfrwt>
<pdfrwt beam="2">  1        3 0.96116602E-01 0.41983182E+03</pdfrwt>
<totfact> 0.73892229E+01</totfact>
</mgrwt>
</event>
<event>
 5    0  0.3040647E+000  0.3335473E+03  0.7546771E-02  0.1069578E+00
          2   -1    0    0  502    0 -0.00000000000E+00  0.00000000000E+00  0.12735568109E+04  0.12735568109E+04  0.00000000000E+00 0. -1.
         21   -1    0    0  503  502  0.00000000000E+00 -0.00000000000E+00 -0.27368111175E+03  0.27368111175E+03  0.00000000000E+00 0.  1.
         25    1    1    2    0    0 -0.28417795700E+03  0.80873092413E+02  0.34603248793E+03  0.47186973947E+03  0.12500000000E+03 0.  0.
         21    1    1    2  503  501 -0.19428324086E+02  0.51121756923E+01 -0.18139882907E+03  0.18250788833E+03  0.00000000000E+00 0.  1.
          2    1    1    2  501    0  0.30360628109E+03 -0.85985268105E+02  0.83524204031E+03  0.89286029487E+03  0.00000000000E+00 0. -1.
<mgrwt>
<rscale>  4 0.33354728E+03</rscale>
<asrwt>0</asrwt>
<pdfrwt beam="1">  1       21 0.42104787E-01 0.33354728E+03</pdfrwt>
<pdfrwt beam="2">  1        2 0.19593181E+00 0.33354728E+03</pdfrwt>
<totfact> 0.11822946E+03</totfact>
</mgrwt>
</event>
<event>
 5    0  0.3040647E+000  0.3853817E+03  0.7546771E-02  0.1048962E+00
         21   -1    0    0  503  502  0.00000000000E+00  0.00000000000E+00  0.94371704875E+02  0.94371704875E+02  0.00000000000E+00 0. -1.
          2   -1    0    0  502    0 -0.00000000000E+00 -0.00000000000E+00 -0.25289379078E+04  0.25289379078E+04  0.00000000000E+00 0. -1.
         25    1    1    2    0    0 -0.15237919343E+03  0.35073966283E+03 -0.61068974188E+03  0.73130341891E+03  0.12500000000E+03 0.  0.
         21    1    1    2  503  501 -0.41745611877E+02 -0.47215344657E+02 -0.46092092149E+02  0.78079868345E+02  0.00000000000E+00 0. -1.
          2    1    1    2  501    0  0.19412480530E+03 -0.30352431818E+03 -0.17777843689E+04  0.18139263254E+04  0.00000000000E+00 0. -1.
<mgrwt>
<rscale>  4 0.38538175E+03</rscale>
<asrwt>0</asrwt>
<pdfrwt beam="1">  1       21 0.14518726E-01 0.38538175E+03</pdfrwt>
<pdfrwt beam="2">  1        2 0.38906732E+00 0.38538175E+03</pdfrwt>
<totfact> 0.19232672E+03</totfact>
</mgrwt>
</event>
<event>
 5    0  0.3040647E+000  0.3000534E+03  0.7546771E-02  0.1085214E+00
         -3   -1    0    0    0  501 -0.00000000000E+00  0.00000000000E+00  0.62100230303E+03  0.62100230303E+03  0.00000000000E+00 0.  1.
         21   -1    0    0  501  502  0.00000000000E+00 -0.00000000000E+00 -0.54586714816E+03  0.54586714816E+03  0.00000000000E+00 0.  1.
         25    1    1    2    0    0 -0.21171089519E+03 -0.13269541679E+03 -0.14103541906E+03  0.31296256359E+03  0.12500000000E+03 0.  0.
         21    1    1    2  503  502 -0.62765932129E+02  0.82402830723E+02 -0.27230731053E+03  0.29134354312E+03  0.00000000000E+00 0.  1.
         -3    1    1    2    0  503  0.27447682732E+03  0.50292586067E+02  0.48847788446E+03  0.56256334448E+03  0.00000000000E+00 0.  1.
<mgrwt>
<rscale>  4 0.30005340E+03</rscale>
<asrwt>0</asrwt>
<pdfrwt beam="1">  1       21 0.83979561E-01 0.30005340E+03</pdfrwt>
<pdfrwt beam="2">  1       -3 0.95538816E-01 0.30005340E+03</pdfrwt>
<totfact> 0.58760947E+01</totfact>
</mgrwt>
</event>
<event>
 5    0  0.3040647E+000  0.2113241E+03  0.7546771E-02  0.1140522E+00
         21   -1    0    0  503  502  0.00000000000E+00  0.00000000000E+00  0.55656639294E+02  0.55656639294E+02  0.00000000000E+00 0.  1.
          1   -1    0    0  502    0 -0.00000000000E+00 -0.00000000000E+00 -0.26079342164E+04  0.26079342164E+04  0.00000000000E+00 0.  1.
         25    1    1    2    0    0 -0.20535394682E+03  0.99822093423E+02 -0.50391753103E+03  0.56717948825E+03  0.12500000000E+03 0.  0.
         21    1    1    2  503  501  0.55829404200E+02 -0.31760863633E+02 -0.29162750104E+02  0.70541766534E+02  0.00000000000E+00 0.  1.
          1    1    1    2  501    0  0.14952454262E+03 -0.68061229790E+02 -0.20191972960E+04  0.20258696009E+04  0.00000000000E+00 0.  1.
<mgrwt>
<rscale>  4 0.21132409E+03</rscale>
<asrwt>0</asrwt>
<pdfrwt beam="1">  1       21 0.85625596E-02 0.21132409E+03</pdfrwt>
<pdfrwt beam="2">  1        1 0.40122066E+00 0.21132409E+03</pdfrwt>
<totfact> 0.16349528E+03</totfact>
</mgrwt>
</event>
<event>
 5    0  0.3040647E+000  0.2437525E+03  0.7546771E-02  0.1117318E+00
          1   -1    0    0  502    0 -0.00000000000E+00  0.00000000000E+00  0.46491085296E+03  0.46491085296E+03  0.00000000000E+00 0. -1.
         21   -1    0    0  503  502  0.00000000000E+00 -0.00000000000E+00 -0.17822643208E+03  0.17822643208E+03  0.00000000000E+00 0.  1.
         25    1    1    2    0    0 -0.18121207892E+03 -0.11285039523E+03 -0.63352398683E+01  0.24746346097E+03  0.12500000000E+03 0.  0.
         21    1    1    2  503  501  0.44305377556E+02 -0.40683674752E+02  0.63836554910E+02  0.87711080340E+02  0.00000000000E+00 0.  1.
          1    1    1    2  501    0  0.13690670137E+03  0.15353406998E+03  0.22918310584E+03  0.30796274373E+03  0.00000000000E+00 0. -1.
<mgrwt>
<rscale>  4 0.24375253E+03</rscale>
<asrwt>0</asrwt>
<pdfrwt beam="1">  1       21 0.27419451E-01 0.24375253E+03</pdfrwt>
<pdfrwt beam="2">  1        1 0.71524746E-01 0.24375253E+03</pdfrwt>
<totfact> 0.68741451E+03</totfact>
</mgrwt>
</event>
<event>
 5    0  0.3040647E+000  0.1773342E+03  0.7546771E-02  0.1170408E+00
          2   -1    0    0  502    0 -0.00000000000E+00  0.00000000000E+00  0.10432449536E+04  0.10432449536E+04  0.00000000000E+00 0. -1.
         21   -1    0    0  503  502  0.00000000000E+00 -0.00000000000E+00 -0.64072979229E+02  0.64072979229E+02  0.00000000000E+00 0. -1.
         25    1    1    2    0    0  0.19793467059E+03  0.49405046003E+02  0.70345141823E+03  0.74302617061E+03  0.12500000000E+03 0.  0.
         21    1    1    2  503  501 -0.99651697895E+02 -0.58996769971E+02  0.68004095555E+02  0.13429682339E+03  0.00000000000E+00 0. -1.
          2    1    1    2  501    0 -0.98282972691E+02  0.95917239685E+01  0.20771646054E+03  0.22999493879E+03  0.00000000000E+00 0. -1.
<mgrwt>
<rscale>  4 0.17733425E+03</rscale>
<asrwt>0</asrwt>
<pdfrwt beam="1">  1       21 0.98573822E-02 0.17733425E+03</pdfrwt>
<pdfrwt beam="2">  1        2 0.16049921E+00 0.17733425E+03</pdfrwt>
<totfact> 0.26252419E+04</totfact>
</mgrwt>
</event>
<event>
 5    0  0.3040647E+000  0.2556851E+03  0.7546771E-02  0.1109764E+00
         21   -1    0    0  503  502  0.00000000000E+00  0.00000000000E+00  0.19213082446E+03  0.19213082446E+03  0.00000000000E+00 0. -1.
          2   -1    0    0  502    0 -0.00000000000E+00 -0.00000000000E+00 -0.90947994771E+03  0.90947994771E+03  0.00000000000E+00 0.  1.
         25    1    1    2    0    0 -0.20745808140E+03 -0.32330894864E+01 -0.35261266120E+03  0.42779667746E+03  0.12500000000E+03 0.  0.
         21    1    1    2  503  501 -0.26412241226E+02 -0.47535046963E+01  0.12669852425E+03  0.12950952992E+03  0.00000000000E+00 0. -1.
          2    1    1    2  501    0  0.23387032262E+03  0.79865941827E+01 -0.49143498630E+03  0.54430456479E+03  0.00000000000E+00 0.  1.
<mgrwt>
<rscale>  4 0.25568515E+03</rscale>
<asrwt>0</asrwt>
<pdfrwt beam="1">  1       21 0.29558588E-01 0.25568515E+03</pdfrwt>
<pdfrwt beam="2">  1        2 0.13991999E+00 0.25568515E+03</pdfrwt>
<totfact> 0.40730809E+03</totfact>
</mgrwt>
</event>
<event>
 5    0  0.3040647E+000  0.4396608E+03  0.7546771E-02  0.1030851E+00
         21   -1    0    0  503  502  0.00000000000E+00  0.00000000000E+00  0.17081394603E+03  0.17081394603E+03  0.00000000000E+00 0. -1.
          2   -1    0    0  502    0 -0.00000000000E+00 -0.00000000000E+00 -0.18927792675E+04  0.18927792675E+04  0.00000000000E+00 0. -1.
         25    1    1    2    0    0 -0.26617083706E+03  0.37962371757E+03 -0.78269589184E+03  0.91825864577E+03  0.12500000000E+03 0.  0.
         21    1    1    2  503  501  0.29886717569E+03 -0.27240305713E+03 -0.31911419015E+03  0.51512996476E+03  0.00000000000E+00 0. -1.
          2    1    1    2  501    0 -0.32696338630E+02 -0.10722066044E+03 -0.62015523946E+03  0.63020460298E+03  0.00000000000E+00 0. -1.
<mgrwt>
<rscale>  4 0.43966080E+03</rscale>
<asrwt>0</asrwt>
<pdfrwt beam="1">  1       21 0.26279068E-01 0.43966080E+03</pdfrwt>
<pdfrwt beam="2">  1        2 0.29119682E+00 0.43966080E+03</pdfrwt>
<totfact> 0.13586711E+03</totfact>
</mgrwt>
</event>
<event>
 5    0  0.3040647E+000  0.3086478E+03  0.7546771E-02  0.1080996E+00
         21   -1    0    0  501  502  0.00000000000E+00  0.00000000000E+00  0.23689262912E+03  0.23689262912E+03  0.00000000000E+00 0.  1.
         -2   -1    0    0    0  501 -0.00000000000E+00 -0.00000000000E+00 -0.15005396051E+04  0.15005396051E+04  0.00000000000E+00 0. -1.
         25    1    1    2    0    0  0.17985311361E+03  0.34481510192E+03 -0.41534357416E+02  0.41060284928E+03  0.12500000000E+03 0.  0.
         21    1    1    2  503  502 -0.13652097126E+03 -0.74260532159E+02 -0.13544838761E+03  0.20615253560E+03  0.00000000000E+00 0.  1.
         -2    1    1    2    0  503 -0.43332142346E+02 -0.27055456976E+03 -0.10866642309E+04  0.11206768493E+04  0.00000000000E+00 0. -1.
<mgrwt>
<rscale>  4 0.30864784E+03</rscale>
<asrwt>0</asrwt>
<pdfrwt beam="1">  1       21 0.36445019E-01 0.30864784E+03</pdfrwt>
<pdfrwt beam="2">  1       -2 0.23085225E+00 0.30864784E+03</pdfrwt>
<totfact> 0.53174305E+01</totfact>
</mgrwt>
</event>
<event>
 5    0  0.3040647E+000  0.2273749E+03  0.7546771E-02  0.1128501E+00
         -2   -1    0    0    0  501 -0.00000000000E+00  0.00000000000E+00  0.39752873200E+03  0.39752873200E+03  0.00000000000E+00 0.  1.
         21   -1    0    0  501  502  0.00000000000E+00 -0.00000000000E+00 -0.22180730087E+03  0.22180730087E+03  0.00000000000E+00 0.  1.
         25    1    1    2    0    0 -0.15493264450E+03  0.14607881093E+03 -0.69075828431E+02  0.25639737403E+03  0.12500000000E+03 0.  0.
         21    1    1    2  503  502  0.99642191749E+02 -0.12724126923E+03  0.65527026434E+02  0.17439236842E+03  0.00000000000E+00 0.  1.
         -2    1    1    2    0  503  0.55290452753E+02 -0.18837541704E+02  0.17927023312E+03  0.18854629041E+03  0.00000000000E+00 0.  1.
<mgrwt>
<rscale>  4 0.22737488E+03</rscale>
<asrwt>0</asrwt>
<pdfrwt beam="1">  1       21 0.34124200E-01 0.22737488E+03</pdfrwt>
<pdfrwt beam="2">  1       -2 0.61158267E-01 0.22737488E+03</pdfrwt>
<totfact> 0.16956958E+03</totfact>
</mgrwt>
</event>
<event>
 5    0  0.3040647E+000  0.2317040E+03  0.7546771E-02  0.1125446E+00
         21   -1    0    0  503  502  0.00000000000E+00  0.00000000000E+00  0.42811865764E+02  0.42811865764E+02  0.00000000000E+00 0.  1.
          2   -1    0    0  502    0 -0.00000000000E+00 -0.00000000000E+00 -0.18875039249E+04  0.18875039249E+04  0.00000000000E+00 0.  1.
         25    1    1    2    0    0 -0.19819457067E+03 -0.11486819805E+03 -0.12158988966E+04  0.12435879211E+04  0.12500000000E+03 0.  0.
         21    1    1    2  503  501  0.83684563262E+02 -0.76125902695E+01 -0.93133508938E+02  0.12543886218E+03  0.00000000000E+00 0.  1.
          2    1    1    2  501    0  0.11451000741E+03  0.12248078832E+03 -0.53565965358E+03  0.56128900736E+03  0.00000000000E+00 0.  1.
<mgrwt>
<rscale>  4 0.23170405E+03</rscale>
<asrwt>0</asrwt>
<pdfrwt beam="1">  1       21 0.65864414E-02 0.23170405E+03</pdfrwt>
<pdfrwt beam="2">  1        2 0.29038520E+00 0.23170405E+03</pdfrwt>
<totfact> 0.18282218E+04</totfact>
</mgrwt>
</event>
<event>
 5    0  0.3040647E+000  0.3072096E+03  0.7546771E-02  0.1081691E+00
          2   -1    0    0  502    0 -0.00000000000E+00  0.00000000000E+00  0.30283154538E+04  0.30283154538E+04  0.00000000000E+00 0.  1.
         21   -1    0    0  503  502  0.00000000000E+00 -0.00000000000E+00 -0.53013123182E+02  0.53013123182E+02  0.00000000000E+00 0.  1.
         25    1    1    2    0    0 -0.15293945859E+03 -0.23410672381E+03  0.77245493163E+03  0.83096814471E+03  0.12500000000E+03 0.  0.
         21    1    1    2  503  501 -0.31068308267E+02  0.21043261906E+02  0.90851738760E+01  0.38608276763E+02  0.00000000000E+00 0.  1.
          2    1    1    2  501    0  0.18400776685E+03  0.21306346190E+03  0.21937622251E+04  0.22117521555E+04  0.00000000000E+00 0.  1.
<mgrwt>
<rscale>  4 0.30720962E+03</rscale>
<asrwt>0</asrwt>
<pdfrwt beam="1">  1       21 0.81558674E-02 0.30720962E+03</pdfrwt>
<pdfrwt beam="2">  1        2 0.46589455E+00 0.30720962E+03</pdfrwt>
<totfact> 0.28857332E+03</totfact>
</mgrwt>
</event>
<event>
 5    0  0.3040647E+000  0.2133575E+03  0.7546771E-02  0.1138934E+00
         21   -1    0    0  503  502  0.00000000000E+00  0.00000000000E+00  0.32130238571E+02  0.32130238571E+02  0.00000000000E+00 0. -1.
          2   -1    0    0  502    0 -0.00000000000E+00 -0.00000000000E+00 -0.20448208481E+04  0.20448208481E+04  0.00000000000E+00 0. -1.
         25    1    1    2    0    0 -0.18966750791E+03  0.68743841177E+02 -0.71852749689E+03  0.75670750164E+03  0.12500000000E+03 0.  0.
         21    1    1    2  503  501  0.31720071120E+02 -0.21618548979E+02 -0.40537016686E+02  0.55828078004E+02  0.00000000000E+00 0.  1.
          2    1    1    2  501    0  0.15794743679E+03 -0.47125292199E+02 -0.12536260960E+04  0.12644155070E+04  0.00000000000E+00 0. -1.
<mgrwt>
<rscale>  4 0.21335745E+03</rscale>
<asrwt>0</asrwt>
<pdfrwt beam="1">  1       21 0.49431147E-02 0.21335745E+03</pdfrwt>
<pdfrwt beam="2">  1        2 0.31458776E+00 0.21335745E+03</pdfrwt>
<totfact> 0.24879541E+04</totfact>
</mgrwt>
</event>
<event>
 5    0  0.3040647E+000  0.2655364E+03  0.7546771E-02  0.1103862E+00
          2   -1    0    0  502    0 -0.00000000000E+00  0.00000000000E+00  0.11632343711E+04  0.11632343711E+04  0.00000000000E+00 0. -1.
         21   -1    0    0  503  502  0.00000000000E+00 -0.00000000000E+00 -0.96163487584E+02  0.96163487584E+02  0.00000000000E+00 0.  1.
         25    1    1    2    0    0  0.23186430803E+03  0.37287265192E+02  0.18683810866E+03  0.32509210438E+03  0.12500000000E+03 0.  0.
         21    1    1    2  503  501  0.22784091473E+01 -0.26031170298E+02  0.30107621738E+01  0.26303567519E+02  0.00000000000E+00 0.  1.
          2    1    1    2  501    0 -0.23414271717E+03 -0.11256094894E+02  0.87722201273E+03  0.90800218684E+03  0.00000000000E+00 0. -1.
<mgrwt>
<rscale>  4 0.26553640E+03</rscale>
<asrwt>0</asrwt>
<pdfrwt beam="1">  1       21 0.14794384E-01 0.26553640E+03</pdfrwt>
<pdfrwt beam="2">  1        2 0.17895912E+00 0.26553640E+03</pdfrwt>
<totfact> 0.10552350E+04</totfact>
</mgrwt>
</event>
<event>
 5    0  0.3040647E+000  0.2965237E+03  0.7546771E-02  0.1086991E+00
         21   -1    0    0  503  502  0.00000000000E+00  0.00000000000E+00  0.17634326792E+03  0.17634326792E+03  0.00000000000E+00 0.  1.
          2   -1    0    0  502    0 -0.00000000000E+00 -0.00000000000E+00 -0.70965102248E+03  0.70965102248E+03  0.00000000000E+00 0. -1.
         25    1    1    2    0    0  0.79879267526E+02  0.22283273620E+03 -0.37872250192E+02  0.27035982142E+03  0.12500000000E+03 0.  0.
         21    1    1    2  503  501  0.14974334711E+02  0.39457620454E+02  0.52243728688E+01  0.42525622674E+02  0.00000000000E+00 0.  1.
          2    1    1    2  501    0 -0.94853602237E+02 -0.26229035665E+03 -0.50065987723E+03  0.57310884631E+03  0.00000000000E+00 0. -1.
<mgrwt>
<rscale>  4 0.29652371E+03</rscale>
<asrwt>0</asrwt>
<pdfrwt beam="1">  1       21 0.27129733E-01 0.29652371E+03</pdfrwt>
<pdfrwt beam="2">  1        2 0.10917708E+00 0.29652371E+03</pdfrwt>
<totfact> 0.65499755E+03</totfact>
</mgrwt>
</event>
<event>
 5    0  0.3040647E+000  0.2132701E+03  0.7546771E-02  0.1139002E+00
          2   -1    0    0  502    0 -0.00000000000E+00  0.00000000000E+00  0.59072526183E+03  0.59072526183E+03  0.00000000000E+00 0.  1.
         21   -1    0    0  503  502  0.00000000000E+00 -0.00000000000E+00 -0.14510734744E+03  0.14510734744E+03  0.00000000000E+00 0.  1.
         25    1    1    2    0    0  0.20550100049E+03  0.89609287483E+02  0.11310946713E+03  0.28049819457E+03  0.12500000000E+03 0.  0.
         21    1    1    2  503  501 -0.54777011482E+02 -0.30277711280E+02 -0.21378012766E+02  0.66138341505E+02  0.00000000000E+00 0.  1.
          2    1    1    2  501    0 -0.15072398901E+03 -0.59331576203E+02  0.35388646003E+03  0.38919607319E+03  0.00000000000E+00 0.  1.
<mgrwt>
<rscale>  4 0.21327006E+03</rscale>
<asrwt>0</asrwt>
<pdfrwt beam="1">  1       21 0.22324208E-01 0.21327006E+03</pdfrwt>
<pdfrwt beam="2">  1        2 0.90880808E-01 0.21327006E+03</pdfrwt>
<totfact> 0.12066825E+04</totfact>
</mgrwt>
</event>
<event>
 5    0  0.3040647E+000  0.2332349E+03  0.7546771E-02  0.1124383E+00
          4   -1    0    0  502    0 -0.00000000000E+00  0.00000000000E+00  0.91310560748E+03  0.91310560748E+03  0.00000000000E+00 0.  1.
         21   -1    0    0  503  502  0.00000000000E+00 -0.00000000000E+00 -0.45561629912E+03  0.45561629912E+03  0.00000000000E+00 0. -1.
         25    1    1    2    0    0 -0.24664495533E+03  0.35782167780E+02  0.46254461060E+03  0.54008019249E+03  0.12500000000E+03 0.  0.
         21    1    1    2  503  501  0.19349863949E+03 -0.20090447319E+02 -0.39206967503E+03  0.43768022532E+03  0.00000000000E+00 0. -1.
          4    1    1    2  501    0  0.53146315845E+02 -0.15691720461E+02  0.38701437279E+03  0.39096148880E+03  0.00000000000E+00 0.  1.
<mgrwt>
<rscale>  4 0.23323491E+03</rscale>
<asrwt>0</asrwt>
<pdfrwt beam="1">  1       21 0.70094815E-01 0.23323491E+03</pdfrwt>
<pdfrwt beam="2">  1        4 0.14047779E+00 0.23323491E+03</pdfrwt>
<totfact> 0.28714325E+01</totfact>
</mgrwt>
</event>
<event>
 5    0  0.3040647E+000  0.2176419E+03  0.7546771E-02  0.1135653E+00
         21   -1    0    0  501  502  0.00000000000E+00  0.00000000000E+00  0.18564999880E+03  0.18564999880E+03  0.00000000000E+00 0.  1.
         -4   -1    0    0    0  501 -0.00000000000E+00 -0.00000000000E+00 -0.43806472942E+03  0.43806472942E+03  0.00000000000E+00 0.  1.
         25    1    1    2    0    0 -0.84576720788E+02  0.18943427304E+03 -0.26832872506E+03  0.36147457753E+03  0.12500000000E+03 0.  0.
         21    1    1    2  503  502  0.47732065498E+02 -0.16087528799E+03 -0.55682945626E+02  0.17680440831E+03  0.00000000000E+00 0.  1.
         -4    1    1    2    0  503  0.36844655290E+02 -0.28558985053E+02  0.71596940070E+02  0.85435742392E+02  0.00000000000E+00 0.  1.
<mgrwt>
<rscale>  4 0.21764186E+03</rscale>
<asrwt>0</asrwt>
<pdfrwt beam="1">  1       21 0.28561539E-01 0.21764186E+03</pdfrwt>
<pdfrwt beam="2">  1       -4 0.67394573E-01 0.21764186E+03</pdfrwt>
<totfact> 0.10208121E+03</totfact>
</mgrwt>
</event>
<event>
 5    0  0.3040647E+000  0.2710782E+03  0.7546771E-02  0.1100664E+00
          2   -1    0    0  502    0 -0.00000000000E+00  0.00000000000E+00  0.17415587872E+04  0.17415587872E+04  0.00000000000E+00 0.  1.
         21   -1    0    0  503  502  0.00000000000E+00 -0.00000000000E+00 -0.69627810461E+02  0.69627810461E+02  0.00000000000E+00 0.  1.
         25    1    1    2    0    0 -0.16093214074E+03  0.18783113193E+03  0.10248427901E+04  0.10616531602E+04  0.12500000000E+03 0.  0.
         21    1    1    2  503  501  0.23934291332E+02  0.14735477234E+01 -0.26988271281E+02  0.36102471262E+02  0.00000000000E+00 0. -1.
          2    1    1    2  501    0  0.13699784941E+03 -0.18930467965E+03  0.67407645796E+03  0.71343096629E+03  0.00000000000E+00 0.  1.
<mgrwt>
<rscale>  4 0.27107821E+03</rscale>
<asrwt>0</asrwt>
<pdfrwt beam="1">  1       21 0.10711972E-01 0.27107821E+03</pdfrwt>
<pdfrwt beam="2">  1        2 0.26793209E+00 0.27107821E+03</pdfrwt>
<totfact> 0.91656959E+03</totfact>
</mgrwt>
</event>
<event>
 5    0  0.3040647E+000  0.3900147E+03  0.7546771E-02  0.1047293E+00
         -1   -1    0    0    0  501 -0.00000000000E+00  0.00000000000E+00  0.39439020491E+03  0.39439020491E+03  0.00000000000E+00 0.  1.
         21   -1    0    0  501  502  0.00000000000E+00 -0.00000000000E+00 -0.12775499774E+04  0.12775499774E+04  0.00000000000E+00 0.  1.
         25    1    1    2    0    0  0.16651280621E+03 -0.44207418620E+03 -0.19012636006E+03  0.52433685120E+03  0.12500000000E+03 0.  0.
         21    1    1    2  503  502 -0.25601358371E+02  0.13981540719E+03 -0.78810890532E+03  0.80082421559E+03  0.00000000000E+00 0.  1.
         -1    1    1    2    0  503 -0.14091144784E+03  0.30225877901E+03  0.95075492873E+02  0.34677911553E+03  0.00000000000E+00 0.  1.
<mgrwt>
<rscale>  4 0.39001469E+03</rscale>
<asrwt>0</asrwt>
<pdfrwt beam="1">  1       21 0.19654615E+00 0.39001469E+03</pdfrwt>
<pdfrwt beam="2">  1       -1 0.60675416E-01 0.39001469E+03</pdfrwt>
<totfact> 0.32710899E+01</totfact>
</mgrwt>
</event>
<event>
 5    0  0.3040647E+000  0.3339511E+03  0.7546771E-02  0.1069402E+00
         21   -1    0    0  501  502  0.00000000000E+00  0.00000000000E+00  0.18542481865E+04  0.18542481865E+04  0.00000000000E+00 0.  1.
         -2   -1    0    0    0  501 -0.00000000000E+00 -0.00000000000E+00 -0.79518733777E+02  0.79518733777E+02  0.00000000000E+00 0. -1.
         25    1    1    2    0    0  0.27073439258E+03 -0.72510036057E+02  0.12619939551E+04  0.12987719428E+04  0.12500000000E+03 0.  0.
         21    1    1    2  503  502  0.33422575474E+02 -0.26914245209E+02  0.12560714365E+03  0.13273507330E+03  0.00000000000E+00 0.  1.
         -2    1    1    2    0  503 -0.30415696806E+03  0.99424281266E+02  0.38712835401E+03  0.50225990423E+03  0.00000000000E+00 0. -1.
<mgrwt>
<rscale>  4 0.33395108E+03</rscale>
<asrwt>0</asrwt>
<pdfrwt beam="1">  1       21 0.28526892E+00 0.33395108E+03</pdfrwt>
<pdfrwt beam="2">  1       -2 0.12233653E-01 0.33395108E+03</pdfrwt>
<totfact> 0.14108901E+02</totfact>
</mgrwt>
</event>
<event>
 5    0  0.3040647E+000  0.2385646E+03  0.7546771E-02  0.1120753E+00
          2   -1    0    0  502    0 -0.00000000000E+00  0.00000000000E+00  0.10290220446E+04  0.10290220446E+04  0.00000000000E+00 0. -1.
         21   -1    0    0  503  502  0.00000000000E+00 -0.00000000000E+00 -0.86304803525E+02  0.86304803525E+02  0.00000000000E+00 0. -1.
         25    1    1    2    0    0 -0.11838529644E+03 -0.18139721829E+03  0.57420618529E+03  0.62630485584E+03  0.12500000000E+03 0.  0.
         21    1    1    2  503  501  0.82426409224E+01  0.24060478884E+02 -0.34339282991E+02  0.42732120587E+02  0.00000000000E+00 0. -1.
          2    1    1    2  501    0  0.11014265552E+03  0.15733673941E+03  0.40285033880E+03  0.44628987172E+03  0.00000000000E+00 0. -1.
<mgrwt>
<rscale>  4 0.23856456E+03</rscale>
<asrwt>0</asrwt>
<pdfrwt beam="1">  1       21 0.13277663E-01 0.23856456E+03</pdfrwt>
<pdfrwt beam="2">  1        2 0.15831108E+00 0.23856456E+03</pdfrwt>
<totfact> 0.15516579E+04</totfact>
</mgrwt>
</event>
<event>
 5    0  0.3040647E+000  0.2219011E+03  0.7546771E-02  0.1132474E+00
         21   -1    0    0  501  502  0.00000000000E+00  0.00000000000E+00  0.17697849743E+03  0.17697849743E+03  0.00000000000E+00 0. -1.
         -1   -1    0    0    0  501 -0.00000000000E+00 -0.00000000000E+00 -0.51368134197E+03  0.51368134197E+03  0.00000000000E+00 0.  1.
         25    1    1    2    0    0 -0.15593170019E+02 -0.20440363898E+03 -0.92182690329E+01  0.24027894428E+03  0.12500000000E+03 0.  0.
         21    1    1    2  503  502 -0.25002439711E+02  0.29331790370E+02  0.30939897155E+02  0.49424216269E+02  0.00000000000E+00 0. -1.
         -1    1    1    2    0  503  0.40595609730E+02  0.17507184861E+03 -0.35842447267E+03  0.40095667885E+03  0.00000000000E+00 0.  1.
<mgrwt>
<rscale>  4 0.22190107E+03</rscale>
<asrwt>0</asrwt>
<pdfrwt beam="1">  1       21 0.27227461E-01 0.22190107E+03</pdfrwt>
<pdfrwt beam="2">  1       -1 0.79027899E-01 0.22190107E+03</pdfrwt>
<totfact> 0.19914531E+03</totfact>
</mgrwt>
</event>
<event>
 5    0  0.3040647E+000  0.7988674E+03  0.7546771E-02  0.9561658E-01
          4   -1    0    0  502    0 -0.00000000000E+00  0.00000000000E+00  0.60383786866E+03  0.60383786866E+03  0.00000000000E+00 0. -1.
         21   -1    0    0  503  502  0.00000000000E+00 -0.00000000000E+00 -0.20936151863E+04  0.20936151863E+04  0.00000000000E+00 0.  1.
         25    1    1    2    0    0 -0.70557747641E+03 -0.39008205434E+03 -0.14768168213E+04  0.16871919002E+04  0.12500000000E+03 0.  0.
         21    1    1    2  503  501  0.19284819655E+02  0.76377144012E+01 -0.20128074757E+03  0.20234667848E+03  0.00000000000E+00 0. -1.
          4    1    1    2  501    0  0.68629265675E+03  0.38244433994E+03  0.18832025131E+03  0.80791447624E+03  0.00000000000E+00 0. -1.
<mgrwt>
<rscale>  4 0.79886743E+03</rscale>
<asrwt>0</asrwt>
<pdfrwt beam="1">  1       21 0.32209464E+00 0.79886743E+03</pdfrwt>
<pdfrwt beam="2">  1        4 0.92898134E-01 0.79886743E+03</pdfrwt>
<totfact> 0.78105119E-01</totfact>
</mgrwt>
</event>
<event>
 5    0  0.3040647E+000  0.3521198E+03  0.7546771E-02  0.1061748E+00
         -2   -1    0    0    0  501 -0.00000000000E+00  0.00000000000E+00  0.15757571065E+03  0.15757571065E+03  0.00000000000E+00 0.  1.
         21   -1    0    0  501  502  0.00000000000E+00 -0.00000000000E+00 -0.99902225156E+03  0.99902225156E+03  0.00000000000E+00 0.  1.
         25    1    1    2    0    0 -0.34005377212E+03 -0.20295917272E+02 -0.64305298915E+03  0.73837025878E+03  0.12500000000E+03 0.  0.
         21    1    1    2  503  502  0.16565634982E+02 -0.13107964127E+02 -0.62134907592E+02  0.65627629299E+02  0.00000000000E+00 0.  1.
         -2    1    1    2    0  503  0.32348813714E+03  0.33403881399E+02 -0.13625864417E+03  0.35260007412E+03  0.00000000000E+00 0.  1.
<mgrwt>
<rscale>  4 0.35211982E+03</rscale>
<asrwt>0</asrwt>
<pdfrwt beam="1">  1       21 0.15369573E+00 0.35211982E+03</pdfrwt>
<pdfrwt beam="2">  1       -2 0.24242417E-01 0.35211982E+03</pdfrwt>
<totfact> 0.31265645E+02</totfact>
</mgrwt>
</event>
<event>
 5    0  0.3040647E+000  0.2344406E+03  0.7546771E-02  0.1123553E+00
         21   -1    0    0  503  502  0.00000000000E+00  0.00000000000E+00  0.11014218871E+04  0.11014218871E+04  0.00000000000E+00 0.  1.
          2   -1    0    0  502    0 -0.00000000000E+00 -0.00000000000E+00 -0.45438236393E+03  0.45438236393E+03  0.00000000000E+00 0.  1.
         25    1    1    2    0    0 -0.13453414457E+03 -0.29215001158E+03  0.42894619495E+03  0.55051875852E+03  0.12500000000E+03 0.  0.
         21    1    1    2  503  501  0.92950550483E+02  0.10408283948E+03  0.57933424658E+03  0.59590369320E+03  0.00000000000E+00 0.  1.
          2    1    1    2  501    0  0.41583594089E+02  0.18806717209E+03 -0.36124091835E+03  0.40938179931E+03  0.00000000000E+00 0.  1.
<mgrwt>
<rscale>  4 0.23444059E+03</rscale>
<asrwt>0</asrwt>
<pdfrwt beam="1">  1       21 0.16944952E+00 0.23444059E+03</pdfrwt>
<pdfrwt beam="2">  1        2 0.69904979E-01 0.23444059E+03</pdfrwt>
<totfact> 0.18057304E+02</totfact>
</mgrwt>
</event>
<event>
 5    0  0.5891486E+000  0.3244593E+03  0.7546771E-02  0.1073615E+00
          1   -1    0    0  502    0 -0.00000000000E+00  0.00000000000E+00  0.21701350922E+04  0.21701350922E+04  0.00000000000E+00 0. -1.
         21   -1    0    0  503  502  0.00000000000E+00 -0.00000000000E+00 -0.81903274872E+03  0.81903274872E+03  0.00000000000E+00 0. -1.
         25    1    1    2    0    0  0.20972315454E+03 -0.20103492514E+03 -0.75808693936E+03  0.82141320315E+03  0.12500000000E+03 0.  0.
         21    1    1    2  503  501  0.32604156399E+02  0.24912482757E+02  0.38537906816E+01  0.41213038158E+02  0.00000000000E+00 0. -1.
          1    1    1    2  501    0 -0.24232731094E+03  0.17612244239E+03  0.21053354921E+04  0.21265415996E+04  0.00000000000E+00 0. -1.
<mgrwt>
<rscale>  4 0.32445932E+03</rscale>
<asrwt>0</asrwt>
<pdfrwt beam="1">  1       21 0.12600504E+00 0.32445932E+03</pdfrwt>
<pdfrwt beam="2">  1        1 0.33386693E+00 0.32445932E+03</pdfrwt>
<totfact> 0.12379116E+01</totfact>
</mgrwt>
</event>
<event>
 5    0  0.3040647E+000  0.3741025E+03  0.7546771E-02  0.1053135E+00
         21   -1    0    0  503  502  0.00000000000E+00  0.00000000000E+00  0.24593700272E+03  0.24593700272E+03  0.00000000000E+00 0.  1.
          1   -1    0    0  502    0 -0.00000000000E+00 -0.00000000000E+00 -0.11383850757E+04  0.11383850757E+04  0.00000000000E+00 0.  1.
         25    1    1    2    0    0 -0.36618266113E+03 -0.13843568736E+03 -0.26028549983E+03  0.48644395594E+03  0.12500000000E+03 0.  0.
         21    1    1    2  503  501  0.41920100095E+02  0.37316199475E+02  0.86430069976E+02  0.10305314421E+03  0.00000000000E+00 0.  1.
          1    1    1    2  501    0  0.32426256104E+03  0.10111948789E+03 -0.71859264315E+03  0.79482497829E+03  0.00000000000E+00 0.  1.
<mgrwt>
<rscale>  4 0.37410252E+03</rscale>
<asrwt>0</asrwt>
<pdfrwt beam="1">  1       21 0.37836462E-01 0.37410252E+03</pdfrwt>
<pdfrwt beam="2">  1        1 0.17513616E+00 0.37410252E+03</pdfrwt>
<totfact> 0.88977629E+02</totfact>
</mgrwt>
</event>
<event>
 5    0  0.3040647E+000  0.3354203E+03  0.7546771E-02  0.1068763E+00
         21   -1    0    0  503  502  0.00000000000E+00  0.00000000000E+00  0.67309805268E+02  0.67309805268E+02  0.00000000000E+00 0.  1.
          1   -1    0    0  502    0 -0.00000000000E+00 -0.00000000000E+00 -0.18042639873E+04  0.18042639873E+04  0.00000000000E+00 0.  1.
         25    1    1    2    0    0 -0.70018411056E+02  0.30007827026E+03 -0.67617456869E+03  0.75351615346E+03  0.12500000000E+03 0.  0.
         21    1    1    2  503  501 -0.28626460711E+02 -0.23660726310E+01 -0.34325767210E+02  0.44758584060E+02  0.00000000000E+00 0. -1.
          1    1    1    2  501    0  0.98644871766E+02 -0.29771219763E+03 -0.10264538461E+04  0.10732990550E+04  0.00000000000E+00 0.  1.
<mgrwt>
<rscale>  4 0.33542032E+03</rscale>
<asrwt>0</asrwt>
<pdfrwt beam="1">  1       21 0.10355354E-01 0.33542032E+03</pdfrwt>
<pdfrwt beam="2">  1        1 0.27757909E+00 0.33542032E+03</pdfrwt>
<totfact> 0.37325181E+03</totfact>
</mgrwt>
</event>
<event>
 5    0  0.3040647E+000  0.1809052E+03  0.7546771E-02  0.1166930E+00
         21   -1    0    0  503  502  0.00000000000E+00  0.00000000000E+00  0.31406048139E+03  0.31406048139E+03  0.00000000000E+00 0.  1.
          1   -1    0    0  502    0 -0.00000000000E+00 -0.00000000000E+00 -0.41565203174E+03  0.41565203174E+03  0.00000000000E+00 0. -1.
         25    1    1    2    0    0 -0.19544932555E+03 -0.68155276084E+02  0.20034966242E+03  0.31402319619E+03  0.12500000000E+03 0.  0.
         21    1    1    2  503  501  0.73041924312E+02  0.34015846028E+02  0.77431743314E+01  0.80945396638E+02  0.00000000000E+00 0.  1.
          1    1    1    2  501    0  0.12240740124E+03  0.34139430056E+02 -0.30968438710E+03  0.33474392030E+03  0.00000000000E+00 0. -1.
<mgrwt>
<rscale>  4 0.18090517E+03</rscale>
<asrwt>0</asrwt>
<pdfrwt beam="1">  1       21 0.48316997E-01 0.18090517E+03</pdfrwt>
<pdfrwt beam="2">  1        1 0.63946467E-01 0.18090517E+03</pdfrwt>
<totfact> 0.26080007E+03</totfact>
</mgrwt>
</event>
<event>
 5    0  0.3040647E+000  0.2475707E+03  0.7546771E-02  0.1114850E+00
          1   -1    0    0  502    0 -0.00000000000E+00  0.00000000000E+00  0.11036327281E+04  0.11036327281E+04  0.00000000000E+00 0. -1.
         21   -1    0    0  503  502  0.00000000000E+00 -0.00000000000E+00 -0.11686781721E+03  0.11686781721E+03  0.00000000000E+00 0.  1.
         25    1    1    2    0    0  0.72343521936E+02  0.22237393627E+03  0.13108231199E+03  0.29578932573E+03  0.12500000000E+03 0.  0.
         21    1    1    2  503  501 -0.26925902032E+02 -0.16575683526E+02 -0.10454681448E+02  0.33302520156E+02  0.00000000000E+00 0. -1.
          1    1    1    2  501    0 -0.45417619903E+02 -0.20579825274E+03  0.86613728033E+03  0.89140869942E+03  0.00000000000E+00 0. -1.
<mgrwt>
<rscale>  4 0.24757073E+03</rscale>
<asrwt>0</asrwt>
<pdfrwt beam="1">  1       21 0.17979665E-01 0.24757073E+03</pdfrwt>
<pdfrwt beam="2">  1        1 0.16978964E+00 0.24757073E+03</pdfrwt>
<totfact> 0.41650826E+03</totfact>
</mgrwt>
</event>
<event>
 5    0  0.3040647E+000  0.3528004E+03  0.7546771E-02  0.1061471E+00
         21   -1    0    0  503  502  0.00000000000E+00  0.00000000000E+00  0.33211353668E+03  0.33211353668E+03  0.00000000000E+00 0. -1.
          2   -1    0    0  502    0 -0.00000000000E+00 -0.00000000000E+00 -0.22092523517E+04  0.22092523517E+04  0.00000000000E+00 0. -1.
         25    1    1    2    0    0  0.20647452240E+03 -0.25684314050E+03  0.21794553152E+03  0.41439761333E+03  0.12500000000E+03 0.  0.
         21    1    1    2  503  501  0.20323581171E+02  0.60034512632E+01 -0.53115126618E+02  0.57186589812E+02  0.00000000000E+00 0.  1.
          2    1    1    2  501    0 -0.22679810357E+03  0.25083968924E+03 -0.20419692199E+04  0.20697816852E+04  0.00000000000E+00 0. -1.
<mgrwt>
<rscale>  4 0.35280042E+03</rscale>
<asrwt>0</asrwt>
<pdfrwt beam="1">  1       21 0.51094390E-01 0.35280042E+03</pdfrwt>
<pdfrwt beam="2">  1        2 0.33988498E+00 0.35280042E+03</pdfrwt>
<totfact> 0.24574370E+02</totfact>
</mgrwt>
</event>
<event>
 5    0  0.3040647E+000  0.2197683E+03  0.7546771E-02  0.1134056E+00
         21   -1    0    0  503  502  0.00000000000E+00  0.00000000000E+00  0.27468881971E+03  0.27468881971E+03  0.00000000000E+00 0. -1.
          2   -1    0    0  502    0 -0.00000000000E+00 -0.00000000000E+00 -0.87006044585E+03  0.87006044585E+03  0.00000000000E+00 0. -1.
         25    1    1    2    0    0  0.15823752411E+02 -0.20946300607E+03  0.38285884446E+02  0.24741857449E+03  0.12500000000E+03 0.  0.
         21    1    1    2  503  501  0.77903599525E+02  0.55628954161E+02  0.10203248712E+03  0.13990775456E+03  0.00000000000E+00 0. -1.
          2    1    1    2  501    0 -0.93727351936E+02  0.15383405191E+03 -0.73568999770E+03  0.75742293650E+03  0.00000000000E+00 0. -1.
<mgrwt>
<rscale>  4 0.21976826E+03</rscale>
<asrwt>0</asrwt>
<pdfrwt beam="1">  1       21 0.42259819E-01 0.21976826E+03</pdfrwt>
<pdfrwt beam="2">  1        2 0.13385545E+00 0.21976826E+03</pdfrwt>
<totfact> 0.21435632E+03</totfact>
</mgrwt>
</event>
<event>
 5    0  0.3040647E+000  0.2410949E+03  0.7546771E-02  0.1119066E+00
         21   -1    0    0  503  502  0.00000000000E+00  0.00000000000E+00  0.46860777050E+03  0.46860777050E+03  0.00000000000E+00 0.  1.
          2   -1    0    0  502    0 -0.00000000000E+00 -0.00000000000E+00 -0.59999722353E+03  0.59999722353E+03  0.00000000000E+00 0.  1.
         25    1    1    2    0    0 -0.84433421641E+02  0.23058638742E+03 -0.20379701855E+03  0.34272045391E+03  0.12500000000E+03 0.  0.
         21    1    1    2  503  501 -0.34070683047E+00 -0.59811240298E+02  0.36871611412E+03  0.37353590638E+03  0.00000000000E+00 0.  1.
          2    1    1    2  501    0  0.84774128472E+02 -0.17077514713E+03 -0.29630854859E+03  0.35234863374E+03  0.00000000000E+00 0.  1.
<mgrwt>
<rscale>  4 0.24109486E+03</rscale>
<asrwt>0</asrwt>
<pdfrwt beam="1">  1       21 0.72093503E-01 0.24109486E+03</pdfrwt>
<pdfrwt beam="2">  1        2 0.92307265E-01 0.24109486E+03</pdfrwt>
<totfact> 0.10748474E+03</totfact>
</mgrwt>
</event>
<event>
 5    0  0.3040647E+000  0.2358773E+03  0.7546771E-02  0.1122570E+00
         21   -1    0    0  503  502  0.00000000000E+00  0.00000000000E+00  0.23856296676E+03  0.23856296676E+03  0.00000000000E+00 0. -1.
          2   -1    0    0  502    0 -0.00000000000E+00 -0.00000000000E+00 -0.13813366291E+04  0.13813366291E+04  0.00000000000E+00 0. -1.
         25    1    1    2    0    0 -0.70134300721E+02 -0.25977272294E+03 -0.17025618658E+03  0.34207142059E+03  0.12500000000E+03 0.  0.
         21    1    1    2  503  501  0.14200483853E+03  0.75642481561E+02  0.98548162746E+02  0.18867670647E+03  0.00000000000E+00 0. -1.
          2    1    1    2  501    0 -0.71870537807E+02  0.18413024138E+03 -0.10710656385E+04  0.10891514688E+04  0.00000000000E+00 0. -1.
<mgrwt>
<rscale>  4 0.23587729E+03</rscale>
<asrwt>0</asrwt>
<pdfrwt beam="1">  1       21 0.36701995E-01 0.23587729E+03</pdfrwt>
<pdfrwt beam="2">  1        2 0.21251333E+00 0.23587729E+03</pdfrwt>
<totfact> 0.14193799E+03</totfact>
</mgrwt>
</event>
<event>
 5    0  0.3040647E+000  0.2299307E+03  0.7546771E-02  0.1126689E+00
         21   -1    0    0  503  502  0.00000000000E+00  0.00000000000E+00  0.15960563400E+03  0.15960563400E+03  0.00000000000E+00 0.  1.
          1   -1    0    0  502    0 -0.00000000000E+00 -0.00000000000E+00 -0.30169215576E+04  0.30169215576E+04  0.00000000000E+00 0.  1.
         25    1    1    2    0    0  0.32291709887E+02  0.21303860695E+03 -0.93799222468E+03  0.97050637100E+03  0.12500000000E+03 0.  0.
         21    1    1    2  503  501 -0.56560298034E+01 -0.27831757822E+02  0.13765251965E+03  0.14055181814E+03  0.00000000000E+00 0.  1.
          1    1    1    2  501    0 -0.26635680084E+02 -0.18520684913E+03 -0.20569762186E+04  0.20654690025E+04  0.00000000000E+00 0.  1.
<mgrwt>
<rscale>  4 0.22993074E+03</rscale>
<asrwt>0</asrwt>
<pdfrwt beam="1">  1       21 0.24554714E-01 0.22993074E+03</pdfrwt>
<pdfrwt beam="2">  1        1 0.46414177E+00 0.22993074E+03</pdfrwt>
<totfact> 0.12411352E+02</totfact>
</mgrwt>
</event>
<event>
 5    0  0.3040647E+000  0.2073012E+03  0.7546771E-02  0.1143721E+00
         -3   -1    0    0    0  501 -0.00000000000E+00  0.00000000000E+00  0.28931839786E+03  0.28931839786E+03  0.00000000000E+00 0.  1.
         21   -1    0    0  501  502  0.00000000000E+00 -0.00000000000E+00 -0.41201109005E+03  0.41201109005E+03  0.00000000000E+00 0.  1.
         25    1    1    2    0    0 -0.58944717373E+02  0.21446719036E+03 -0.19887233990E+03  0.32349012817E+03  0.12500000000E+03 0.  0.
         21    1    1    2  503  502  0.66465427173E+01 -0.13620654980E+03 -0.10603969700E+03  0.17274495095E+03  0.00000000000E+00 0.  1.
         -3    1    1    2    0  503  0.52298174656E+02 -0.78260640553E+02  0.18221934471E+03  0.20509440879E+03  0.00000000000E+00 0.  1.
<mgrwt>
<rscale>  4 0.20730117E+03</rscale>
<asrwt>0</asrwt>
<pdfrwt beam="1">  1       21 0.63386321E-01 0.20730117E+03</pdfrwt>
<pdfrwt beam="2">  1       -3 0.44510523E-01 0.20730117E+03</pdfrwt>
<totfact> 0.57069790E+02</totfact>
</mgrwt>
</event>
<event>
 5    0  0.3040647E+000  0.2495154E+03  0.7546771E-02  0.1113611E+00
          2   -1    0    0  502    0 -0.00000000000E+00  0.00000000000E+00  0.42615153577E+03  0.42615153577E+03  0.00000000000E+00 0.  1.
         21   -1    0    0  503  502  0.00000000000E+00 -0.00000000000E+00 -0.19424979390E+03  0.19424979390E+03  0.00000000000E+00 0. -1.
         25    1    1    2    0    0  0.64960020138E+02 -0.20105910316E+03  0.81970968448E+02  0.25882195975E+03  0.12500000000E+03 0.  0.
         21    1    1    2  503  501 -0.22648517294E+02 -0.13776535597E+02 -0.55392427057E+02  0.61409032267E+02  0.00000000000E+00 0.  1.
          2    1    1    2  501    0 -0.42311502843E+02  0.21483563876E+03  0.20532320048E+03  0.30017033765E+03  0.00000000000E+00 0.  1.
<mgrwt>
<rscale>  4 0.24951537E+03</rscale>
<asrwt>0</asrwt>
<pdfrwt beam="1">  1       21 0.29884584E-01 0.24951537E+03</pdfrwt>
<pdfrwt beam="2">  1        2 0.65561775E-01 0.24951537E+03</pdfrwt>
<totfact> 0.98523109E+03</totfact>
</mgrwt>
</event>
<event>
 5    0  0.3040647E+000  0.2822010E+03  0.7546771E-02  0.1094493E+00
         21   -1    0    0  503  502  0.00000000000E+00  0.00000000000E+00  0.43368972227E+03  0.43368972227E+03  0.00000000000E+00 0. -1.
          1   -1    0    0  502    0 -0.00000000000E+00 -0.00000000000E+00 -0.18644616666E+04  0.18644616666E+04  0.00000000000E+00 0.  1.
         25    1    1    2    0    0  0.25344583914E+03 -0.88935079826E+02  0.33964445938E+03  0.45069679452E+03  0.12500000000E+03 0.  0.
         21    1    1    2  503  501 -0.16740034256E+03  0.85618990701E+02 -0.19935931295E+03  0.27403945321E+03  0.00000000000E+00 0. -1.
          1    1    1    2  501    0 -0.86045496579E+02  0.33160891256E+01 -0.15710570908E+04  0.15734151412E+04  0.00000000000E+00 0.  1.
<mgrwt>
<rscale>  4 0.28220097E+03</rscale>
<asrwt>0</asrwt>
<pdfrwt beam="1">  1       21 0.66721497E-01 0.28220097E+03</pdfrwt>
<pdfrwt beam="2">  1        1 0.28684025E+00 0.28220097E+03</pdfrwt>
<totfact> 0.90549440E+01</totfact>
</mgrwt>
</event>
<event>
 5    0  0.3040647E+000  0.2294083E+03  0.7546771E-02  0.1127057E+00
         21   -1    0    0  503  502  0.00000000000E+00  0.00000000000E+00  0.12316853530E+03  0.12316853530E+03  0.00000000000E+00 0. -1.
          1   -1    0    0  502    0 -0.00000000000E+00 -0.00000000000E+00 -0.13313698773E+04  0.13313698773E+04  0.00000000000E+00 0.  1.
         25    1    1    2    0    0  0.65664911508E+02  0.22472202221E+03 -0.83548526514E+03  0.87662563055E+03  0.12500000000E+03 0.  0.
         21    1    1    2  503  501 -0.76416038818E+02 -0.58796476905E+02  0.60538355559E+02  0.11384783344E+03  0.00000000000E+00 0. -1.
          1    1    1    2  501    0  0.10751127310E+02 -0.16592554531E+03 -0.43325443241E+03  0.46406494861E+03  0.00000000000E+00 0.  1.
<mgrwt>
<rscale>  4 0.22940827E+03</rscale>
<asrwt>0</asrwt>
<pdfrwt beam="1">  1       21 0.18949005E-01 0.22940827E+03</pdfrwt>
<pdfrwt beam="2">  1        1 0.20482614E+00 0.22940827E+03</pdfrwt>
<totfact> 0.26399136E+03</totfact>
</mgrwt>
</event>
<event>
 5    0  0.3040647E+000  0.1880890E+03  0.7546771E-02  0.1160196E+00
         21   -1    0    0  503  502  0.00000000000E+00  0.00000000000E+00  0.38327917791E+02  0.38327917791E+02  0.00000000000E+00 0. -1.
          2   -1    0    0  502    0 -0.00000000000E+00 -0.00000000000E+00 -0.15822648264E+04  0.15822648264E+04  0.00000000000E+00 0. -1.
         25    1    1    2    0    0 -0.80855342397E+02  0.18497688665E+03 -0.92950924030E+03  0.95935731758E+03  0.12500000000E+03 0.  0.
         21    1    1    2  503  501  0.21626163165E+01 -0.12814452394E+03 -0.21606324975E+03  0.25121509472E+03  0.00000000000E+00 0. -1.
          2    1    1    2  501    0  0.78692726081E+02 -0.56832362712E+02 -0.39836441858E+03  0.41002033191E+03  0.00000000000E+00 0. -1.
<mgrwt>
<rscale>  4 0.18808903E+03</rscale>
<asrwt>0</asrwt>
<pdfrwt beam="1">  1       21 0.58966026E-02 0.18808903E+03</pdfrwt>
<pdfrwt beam="2">  1        2 0.24342536E+00 0.18808903E+03</pdfrwt>
<totfact> 0.32300730E+04</totfact>
</mgrwt>
</event>
<event>
 5    0  0.3040647E+000  0.2373172E+03  0.7546771E-02  0.1121593E+00
         -1   -1    0    0    0  501 -0.00000000000E+00  0.00000000000E+00  0.11393429566E+04  0.11393429566E+04  0.00000000000E+00 0.  1.
         21   -1    0    0  501  502  0.00000000000E+00 -0.00000000000E+00 -0.54243376848E+03  0.54243376848E+03  0.00000000000E+00 0. -1.
         25    1    1    2    0    0 -0.13231025648E+03  0.15223616199E+03 -0.26682223192E+03  0.35707276070E+03  0.12500000000E+03 0.  0.
         21    1    1    2  503  502 -0.34631838572E+02 -0.38642781524E+02 -0.21810073128E+03  0.22418866561E+03  0.00000000000E+00 0. -1.
         -1    1    1    2    0  503  0.16694209505E+03 -0.11359338047E+03  0.10818321514E+04  0.11005152988E+04  0.00000000000E+00 0.  1.
<mgrwt>
<rscale>  4 0.23731720E+03</rscale>
<asrwt>0</asrwt>
<pdfrwt beam="1">  1       21 0.83451349E-01 0.23731720E+03</pdfrwt>
<pdfrwt beam="2">  1       -1 0.17528353E+00 0.23731720E+03</pdfrwt>
<totfact> 0.28303958E+01</totfact>
</mgrwt>
</event>
<event>
 5    0  0.3040647E+000  0.2643071E+03  0.7546771E-02  0.1104583E+00
         21   -1    0    0  501  502  0.00000000000E+00  0.00000000000E+00  0.29793065904E+04  0.29793065904E+04  0.00000000000E+00 0.  1.
         -1   -1    0    0    0  501 -0.00000000000E+00 -0.00000000000E+00 -0.69766703242E+02  0.69766703242E+02  0.00000000000E+00 0. -1.
         25    1    1    2    0    0  0.19975723114E+03 -0.54410844050E+02  0.16698701954E+04  0.16872921979E+04  0.12500000000E+03 0.  0.
         21    1    1    2  503  502 -0.25532856887E+03  0.12023406339E+03  0.12439183122E+04  0.12755319186E+04  0.00000000000E+00 0.  1.
         -1    1    1    2    0  503  0.55571337737E+02 -0.65823219342E+02 -0.42486204624E+01  0.86249177145E+02  0.00000000000E+00 0. -1.
<mgrwt>
<rscale>  4 0.26430714E+03</rscale>
<asrwt>0</asrwt>
<pdfrwt beam="1">  1       21 0.45835476E+00 0.26430714E+03</pdfrwt>
<pdfrwt beam="2">  1       -1 0.10733341E-01 0.26430714E+03</pdfrwt>
<totfact> 0.16291818E+01</totfact>
</mgrwt>
</event>
<event>
 5    0  0.3040647E+000  0.2653948E+03  0.7546771E-02  0.1103945E+00
         21   -1    0    0  503  502  0.00000000000E+00  0.00000000000E+00  0.32568924879E+03  0.32568924879E+03  0.00000000000E+00 0. -1.
          4   -1    0    0  502    0 -0.00000000000E+00 -0.00000000000E+00 -0.30176864729E+03  0.30176864729E+03  0.00000000000E+00 0. -1.
         25    1    1    2    0    0 -0.14613228423E+03 -0.21238842590E+03 -0.90589461860E+02  0.30049116219E+03  0.12500000000E+03 0.  0.
         21    1    1    2  503  501  0.48341873959E+02  0.26661854307E+02  0.10286776064E+03  0.11674573839E+03  0.00000000000E+00 0.  1.
          4    1    1    2  501    0  0.97790410268E+02  0.18572657160E+03  0.11642302724E+02  0.21022099550E+03  0.00000000000E+00 0. -1.
<mgrwt>
<rscale>  4 0.26539482E+03</rscale>
<asrwt>0</asrwt>
<pdfrwt beam="1">  1       21 0.50106038E-01 0.26539482E+03</pdfrwt>
<pdfrwt beam="2">  1        4 0.46425946E-01 0.26539482E+03</pdfrwt>
<totfact> 0.71739700E+02</totfact>
</mgrwt>
</event>
<event>
 5    0  0.3040647E+000  0.2803873E+03  0.7546771E-02  0.1095478E+00
          2   -1    0    0  502    0 -0.00000000000E+00  0.00000000000E+00  0.15696163950E+04  0.15696163950E+04  0.00000000000E+00 0.  1.
         21   -1    0    0  503  502  0.00000000000E+00 -0.00000000000E+00 -0.76457890868E+03  0.76457890868E+03  0.00000000000E+00 0.  1.
         25    1    1    2    0    0  0.18107522469E+03  0.21612844167E+03 -0.64296256467E+03  0.71310980912E+03  0.12500000000E+03 0.  0.
         21    1    1    2  503  501  0.21233671700E+02 -0.68182915021E+02 -0.59463700337E+02  0.92928522922E+02  0.00000000000E+00 0.  1.
          2    1    1    2  501    0 -0.20230889639E+03 -0.14794552665E+03  0.15074637514E+04  0.15281569717E+04  0.00000000000E+00 0.  1.
<mgrwt>
<rscale>  4 0.28038727E+03</rscale>
<asrwt>0</asrwt>
<pdfrwt beam="1">  1       21 0.11762752E+00 0.28038727E+03</pdfrwt>
<pdfrwt beam="2">  1        2 0.24147945E+00 0.28038727E+03</pdfrwt>
<totfact> 0.83150606E+01</totfact>
</mgrwt>
</event>
<event>
 5    0  0.3040647E+000  0.2712823E+03  0.7546771E-02  0.1100548E+00
         21   -1    0    0  503  502  0.00000000000E+00  0.00000000000E+00  0.39932952934E+03  0.39932952934E+03  0.00000000000E+00 0.  1.
          2   -1    0    0  502    0 -0.00000000000E+00 -0.00000000000E+00 -0.33885879407E+03  0.33885879407E+03  0.00000000000E+00 0.  1.
         25    1    1    2    0    0  0.24909214413E+03  0.99142569359E+02  0.14506420511E+03  0.32946133146E+03  0.12500000000E+03 0.  0.
         21    1    1    2  503  501 -0.38925824066E+02  0.46916021348E+01  0.10189528930E+03  0.10917820704E+03  0.00000000000E+00 0.  1.
          2    1    1    2  501    0 -0.21016632006E+03 -0.10383417149E+03 -0.18648875914E+03  0.29954878491E+03  0.00000000000E+00 0.  1.
<mgrwt>
<rscale>  4 0.27128234E+03</rscale>
<asrwt>0</asrwt>
<pdfrwt beam="1">  1       21 0.61435312E-01 0.27128234E+03</pdfrwt>
<pdfrwt beam="2">  1        2 0.52132122E-01 0.27128234E+03</pdfrwt>
<totfact> 0.28545489E+03</totfact>
</mgrwt>
</event>
<event>
 5    0  0.3040647E+000  0.2299879E+03  0.7546771E-02  0.1126648E+00
         21   -1    0    0  501  502  0.00000000000E+00  0.00000000000E+00  0.40062243894E+03  0.40062243894E+03  0.00000000000E+00 0.  1.
         -4   -1    0    0    0  501 -0.00000000000E+00 -0.00000000000E+00 -0.30223776830E+03  0.30223776830E+03  0.00000000000E+00 0.  1.
         25    1    1    2    0    0  0.13921533179E+03  0.19016327000E+03 -0.17540071843E+03  0.31927008925E+03  0.12500000000E+03 0.  0.
         21    1    1    2  503  502 -0.35678401350E+02 -0.10803755024E+03  0.20536269711E+03  0.23477414242E+03  0.00000000000E+00 0.  1.
         -4    1    1    2    0  503 -0.10353693044E+03 -0.82125719759E+02  0.68422691959E+02  0.14881597557E+03  0.00000000000E+00 0.  1.
<mgrwt>
<rscale>  4 0.22998792E+03</rscale>
<asrwt>0</asrwt>
<pdfrwt beam="1">  1       21 0.61634221E-01 0.22998792E+03</pdfrwt>
<pdfrwt beam="2">  1       -4 0.46498118E-01 0.22998792E+03</pdfrwt>
<totfact> 0.46093631E+02</totfact>
</mgrwt>
</event>
<event>
 5    0  0.3040647E+000  0.2555331E+03  0.7546771E-02  0.1109857E+00
          2   -1    0    0  502    0 -0.00000000000E+00  0.00000000000E+00  0.75260555623E+03  0.75260555623E+03  0.00000000000E+00 0.  1.
         21   -1    0    0  503  502  0.00000000000E+00 -0.00000000000E+00 -0.35048485365E+03  0.35048485365E+03  0.00000000000E+00 0.  1.
         25    1    1    2    0    0 -0.37280245212E+02  0.19866782490E+03 -0.20666975032E+03  0.31495413481E+03  0.12500000000E+03 0.  0.
         21    1    1    2  503  501 -0.10030900142E+02  0.20599086004E+02 -0.69783397724E+02  0.73448375747E+02  0.00000000000E+00 0. -1.
          2    1    1    2  501    0  0.47311145354E+02 -0.21926691091E+03  0.67857385062E+03  0.71468789933E+03  0.00000000000E+00 0.  1.
<mgrwt>
<rscale>  4 0.25553306E+03</rscale>
<asrwt>0</asrwt>
<pdfrwt beam="1">  1       21 0.53920747E-01 0.25553306E+03</pdfrwt>
<pdfrwt beam="2">  1        2 0.11578547E+00 0.25553306E+03</pdfrwt>
<totfact> 0.15305378E+03</totfact>
</mgrwt>
</event>
<event>
 5    0  0.3040647E+000  0.3460064E+03  0.7546771E-02  0.1064266E+00
         21   -1    0    0  501  502  0.00000000000E+00  0.00000000000E+00  0.94746804869E+02  0.94746804869E+02  0.00000000000E+00 0.  1.
         -1   -1    0    0    0  501 -0.00000000000E+00 -0.00000000000E+00 -0.12775885076E+04  0.12775885076E+04  0.00000000000E+00 0. -1.
         25    1    1    2    0    0 -0.19224783606E+03  0.25910660313E+03 -0.46625550210E+03  0.58061575546E+03  0.12500000000E+03 0.  0.
         21    1    1    2  503  502  0.59373157603E+02 -0.89182262858E+02 -0.14132412060E+03  0.17734473467E+03  0.00000000000E+00 0.  1.
         -1    1    1    2    0  503  0.13287467846E+03 -0.16992434027E+03 -0.57526207999E+03  0.61437482229E+03  0.00000000000E+00 0. -1.
<mgrwt>
<rscale>  4 0.34600645E+03</rscale>
<asrwt>0</asrwt>
<pdfrwt beam="1">  1       21 0.14576433E-01 0.34600645E+03</pdfrwt>
<pdfrwt beam="2">  1       -1 0.19655206E+00 0.34600645E+03</pdfrwt>
<totfact> 0.65838294E+02</totfact>
</mgrwt>
</event>
<event>
 5    0  0.3040647E+000  0.2516029E+03  0.7546771E-02  0.1112296E+00
          1   -1    0    0  502    0 -0.00000000000E+00  0.00000000000E+00  0.33244485639E+03  0.33244485639E+03  0.00000000000E+00 0. -1.
         21   -1    0    0  503  502  0.00000000000E+00 -0.00000000000E+00 -0.43471688484E+03  0.43471688484E+03  0.00000000000E+00 0. -1.
         25    1    1    2    0    0  0.31827102828E+03 -0.17321563894E+02  0.26655476301E+02  0.34341228637E+03  0.12500000000E+03 0.  0.
         21    1    1    2  503  501 -0.18704259873E+03 -0.65308889618E+02 -0.17247538435E+03  0.26267459529E+03  0.00000000000E+00 0. -1.
          1    1    1    2  501    0 -0.13122842955E+03  0.82630453512E+02  0.43547879599E+02  0.16107485957E+03  0.00000000000E+00 0. -1.
<mgrwt>
<rscale>  4 0.25160288E+03</rscale>
<asrwt>0</asrwt>
<pdfrwt beam="1">  1       21 0.66879521E-01 0.25160288E+03</pdfrwt>
<pdfrwt beam="2">  1        1 0.51145362E-01 0.25160288E+03</pdfrwt>
<totfact> 0.16848672E+03</totfact>
</mgrwt>
</event>
<event>
 5    0  0.3040647E+000  0.2624254E+03  0.7546771E-02  0.1105695E+00
         -4   -1    0    0    0  501 -0.00000000000E+00  0.00000000000E+00  0.90347945360E+03  0.90347945360E+03  0.00000000000E+00 0.  1.
         21   -1    0    0  501  502  0.00000000000E+00 -0.00000000000E+00 -0.92834156296E+02  0.92834156296E+02  0.00000000000E+00 0.  1.
         25    1    1    2    0    0 -0.70065312807E+02  0.25150749425E+03  0.32585390667E+03  0.43585655463E+03  0.12500000000E+03 0.  0.
         21    1    1    2  503  502  0.28541918291E+02 -0.38115034799E+02  0.29734923109E+02  0.56138780087E+02  0.00000000000E+00 0.  1.
         -4    1    1    2    0  503  0.41523394516E+02 -0.21339245945E+03  0.45505646753E+03  0.50431827518E+03  0.00000000000E+00 0.  1.
<mgrwt>
<rscale>  4 0.26242544E+03</rscale>
<asrwt>0</asrwt>
<pdfrwt beam="1">  1       21 0.14282178E-01 0.26242544E+03</pdfrwt>
<pdfrwt beam="2">  1       -4 0.13899683E+00 0.26242544E+03</pdfrwt>
<totfact> 0.69418802E+02</totfact>
</mgrwt>
</event>
<event>
 5    0  0.3040647E+000  0.2592713E+03  0.7546771E-02  0.1107582E+00
         21   -1    0    0  503  502  0.00000000000E+00  0.00000000000E+00  0.13200388932E+04  0.13200388932E+04  0.00000000000E+00 0.  1.
          1   -1    0    0  502    0 -0.00000000000E+00 -0.00000000000E+00 -0.10093961421E+03  0.10093961421E+03  0.00000000000E+00 0.  1.
         25    1    1    2    0    0  0.30777325826E+03 -0.26553960103E+02  0.79944038992E+03  0.86611744488E+03  0.12500000000E+03 0.  0.
         21    1    1    2  503  501 -0.98640538780E+02  0.26872389846E+02  0.29309223915E+03  0.31041124638E+03  0.00000000000E+00 0.  1.
          1    1    1    2  501    0 -0.20913271948E+03 -0.31842974288E+00  0.12656664995E+03  0.24444981618E+03  0.00000000000E+00 0.  1.
<mgrwt>
<rscale>  4 0.25927129E+03</rscale>
<asrwt>0</asrwt>
<pdfrwt beam="1">  1       21 0.20308289E+00 0.25927129E+03</pdfrwt>
<pdfrwt beam="2">  1        1 0.15529172E-01 0.25927129E+03</pdfrwt>
<totfact> 0.46892483E+02</totfact>
</mgrwt>
</event>
<event>
 5    0  0.3040647E+000  0.2680700E+03  0.7546771E-02  0.1102389E+00
          2   -1    0    0  502    0 -0.00000000000E+00  0.00000000000E+00  0.25753830940E+04  0.25753830940E+04  0.00000000000E+00 0. -1.
         21   -1    0    0  503  502  0.00000000000E+00 -0.00000000000E+00 -0.59782631783E+02  0.59782631783E+02  0.00000000000E+00 0. -1.
         25    1    1    2    0    0 -0.22216486134E+03 -0.31194525762E+02  0.49110167001E+03  0.55419867768E+03  0.12500000000E+03 0.  0.
         21    1    1    2  503  501 -0.12461826200E+02 -0.19852724370E+02 -0.14707953748E+02  0.27672218570E+02  0.00000000000E+00 0. -1.
          2    1    1    2  501    0  0.23462668754E+03  0.51047250132E+02  0.20392067459E+04  0.20532948295E+04  0.00000000000E+00 0. -1.
<mgrwt>
<rscale>  4 0.26806997E+03</rscale>
<asrwt>0</asrwt>
<pdfrwt beam="1">  1       21 0.91973300E-02 0.26806997E+03</pdfrwt>
<pdfrwt beam="2">  1        2 0.39621270E+00 0.26806997E+03</pdfrwt>
<totfact> 0.43201456E+03</totfact>
</mgrwt>
</event>
<event>
 5    0  0.3040647E+000  0.2709990E+03  0.7546771E-02  0.1100709E+00
         -1   -1    0    0    0  501 -0.00000000000E+00  0.00000000000E+00  0.49500691984E+03  0.49500691984E+03  0.00000000000E+00 0. -1.
         21   -1    0    0  501  502  0.00000000000E+00 -0.00000000000E+00 -0.32563998467E+03  0.32563998467E+03  0.00000000000E+00 0.  1.
         25    1    1    2    0    0 -0.27365882240E+02  0.25008047684E+03  0.17571949436E+03  0.33134796982E+03  0.12500000000E+03 0.  0.
         21    1    1    2  503  502  0.12571212370E+02 -0.18022635112E+02 -0.19107067872E+03  0.19233006791E+03  0.00000000000E+00 0.  1.
         -1    1    1    2    0  503  0.14794669870E+02 -0.23205784172E+03  0.18471811952E+03  0.29696886679E+03  0.00000000000E+00 0. -1.
<mgrwt>
<rscale>  4 0.27099895E+03</rscale>
<asrwt>0</asrwt>
<pdfrwt beam="1">  1       21 0.50098459E-01 0.27099895E+03</pdfrwt>
<pdfrwt beam="2">  1       -1 0.76154911E-01 0.27099895E+03</pdfrwt>
<totfact> 0.61972386E+02</totfact>
</mgrwt>
</event>
<event>
 5    0  0.3040647E+000  0.3198946E+03  0.7546771E-02  0.1075698E+00
         21   -1    0    0  503  502  0.00000000000E+00  0.00000000000E+00  0.39763165860E+03  0.39763165860E+03  0.00000000000E+00 0.  1.
          2   -1    0    0  502    0 -0.00000000000E+00 -0.00000000000E+00 -0.55337340886E+03  0.55337340886E+03  0.00000000000E+00 0. -1.
         25    1    1    2    0    0  0.27924868228E+03 -0.10236633335E+03  0.25785920049E+03  0.41300733654E+03  0.12500000000E+03 0.  0.
         21    1    1    2  503  501 -0.16558208403E+02 -0.30302885278E+02 -0.56737203701E+01  0.34994717095E+02  0.00000000000E+00 0.  1.
          2    1    1    2  501    0 -0.26269047388E+03  0.13266921862E+03 -0.40792723038E+03  0.50300301383E+03  0.00000000000E+00 0. -1.
<mgrwt>
<rscale>  4 0.31989461E+03</rscale>
<asrwt>0</asrwt>
<pdfrwt beam="1">  1       21 0.61174102E-01 0.31989461E+03</pdfrwt>
<pdfrwt beam="2">  1        2 0.85134370E-01 0.31989461E+03</pdfrwt>
<totfact> 0.16480220E+03</totfact>
</mgrwt>
</event>
<event>
 5    0  0.3040647E+000  0.2932328E+03  0.7546771E-02  0.1088673E+00
         21   -1    0    0  503  502  0.00000000000E+00  0.00000000000E+00  0.17653099681E+03  0.17653099681E+03  0.00000000000E+00 0. -1.
          1   -1    0    0  502    0 -0.00000000000E+00 -0.00000000000E+00 -0.60867874556E+03  0.60867874556E+03  0.00000000000E+00 0. -1.
         25    1    1    2    0    0 -0.25844438700E+03 -0.12755403886E+03 -0.22748498764E+03  0.38786331819E+03  0.12500000000E+03 0.  0.
         21    1    1    2  503  501  0.28685757765E+02  0.28886221412E+02  0.32974292959E+02  0.52388839290E+02  0.00000000000E+00 0.  1.
          1    1    1    2  501    0  0.22975862923E+03  0.98667817445E+02 -0.23763705406E+03  0.34495758489E+03  0.00000000000E+00 0. -1.
<mgrwt>
<rscale>  4 0.29323280E+03</rscale>
<asrwt>0</asrwt>
<pdfrwt beam="1">  1       21 0.27158615E-01 0.29323280E+03</pdfrwt>
<pdfrwt beam="2">  1        1 0.93642884E-01 0.29323280E+03</pdfrwt>
<totfact> 0.48062984E+03</totfact>
</mgrwt>
</event>
<event>
 5    0  0.3040647E+000  0.3143761E+03  0.7546771E-02  0.1078267E+00
          1   -1    0    0  502    0 -0.00000000000E+00  0.00000000000E+00  0.18084656412E+03  0.18084656412E+03  0.00000000000E+00 0. -1.
         21   -1    0    0  503  502  0.00000000000E+00 -0.00000000000E+00 -0.61249322161E+03  0.61249322161E+03  0.00000000000E+00 0. -1.
         25    1    1    2    0    0  0.32363393238E+02 -0.28780879260E+03 -0.15615412867E+03  0.35198068444E+03  0.12500000000E+03 0.  0.
         21    1    1    2  503  501  0.26534792309E+02  0.59725267028E+01 -0.10119786136E+03  0.10478918561E+03  0.00000000000E+00 0.  1.
          1    1    1    2  501    0 -0.58898185547E+02  0.28183626589E+03 -0.17429466747E+03  0.33656991568E+03  0.00000000000E+00 0. -1.
<mgrwt>
<rscale>  4 0.31437614E+03</rscale>
<asrwt>0</asrwt>
<pdfrwt beam="1">  1       21 0.94229726E-01 0.31437614E+03</pdfrwt>
<pdfrwt beam="2">  1        1 0.27822549E-01 0.31437614E+03</pdfrwt>
<totfact> 0.16334323E+03</totfact>
</mgrwt>
</event>
<event>
 5    0  0.3040647E+000  0.2291032E+03  0.7546771E-02  0.1127273E+00
          2   -1    0    0  502    0 -0.00000000000E+00  0.00000000000E+00  0.60355213712E+03  0.60355213712E+03  0.00000000000E+00 0.  1.
         21   -1    0    0  503  502  0.00000000000E+00 -0.00000000000E+00 -0.14986114162E+03  0.14986114162E+03  0.00000000000E+00 0.  1.
         25    1    1    2    0    0 -0.40347964081E+02 -0.24619167443E+03  0.12733492947E+03  0.30672052919E+03  0.12500000000E+03 0.  0.
         21    1    1    2  503  501 -0.55168846643E+01  0.16009250436E+03  0.74618953866E+02  0.17671455583E+03  0.00000000000E+00 0.  1.
          2    1    1    2  501    0  0.45864848746E+02  0.86099170076E+02  0.25173711217E+03  0.26997819372E+03  0.00000000000E+00 0.  1.
<mgrwt>
<rscale>  4 0.22910325E+03</rscale>
<asrwt>0</asrwt>
<pdfrwt beam="1">  1       21 0.23055561E-01 0.22910325E+03</pdfrwt>
<pdfrwt beam="2">  1        2 0.92854174E-01 0.22910325E+03</pdfrwt>
<totfact> 0.11033162E+04</totfact>
</mgrwt>
</event>
<event>
 5    0  0.3040647E+000  0.2609960E+03  0.7546771E-02  0.1106546E+00
          1   -1    0    0  502    0 -0.00000000000E+00  0.00000000000E+00  0.67204188451E+03  0.67204188451E+03  0.00000000000E+00 0. -1.
         21   -1    0    0  503  502  0.00000000000E+00 -0.00000000000E+00 -0.38241921781E+03  0.38241921781E+03  0.00000000000E+00 0. -1.
         25    1    1    2    0    0  0.17083936171E+03  0.17361009210E+03 -0.25548006400E+03  0.37446176666E+03  0.12500000000E+03 0.  0.
         21    1    1    2  503  501 -0.33895986813E+02 -0.20871353332E+03  0.14695925557E+03  0.25750203826E+03  0.00000000000E+00 0. -1.
          1    1    1    2  501    0 -0.13694337490E+03  0.35103441221E+02  0.39814347513E+03  0.42249729739E+03  0.00000000000E+00 0. -1.
<mgrwt>
<rscale>  4 0.26099604E+03</rscale>
<asrwt>0</asrwt>
<pdfrwt beam="1">  1       21 0.58833726E-01 0.26099604E+03</pdfrwt>
<pdfrwt beam="2">  1        1 0.10339106E+00 0.26099604E+03</pdfrwt>
<totfact> 0.87012477E+02</totfact>
</mgrwt>
</event>
<event>
 5    0  0.3040647E+000  0.3008143E+03  0.7546771E-02  0.1084834E+00
         21   -1    0    0  503  502  0.00000000000E+00  0.00000000000E+00  0.26533990592E+03  0.26533990592E+03  0.00000000000E+00 0. -1.
          1   -1    0    0  502    0 -0.00000000000E+00 -0.00000000000E+00 -0.11268540092E+04  0.11268540092E+04  0.00000000000E+00 0.  1.
         25    1    1    2    0    0  0.23330120085E+03  0.20305918560E+02  0.11462076258E+03  0.28914477319E+03  0.12500000000E+03 0.  0.
         21    1    1    2  503  501  0.39975827526E+02  0.27016421174E+02  0.31712518993E+02  0.57737662408E+02  0.00000000000E+00 0. -1.
          1    1    1    2  501    0 -0.27327702838E+03 -0.47322339734E+02 -0.10078473849E+04  0.10453114796E+04  0.00000000000E+00 0.  1.
<mgrwt>
<rscale>  4 0.30081432E+03</rscale>
<asrwt>0</asrwt>
<pdfrwt beam="1">  1       21 0.40821523E-01 0.30081432E+03</pdfrwt>
<pdfrwt beam="2">  1        1 0.17336216E+00 0.30081432E+03</pdfrwt>
<totfact> 0.79692151E+02</totfact>
</mgrwt>
</event>
<event>
 5    0  0.3040647E+000  0.3437558E+03  0.7546771E-02  0.1065207E+00
         21   -1    0    0  503  502  0.00000000000E+00  0.00000000000E+00  0.73427591827E+03  0.73427591827E+03  0.00000000000E+00 0.  1.
          1   -1    0    0  502    0 -0.00000000000E+00 -0.00000000000E+00 -0.75822484084E+03  0.75822484084E+03  0.00000000000E+00 0.  1.
         25    1    1    2    0    0  0.20206405554E+03 -0.25366170048E+03  0.62293563052E+03  0.71333578391E+03  0.12500000000E+03 0.  0.
         21    1    1    2  503  501 -0.33554708582E+02 -0.18514434799E+02  0.17158125873E+02  0.41989332544E+02  0.00000000000E+00 0.  1.
          1    1    1    2  501    0 -0.16850934696E+03  0.27217613528E+03 -0.66404267897E+03  0.73717564265E+03  0.00000000000E+00 0.  1.
<mgrwt>
<rscale>  4 0.34375578E+03</rscale>
<asrwt>0</asrwt>
<pdfrwt beam="1">  1       21 0.11296553E+00 0.34375578E+03</pdfrwt>
<pdfrwt beam="2">  1        1 0.11664998E+00 0.34375578E+03</pdfrwt>
<totfact> 0.15612169E+02</totfact>
</mgrwt>
</event>
<event>
 5    0  0.3040647E+000  0.3516733E+03  0.7546771E-02  0.1061930E+00
          2   -1    0    0  502    0 -0.00000000000E+00  0.00000000000E+00  0.19523513541E+04  0.19523513541E+04  0.00000000000E+00 0. -1.
         21   -1    0    0  503  502  0.00000000000E+00 -0.00000000000E+00 -0.23609615180E+03  0.23609615180E+03  0.00000000000E+00 0.  1.
         25    1    1    2    0    0  0.35491026841E+03 -0.59724082265E+01  0.58051918382E+02  0.38077814211E+03  0.12500000000E+03 0.  0.
         21    1    1    2  503  501 -0.30558979783E+02  0.42943125133E+02 -0.47533510513E+02  0.70974628307E+02  0.00000000000E+00 0.  1.
          2    1    1    2  501    0 -0.32435128863E+03 -0.36970716907E+02  0.17057367945E+04  0.17366947355E+04  0.00000000000E+00 0. -1.
<mgrwt>
<rscale>  4 0.35167330E+03</rscale>
<asrwt>0</asrwt>
<pdfrwt beam="1">  1       21 0.36322486E-01 0.35167330E+03</pdfrwt>
<pdfrwt beam="2">  1        2 0.30036174E+00 0.35167330E+03</pdfrwt>
<totfact> 0.68353342E+02</totfact>
</mgrwt>
</event>
<event>
 5    0  0.3040647E+000  0.2766448E+03  0.7546771E-02  0.1097536E+00
          3   -1    0    0  502    0 -0.00000000000E+00  0.00000000000E+00  0.43814863873E+03  0.43814863873E+03  0.00000000000E+00 0.  1.
         21   -1    0    0  503  502  0.00000000000E+00 -0.00000000000E+00 -0.30033128060E+03  0.30033128060E+03  0.00000000000E+00 0.  1.
         25    1    1    2    0    0  0.10725633122E+03 -0.24478282653E+03  0.20545258765E+03  0.35952512920E+03  0.12500000000E+03 0.  0.
         21    1    1    2  503  501 -0.56539226170E+02  0.24337356402E+02 -0.13040501911E+03  0.14420284332E+03  0.00000000000E+00 0.  1.
          3    1    1    2  501    0 -0.50717105052E+02  0.22044547013E+03  0.62769789590E+02  0.23475194681E+03  0.00000000000E+00 0.  1.
<mgrwt>
<rscale>  4 0.27664483E+03</rscale>
<asrwt>0</asrwt>
<pdfrwt beam="1">  1       21 0.46204813E-01 0.27664483E+03</pdfrwt>
<pdfrwt beam="2">  1        3 0.67407483E-01 0.27664483E+03</pdfrwt>
<totfact> 0.47144937E+02</totfact>
</mgrwt>
</event>
<event>
 5    0  0.3040647E+000  0.2649227E+03  0.7546771E-02  0.1104221E+00
         21   -1    0    0  503  502  0.00000000000E+00  0.00000000000E+00  0.14611866162E+03  0.14611866162E+03  0.00000000000E+00 0.  1.
          1   -1    0    0  502    0 -0.00000000000E+00 -0.00000000000E+00 -0.82629704382E+03  0.82629704382E+03  0.00000000000E+00 0.  1.
         25    1    1    2    0    0 -0.19417734835E+03  0.12183456395E+03 -0.47415498264E+02  0.26537093485E+03  0.12500000000E+03 0.  0.
         21    1    1    2  503  501  0.25008614003E+02  0.41694162436E+02 -0.23645713539E+02  0.54064347998E+02  0.00000000000E+00 0. -1.
          1    1    1    2  501    0  0.16916873435E+03 -0.16352872638E+03 -0.60911717040E+03  0.65298042261E+03  0.00000000000E+00 0.  1.
<mgrwt>
<rscale>  4 0.26492275E+03</rscale>
<asrwt>0</asrwt>
<pdfrwt beam="1">  1       21 0.22479795E-01 0.26492275E+03</pdfrwt>
<pdfrwt beam="2">  1        1 0.12712262E+00 0.26492275E+03</pdfrwt>
<totfact> 0.44341083E+03</totfact>
</mgrwt>
</event>
<event>
 5    0  0.3040647E+000  0.3597697E+03  0.7546771E-02  0.1058675E+00
         21   -1    0    0  503  502  0.00000000000E+00  0.00000000000E+00  0.13026121082E+03  0.13026121082E+03  0.00000000000E+00 0.  1.
          2   -1    0    0  502    0 -0.00000000000E+00 -0.00000000000E+00 -0.14178552610E+04  0.14178552610E+04  0.00000000000E+00 0. -1.
         25    1    1    2    0    0 -0.21723682764E+03 -0.27605132220E+03 -0.47694001703E+03  0.60538661335E+03  0.12500000000E+03 0.  0.
         21    1    1    2  503  501  0.14415146494E+02  0.15003706237E+02  0.31650313598E+02  0.37876773888E+02  0.00000000000E+00 0.  1.
          2    1    1    2  501    0  0.20282168114E+03  0.26104761597E+03 -0.84230434672E+03  0.90485308456E+03  0.00000000000E+00 0. -1.
<mgrwt>
<rscale>  4 0.35976967E+03</rscale>
<asrwt>0</asrwt>
<pdfrwt beam="1">  1       21 0.20040186E-01 0.35976967E+03</pdfrwt>
<pdfrwt beam="2">  1        2 0.21813158E+00 0.35976967E+03</pdfrwt>
<totfact> 0.42142346E+03</totfact>
</mgrwt>
</event>
<event>
 5    0  0.3040647E+000  0.2150515E+03  0.7546771E-02  0.1137627E+00
         21   -1    0    0  503  502  0.00000000000E+00  0.00000000000E+00  0.36656406820E+03  0.36656406820E+03  0.00000000000E+00 0. -1.
          2   -1    0    0  502    0 -0.00000000000E+00 -0.00000000000E+00 -0.38562385073E+03  0.38562385073E+03  0.00000000000E+00 0. -1.
         25    1    1    2    0    0 -0.64352187360E+01  0.21107837313E+03  0.10503763160E+03  0.26693331694E+03  0.12500000000E+03 0.  0.
         21    1    1    2  503  501 -0.49792313607E+02 -0.49277802196E+02  0.14799300490E+03  0.16373608577E+03  0.00000000000E+00 0. -1.
          2    1    1    2  501    0  0.56227532343E+02 -0.16180057093E+03 -0.27209041903E+03  0.32151851622E+03  0.00000000000E+00 0. -1.
<mgrwt>
<rscale>  4 0.21505145E+03</rscale>
<asrwt>0</asrwt>
<pdfrwt beam="1">  1       21 0.56394472E-01 0.21505145E+03</pdfrwt>
<pdfrwt beam="2">  1        2 0.59326746E-01 0.21505145E+03</pdfrwt>
<totfact> 0.30374352E+03</totfact>
</mgrwt>
</event>
<event>
 5    0  0.3040647E+000  0.2889814E+03  0.7546771E-02  0.1090882E+00
          1   -1    0    0  502    0 -0.00000000000E+00  0.00000000000E+00  0.15503296108E+04  0.15503296108E+04  0.00000000000E+00 0. -1.
         21   -1    0    0  503  502  0.00000000000E+00 -0.00000000000E+00 -0.21465239767E+03  0.21465239767E+03  0.00000000000E+00 0.  1.
         25    1    1    2    0    0  0.18381194557E+03 -0.20254633878E+03  0.91533234366E+03  0.96346777322E+03  0.12500000000E+03 0.  0.
         21    1    1    2  503  501 -0.19937414143E+02  0.17641475427E+02 -0.16449042075E+03  0.16663079144E+03  0.00000000000E+00 0.  1.
          1    1    1    2  501    0 -0.16387453143E+03  0.18490486335E+03  0.58483529025E+03  0.63488344384E+03  0.00000000000E+00 0. -1.
<mgrwt>
<rscale>  4 0.28898140E+03</rscale>
<asrwt>0</asrwt>
<pdfrwt beam="1">  1       21 0.33023447E-01 0.28898140E+03</pdfrwt>
<pdfrwt beam="2">  1        1 0.23851224E+00 0.28898140E+03</pdfrwt>
<totfact> 0.63010433E+02</totfact>
</mgrwt>
</event>
<event>
 5    0  0.3040647E+000  0.4361970E+03  0.7546771E-02  0.1031920E+00
          2   -1    0    0  502    0 -0.00000000000E+00  0.00000000000E+00  0.42592289606E+03  0.42592289606E+03  0.00000000000E+00 0.  1.
         21   -1    0    0  503  502  0.00000000000E+00 -0.00000000000E+00 -0.12000036021E+04  0.12000036021E+04  0.00000000000E+00 0.  1.
         25    1    1    2    0    0 -0.12212919920E+03  0.29946582568E+03 -0.86448881485E+03  0.93142967155E+03  0.12500000000E+03 0.  0.
         21    1    1    2  503  501 -0.90064615471E+02  0.76093740269E+02 -0.15767664164E+03  0.19688528535E+03  0.00000000000E+00 0.  1.
          2    1    1    2  501    0  0.21219381468E+03 -0.37555956595E+03  0.24808475047E+03  0.49761154124E+03  0.00000000000E+00 0.  1.
<mgrwt>
<rscale>  4 0.43619700E+03</rscale>
<asrwt>0</asrwt>
<pdfrwt beam="1">  1       21 0.18461593E+00 0.43619700E+03</pdfrwt>
<pdfrwt beam="2">  1        2 0.65526601E-01 0.43619700E+03</pdfrwt>
<totfact> 0.13710684E+02</totfact>
</mgrwt>
</event>
<event>
 5    0  0.3040647E+000  0.1882148E+03  0.7546771E-02  0.1160081E+00
          2   -1    0    0  502    0 -0.00000000000E+00  0.00000000000E+00  0.11700543725E+04  0.11700543725E+04  0.00000000000E+00 0.  1.
         21   -1    0    0  503  502  0.00000000000E+00 -0.00000000000E+00 -0.61224874418E+03  0.61224874418E+03  0.00000000000E+00 0.  1.
         25    1    1    2    0    0  0.11857836209E+03 -0.20101353622E+03 -0.16794736784E+03  0.31352605643E+03  0.12500000000E+03 0.  0.
         21    1    1    2  503  501 -0.37240346260E+02  0.88266265179E+02 -0.36083269293E+03  0.37333364333E+03  0.00000000000E+00 0.  1.
          2    1    1    2  501    0 -0.81338015828E+02  0.11274727104E+03  0.10865856890E+04  0.10954434169E+04  0.00000000000E+00 0.  1.
<mgrwt>
<rscale>  4 0.18821479E+03</rscale>
<asrwt>0</asrwt>
<pdfrwt beam="1">  1       21 0.94192115E-01 0.18821479E+03</pdfrwt>
<pdfrwt beam="2">  1        2 0.18000836E+00 0.18821479E+03</pdfrwt>
<totfact> 0.25184434E+02</totfact>
</mgrwt>
</event>
<event>
 5    0  0.3040647E+000  0.2492112E+03  0.7546771E-02  0.1113804E+00
         21   -1    0    0  501  502  0.00000000000E+00  0.00000000000E+00  0.31837369907E+03  0.31837369907E+03  0.00000000000E+00 0. -1.
         -1   -1    0    0    0  501 -0.00000000000E+00 -0.00000000000E+00 -0.29918156833E+03  0.29918156833E+03  0.00000000000E+00 0. -1.
         25    1    1    2    0    0  0.20773803800E+03 -0.60741741894E+02 -0.12640138538E+03  0.28008384793E+03  0.12500000000E+03 0.  0.
         21    1    1    2  503  502 -0.23715069750E+02 -0.60414387608E+02  0.88717799489E+02  0.10992338563E+03  0.00000000000E+00 0. -1.
         -1    1    1    2    0  503 -0.18402296825E+03  0.12115612950E+03  0.56875716639E+02  0.22754803384E+03  0.00000000000E+00 0. -1.
<mgrwt>
<rscale>  4 0.24921118E+03</rscale>
<asrwt>0</asrwt>
<pdfrwt beam="1">  1       21 0.48980569E-01 0.24921118E+03</pdfrwt>
<pdfrwt beam="2">  1       -1 0.46027933E-01 0.24921118E+03</pdfrwt>
<totfact> 0.17264255E+03</totfact>
</mgrwt>
</event>
<event>
 5    0  0.3040647E+000  0.3432443E+03  0.7546771E-02  0.1065422E+00
          3   -1    0    0  502    0 -0.00000000000E+00  0.00000000000E+00  0.53066852962E+03  0.53066852962E+03  0.00000000000E+00 0. -1.
         21   -1    0    0  503  502  0.00000000000E+00 -0.00000000000E+00 -0.94839332187E+03  0.94839332187E+03  0.00000000000E+00 0.  1.
         25    1    1    2    0    0 -0.33850771615E+03 -0.10136661345E+03 -0.72466593000E+03  0.81586051156E+03  0.12500000000E+03 0.  0.
         21    1    1    2  503  501  0.37704864078E+02  0.63126549056E-01 -0.12308058813E+03  0.12872642283E+03  0.00000000000E+00 0.  1.
          3    1    1    2  501    0  0.30080285207E+03  0.10130348690E+03  0.43002172589E+03  0.53447491710E+03  0.00000000000E+00 0. -1.
<mgrwt>
<rscale>  4 0.34324431E+03</rscale>
<asrwt>0</asrwt>
<pdfrwt beam="1">  1       21 0.14590666E+00 0.34324431E+03</pdfrwt>
<pdfrwt beam="2">  1        3 0.81641313E-01 0.34324431E+03</pdfrwt>
<totfact> 0.21098785E+01</totfact>
</mgrwt>
</event>
<event>
 5    0  0.3040647E+000  0.2146369E+03  0.7546771E-02  0.1137946E+00
          3   -1    0    0  502    0 -0.00000000000E+00  0.00000000000E+00  0.48193730110E+03  0.48193730110E+03  0.00000000000E+00 0.  1.
         21   -1    0    0  503  502  0.00000000000E+00 -0.00000000000E+00 -0.30156456541E+03  0.30156456541E+03  0.00000000000E+00 0. -1.
         25    1    1    2    0    0 -0.17914527502E+03  0.14714721357E+03 -0.17300499929E+03  0.31512070989E+03  0.12500000000E+03 0.  0.
         21    1    1    2  503  501  0.64445785036E+02 -0.21423100635E+02 -0.85393820058E+01  0.68448005776E+02  0.00000000000E+00 0. -1.
          3    1    1    2  501    0  0.11469948999E+03 -0.12572411294E+03  0.36191711698E+03  0.39993315084E+03  0.00000000000E+00 0.  1.
<mgrwt>
<rscale>  4 0.21463694E+03</rscale>
<asrwt>0</asrwt>
<pdfrwt beam="1">  1       21 0.46394549E-01 0.21463694E+03</pdfrwt>
<pdfrwt beam="2">  1        3 0.74144200E-01 0.21463694E+03</pdfrwt>
<totfact> 0.38526135E+02</totfact>
</mgrwt>
</event>
<event>
 5    0  0.3040647E+000  0.1936951E+03  0.7546771E-02  0.1155170E+00
         21   -1    0    0  503  502  0.00000000000E+00  0.00000000000E+00  0.26182402640E+03  0.26182402640E+03  0.00000000000E+00 0.  1.
          1   -1    0    0  502    0 -0.00000000000E+00 -0.00000000000E+00 -0.22894906862E+04  0.22894906862E+04  0.00000000000E+00 0. -1.
         25    1    1    2    0    0  0.12157179017E+03  0.25951228507E+03 -0.79218607158E+03  0.85165139480E+03  0.12500000000E+03 0.  0.
         21    1    1    2  503  501 -0.73080888952E+02 -0.12426368892E+03  0.20578361765E+03  0.25125520494E+03  0.00000000000E+00 0.  1.
          1    1    1    2  501    0 -0.48490901223E+02 -0.13524859615E+03 -0.14412642059E+04  0.14484081129E+04  0.00000000000E+00 0. -1.
<mgrwt>
<rscale>  4 0.19369508E+03</rscale>
<asrwt>0</asrwt>
<pdfrwt beam="1">  1       21 0.40280618E-01 0.19369508E+03</pdfrwt>
<pdfrwt beam="2">  1        1 0.35222934E+00 0.19369508E+03</pdfrwt>
<totfact> 0.14900963E+02</totfact>
</mgrwt>
</event>
<event>
 5    0  0.3040647E+000  0.3206371E+03  0.7546771E-02  0.1075356E+00
         21   -1    0    0  503  502  0.00000000000E+00  0.00000000000E+00  0.97387006181E+03  0.97387006181E+03  0.00000000000E+00 0.  1.
          1   -1    0    0  502    0 -0.00000000000E+00 -0.00000000000E+00 -0.74131755730E+03  0.74131755730E+03  0.00000000000E+00 0. -1.
         25    1    1    2    0    0 -0.73716915485E+02 -0.24162265634E+03  0.82607390945E+03  0.87283377316E+03  0.12500000000E+03 0.  0.
         21    1    1    2  503  501 -0.93675289981E+02 -0.40518954054E+01  0.68851846012E+02  0.11632735924E+03  0.00000000000E+00 0. -1.
          1    1    1    2  501    0  0.16739220547E+03  0.24567455175E+03 -0.66237325096E+03  0.72602648671E+03  0.00000000000E+00 0. -1.
<mgrwt>
<rscale>  4 0.32063707E+03</rscale>
<asrwt>0</asrwt>
<pdfrwt beam="1">  1       21 0.14982616E+00 0.32063707E+03</pdfrwt>
<pdfrwt beam="2">  1        1 0.11404885E+00 0.32063707E+03</pdfrwt>
<totfact> 0.78965763E+01</totfact>
</mgrwt>
</event>
<event>
 5    0  0.3040647E+000  0.1896870E+03  0.7546771E-02  0.1158744E+00
         21   -1    0    0  503  502  0.00000000000E+00  0.00000000000E+00  0.37810122095E+02  0.37810122095E+02  0.00000000000E+00 0. -1.
          1   -1    0    0  502    0 -0.00000000000E+00 -0.00000000000E+00 -0.18469655417E+04  0.18469655417E+04  0.00000000000E+00 0. -1.
         25    1    1    2    0    0 -0.40118920317E+02 -0.20392734173E+03 -0.64948455053E+03  0.69329003299E+03  0.12500000000E+03 0.  0.
         21    1    1    2  503  501 -0.11224049791E+02  0.11818533095E+03 -0.25464778152E+03  0.28096128626E+03  0.00000000000E+00 0. -1.
          1    1    1    2  501    0  0.51342970108E+02  0.85742010779E+02 -0.90502308759E+03  0.91052434457E+03  0.00000000000E+00 0. -1.
<mgrwt>
<rscale>  4 0.18968701E+03</rscale>
<asrwt>0</asrwt>
<pdfrwt beam="1">  1       21 0.58169410E-02 0.18968701E+03</pdfrwt>
<pdfrwt beam="2">  1        1 0.28414859E+00 0.18968701E+03</pdfrwt>
<totfact> 0.10082459E+04</totfact>
</mgrwt>
</event>
<event>
 5    0  0.3040647E+000  0.2358062E+03  0.7546771E-02  0.1122619E+00
         21   -1    0    0  503  502  0.00000000000E+00  0.00000000000E+00  0.19367494202E+03  0.19367494202E+03  0.00000000000E+00 0. -1.
          2   -1    0    0  502    0 -0.00000000000E+00 -0.00000000000E+00 -0.14664189432E+04  0.14664189432E+04  0.00000000000E+00 0.  1.
         25    1    1    2    0    0  0.21657789857E+03  0.44734460461E+02 -0.20604130301E+03  0.32708588574E+03  0.12500000000E+03 0.  0.
         21    1    1    2  503  501 -0.25241621529E+02  0.27047391330E+01  0.12375870297E+03  0.12633555173E+03  0.00000000000E+00 0. -1.
          2    1    1    2  501    0 -0.19133627704E+03 -0.47439199594E+02 -0.11904614011E+04  0.12066724478E+04  0.00000000000E+00 0.  1.
<mgrwt>
<rscale>  4 0.23580622E+03</rscale>
<asrwt>0</asrwt>
<pdfrwt beam="1">  1       21 0.29796147E-01 0.23580622E+03</pdfrwt>
<pdfrwt beam="2">  1        2 0.22560290E+00 0.23580622E+03</pdfrwt>
<totfact> 0.19301577E+03</totfact>
</mgrwt>
</event>
<event>
 5    0  0.3040647E+000  0.2806216E+03  0.7546771E-02  0.1095350E+00
         21   -1    0    0  503  502  0.00000000000E+00  0.00000000000E+00  0.27673457560E+03  0.27673457560E+03  0.00000000000E+00 0.  1.
          2   -1    0    0  502    0 -0.00000000000E+00 -0.00000000000E+00 -0.55283937413E+03  0.55283937413E+03  0.00000000000E+00 0.  1.
         25    1    1    2    0    0  0.17821910575E+03 -0.13257712918E+03  0.12237310458E+03  0.28273471941E+03  0.12500000000E+03 0.  0.
         21    1    1    2  503  501  0.23454942816E+02 -0.25648201604E+02  0.31070939227E+02  0.46619393523E+02  0.00000000000E+00 0.  1.
          2    1    1    2  501    0 -0.20167404857E+03  0.15822533079E+03 -0.42954884234E+03  0.50021983680E+03  0.00000000000E+00 0.  1.
<mgrwt>
<rscale>  4 0.28062163E+03</rscale>
<asrwt>0</asrwt>
<pdfrwt beam="1">  1       21 0.42574550E-01 0.28062163E+03</pdfrwt>
<pdfrwt beam="2">  1        2 0.85052211E-01 0.28062163E+03</pdfrwt>
<totfact> 0.35921536E+03</totfact>
</mgrwt>
</event>
<event>
 5    0  0.3777552E+000  0.2476744E+03  0.7546771E-02  0.1114783E+00
          2   -1    0    0  502    0 -0.00000000000E+00  0.00000000000E+00  0.73130974687E+03  0.73130974687E+03  0.00000000000E+00 0. -1.
         21   -1    0    0  503  502  0.00000000000E+00 -0.00000000000E+00 -0.29063593698E+03  0.29063593698E+03  0.00000000000E+00 0. -1.
         25    1    1    2    0    0 -0.23559377921E+02  0.22527680884E+03 -0.19429354605E+03  0.32354237269E+03  0.12500000000E+03 0.  0.
         21    1    1    2  503  501  0.25285650844E+02 -0.12229401254E+02 -0.58176170200E+00  0.28093786508E+02  0.00000000000E+00 0.  1.
          2    1    1    2  501    0 -0.17262729234E+01 -0.21304740759E+03  0.63554911764E+03  0.67030952465E+03  0.00000000000E+00 0. -1.
<mgrwt>
<rscale>  4 0.24767437E+03</rscale>
<asrwt>0</asrwt>
<pdfrwt beam="1">  1       21 0.44713221E-01 0.24767437E+03</pdfrwt>
<pdfrwt beam="2">  1        2 0.11250919E+00 0.24767437E+03</pdfrwt>
<totfact> 0.23542750E+03</totfact>
</mgrwt>
</event>
<event>
 5    0  0.3040647E+000  0.1869114E+03  0.7546771E-02  0.1161277E+00
         21   -1    0    0  503  502  0.00000000000E+00  0.00000000000E+00  0.33659766618E+03  0.33659766618E+03  0.00000000000E+00 0.  1.
          1   -1    0    0  502    0 -0.00000000000E+00 -0.00000000000E+00 -0.73181340476E+03  0.73181340476E+03  0.00000000000E+00 0.  1.
         25    1    1    2    0    0  0.43600110666E+02  0.21288885704E+03 -0.52899828721E+02  0.25621480632E+03  0.12500000000E+03 0.  0.
         21    1    1    2  503  501 -0.16241940390E+02 -0.82753086132E+02  0.21934998233E+03  0.23500274178E+03  0.00000000000E+00 0.  1.
          1    1    1    2  501    0 -0.27358170277E+02 -0.13013577091E+03 -0.56166589219E+03  0.57719352284E+03  0.00000000000E+00 0.  1.
<mgrwt>
<rscale>  4 0.18691138E+03</rscale>
<asrwt>0</asrwt>
<pdfrwt beam="1">  1       21 0.51784257E-01 0.18691138E+03</pdfrwt>
<pdfrwt beam="2">  1        1 0.11258668E+00 0.18691138E+03</pdfrwt>
<totfact> 0.10454171E+03</totfact>
</mgrwt>
</event>
<event>
 5    0  0.3040647E+000  0.4547740E+03  0.7546771E-02  0.1026308E+00
          2   -1    0    0  502    0 -0.00000000000E+00  0.00000000000E+00  0.15252374766E+04  0.15252374766E+04  0.00000000000E+00 0.  1.
         21   -1    0    0  503  502  0.00000000000E+00 -0.00000000000E+00 -0.12485638511E+04  0.12485638511E+04  0.00000000000E+00 0.  1.
         25    1    1    2    0    0 -0.23001927113E+02 -0.37681167031E+03  0.43542882943E+03  0.58969431830E+03  0.12500000000E+03 0.  0.
         21    1    1    2  503  501 -0.12220377213E+03  0.42669658242E+03 -0.11230956401E+04  0.12076206160E+04  0.00000000000E+00 0.  1.
          2    1    1    2  501    0  0.14520569924E+03 -0.49884912109E+02  0.96434043617E+03  0.97648639334E+03  0.00000000000E+00 0.  1.
<mgrwt>
<rscale>  4 0.45477402E+03</rscale>
<asrwt>0</asrwt>
<pdfrwt beam="1">  1       21 0.19208675E+00 0.45477402E+03</pdfrwt>
<pdfrwt beam="2">  1        2 0.23465192E+00 0.45477402E+03</pdfrwt>
<totfact> 0.20958064E+01</totfact>
</mgrwt>
</event>
<event>
 5    0  0.3040647E+000  0.2373036E+03  0.7546771E-02  0.1121602E+00
         21   -1    0    0  503  502  0.00000000000E+00  0.00000000000E+00  0.84789909313E+03  0.84789909313E+03  0.00000000000E+00 0.  1.
          1   -1    0    0  502    0 -0.00000000000E+00 -0.00000000000E+00 -0.30306987833E+03  0.30306987833E+03  0.00000000000E+00 0.  1.
         25    1    1    2    0    0 -0.12628301693E+03  0.19363879180E+03 -0.15373498486E+03  0.30447139048E+03  0.12500000000E+03 0.  0.
         21    1    1    2  503  501  0.47719103719E+02 -0.48349883104E+02  0.67645135203E+03  0.67985384879E+03  0.00000000000E+00 0.  1.
          1    1    1    2  501    0  0.78563913206E+02 -0.14528890869E+03  0.22112847627E+02  0.16664373219E+03  0.00000000000E+00 0.  1.
<mgrwt>
<rscale>  4 0.23730360E+03</rscale>
<asrwt>0</asrwt>
<pdfrwt beam="1">  1       21 0.13044601E+00 0.23730360E+03</pdfrwt>
<pdfrwt beam="2">  1        1 0.46626136E-01 0.23730360E+03</pdfrwt>
<totfact> 0.39441152E+02</totfact>
</mgrwt>
</event>
<event>
 5    0  0.3040647E+000  0.1876187E+03  0.7546771E-02  0.1160627E+00
         21   -1    0    0  503  502  0.00000000000E+00  0.00000000000E+00  0.21811188915E+03  0.21811188915E+03  0.00000000000E+00 0.  1.
          1   -1    0    0  502    0 -0.00000000000E+00 -0.00000000000E+00 -0.72092515210E+03  0.72092515210E+03  0.00000000000E+00 0.  1.
         25    1    1    2    0    0  0.21346548720E+03 -0.78927133723E+02 -0.16853830578E+03  0.30955963428E+03  0.12500000000E+03 0.  0.
         21    1    1    2  503  501 -0.95130810020E+02  0.27995694180E+02  0.12093210076E+03  0.15639118550E+03  0.00000000000E+00 0.  1.
          1    1    1    2  501    0 -0.11833467718E+03  0.50931439542E+02 -0.45520705792E+03  0.47308622147E+03  0.00000000000E+00 0.  1.
<mgrwt>
<rscale>  4 0.18761867E+03</rscale>
<asrwt>0</asrwt>
<pdfrwt beam="1">  1       21 0.33555675E-01 0.18761867E+03</pdfrwt>
<pdfrwt beam="2">  1        1 0.11091156E+00 0.18761867E+03</pdfrwt>
<totfact> 0.25789265E+03</totfact>
</mgrwt>
</event>
<event>
 5    0  0.3040647E+000  0.2804361E+03  0.7546771E-02  0.1095451E+00
         21   -1    0    0  503  502  0.00000000000E+00  0.00000000000E+00  0.19531457275E+03  0.19531457275E+03  0.00000000000E+00 0. -1.
          2   -1    0    0  502    0 -0.00000000000E+00 -0.00000000000E+00 -0.17256193850E+04  0.17256193850E+04  0.00000000000E+00 0. -1.
         25    1    1    2    0    0  0.87327619387E+02  0.22484801607E+03 -0.87689051261E+03  0.91801128237E+03  0.12500000000E+03 0.  0.
         21    1    1    2  503  501  0.26224061458E+02  0.10483710321E+02  0.15281781481E+03  0.15540557938E+03  0.00000000000E+00 0. -1.
          2    1    1    2  501    0 -0.11355168085E+03 -0.23533172639E+03 -0.80623211445E+03  0.84751709602E+03  0.00000000000E+00 0. -1.
<mgrwt>
<rscale>  4 0.28043612E+03</rscale>
<asrwt>0</asrwt>
<pdfrwt beam="1">  1       21 0.30048395E-01 0.28043612E+03</pdfrwt>
<pdfrwt beam="2">  1        2 0.26547991E+00 0.28043612E+03</pdfrwt>
<totfact> 0.13550896E+03</totfact>
</mgrwt>
</event>
<event>
 5    0  0.3040647E+000  0.2513608E+03  0.7546771E-02  0.1112448E+00
          1   -1    0    0  502    0 -0.00000000000E+00  0.00000000000E+00  0.63813169384E+03  0.63813169384E+03  0.00000000000E+00 0. -1.
         21   -1    0    0  503  502  0.00000000000E+00 -0.00000000000E+00 -0.70711511002E+03  0.70711511002E+03  0.00000000000E+00 0.  1.
         25    1    1    2    0    0 -0.23308914788E+03  0.48821256870E+02 -0.42606900309E+03  0.50385896973E+03  0.12500000000E+03 0.  0.
         21    1    1    2  503  501  0.18678932426E+02 -0.13900966232E+02 -0.22183375076E+03  0.22305235340E+03  0.00000000000E+00 0.  1.
          1    1    1    2  501    0  0.21441021546E+03 -0.34920290638E+02  0.57891933767E+03  0.61833548072E+03  0.00000000000E+00 0. -1.
<mgrwt>
<rscale>  4 0.25136079E+03</rscale>
<asrwt>0</asrwt>
<pdfrwt beam="1">  1       21 0.10878694E+00 0.25136079E+03</pdfrwt>
<pdfrwt beam="2">  1        1 0.98174107E-01 0.25136079E+03</pdfrwt>
<totfact> 0.23116463E+02</totfact>
</mgrwt>
</event>
<event>
 5    0  0.3040647E+000  0.2218207E+03  0.7546771E-02  0.1132533E+00
          2   -1    0    0  502    0 -0.00000000000E+00  0.00000000000E+00  0.24482379203E+04  0.24482379203E+04  0.00000000000E+00 0.  1.
         21   -1    0    0  503  502  0.00000000000E+00 -0.00000000000E+00 -0.88394185611E+02  0.88394185611E+02  0.00000000000E+00 0.  1.
         25    1    1    2    0    0 -0.20289739167E+03  0.15594247732E+02  0.20820408682E+03  0.31683508940E+03  0.12500000000E+03 0.  0.
         21    1    1    2  503  501  0.23295378383E+02  0.13079200701E+02 -0.24393034563E+02  0.36176792011E+02  0.00000000000E+00 0.  1.
          2    1    1    2  501    0  0.17960201328E+03 -0.28673448433E+02  0.21760326824E+04  0.21836202245E+04  0.00000000000E+00 0.  1.
<mgrwt>
<rscale>  4 0.22182072E+03</rscale>
<asrwt>0</asrwt>
<pdfrwt beam="1">  1       21 0.13599107E-01 0.22182072E+03</pdfrwt>
<pdfrwt beam="2">  1        2 0.37665194E+00 0.22182072E+03</pdfrwt>
<totfact> 0.25753044E+03</totfact>
</mgrwt>
</event>
<event>
 5    0  0.3040647E+000  0.3444524E+03  0.7546771E-02  0.1064915E+00
         -1   -1    0    0    0  501 -0.00000000000E+00  0.00000000000E+00  0.18927646558E+03  0.18927646558E+03  0.00000000000E+00 0. -1.
         21   -1    0    0  501  502  0.00000000000E+00 -0.00000000000E+00 -0.96905982285E+03  0.96905982285E+03  0.00000000000E+00 0. -1.
         25    1    1    2    0    0  0.18705735741E+03 -0.22553035111E+03 -0.67876207247E+03  0.74979820302E+03  0.12500000000E+03 0.  0.
         21    1    1    2  503  502  0.12955208125E+01 -0.43416276792E+02 -0.65066574626E+02  0.78232413987E+02  0.00000000000E+00 0. -1.
         -1    1    1    2    0  503 -0.18835287822E+03  0.26894662790E+03 -0.35954710181E+02  0.33030567143E+03  0.00000000000E+00 0. -1.
<mgrwt>
<rscale>  4 0.34445242E+03</rscale>
<asrwt>0</asrwt>
<pdfrwt beam="1">  1       21 0.14908613E+00 0.34445242E+03</pdfrwt>
<pdfrwt beam="2">  1       -1 0.29119456E-01 0.34445242E+03</pdfrwt>
<totfact> 0.27733424E+02</totfact>
</mgrwt>
</event>
<event>
 5    0  0.3040647E+000  0.2446032E+03  0.7546771E-02  0.1116764E+00
         21   -1    0    0  503  502  0.00000000000E+00  0.00000000000E+00  0.61450379115E+02  0.61450379115E+02  0.00000000000E+00 0. -1.
          1   -1    0    0  502    0 -0.00000000000E+00 -0.00000000000E+00 -0.10086763302E+04  0.10086763302E+04  0.00000000000E+00 0.  1.
         25    1    1    2    0    0  0.84258787125E+02  0.19262967139E+03 -0.33847327303E+03  0.41760614227E+03  0.12500000000E+03 0.  0.
         21    1    1    2  503  501 -0.35369066756E+02 -0.98278906700E+02 -0.15794492210E+03  0.18935763202E+03  0.00000000000E+00 0. -1.
          1    1    1    2  501    0 -0.48889720369E+02 -0.94350764688E+02 -0.45080775595E+03  0.46316293503E+03  0.00000000000E+00 0.  1.
<mgrwt>
<rscale>  4 0.24460322E+03</rscale>
<asrwt>0</asrwt>
<pdfrwt beam="1">  1       21 0.94539050E-02 0.24460322E+03</pdfrwt>
<pdfrwt beam="2">  1        1 0.15518096E+00 0.24460322E+03</pdfrwt>
<totfact> 0.15679500E+04</totfact>
</mgrwt>
</event>
<event>
 5    0  0.3040647E+000  0.3640693E+03  0.7546771E-02  0.1057106E+00
          1   -1    0    0  502    0 -0.00000000000E+00  0.00000000000E+00  0.19652497325E+04  0.19652497325E+04  0.00000000000E+00 0. -1.
         21   -1    0    0  503  502  0.00000000000E+00 -0.00000000000E+00 -0.10869464024E+03  0.10869464024E+03  0.00000000000E+00 0. -1.
         25    1    1    2    0    0  0.23951284883E+03  0.24218108641E+03  0.15678857004E+04  0.16093193135E+04  0.12500000000E+03 0.  0.
         21    1    1    2  503  501 -0.55437742169E+02 -0.10881060485E+02  0.81090185105E+01  0.57074485677E+02  0.00000000000E+00 0. -1.
          1    1    1    2  501    0 -0.18407510666E+03 -0.23130002593E+03  0.28056037334E+03  0.40755057352E+03  0.00000000000E+00 0. -1.
<mgrwt>
<rscale>  4 0.36375822E+03</rscale>
<asrwt>0</asrwt>
<pdfrwt beam="1">  1       21 0.16722254E-01 0.36406926E+03</pdfrwt>
<pdfrwt beam="2">  1        1 0.30234609E+00 0.36406926E+03</pdfrwt>
<totfact> 0.12092966E+03</totfact>
</mgrwt>
</event>
<event>
 5    0  0.3040647E+000  0.3215656E+03  0.7546771E-02  0.1074931E+00
          2   -1    0    0  502    0 -0.00000000000E+00  0.00000000000E+00  0.11472189214E+04  0.11472189214E+04  0.00000000000E+00 0. -1.
         21   -1    0    0  503  502  0.00000000000E+00 -0.00000000000E+00 -0.34803302465E+03  0.34803302465E+03  0.00000000000E+00 0.  1.
         25    1    1    2    0    0  0.22928586830E+03  0.12563211837E+03 -0.81997316733E+01  0.28990976901E+03  0.12500000000E+03 0.  0.
         21    1    1    2  503  501  0.39883422425E+02  0.10393405649E+02 -0.17392066256E+03  0.17873753699E+03  0.00000000000E+00 0.  1.
          2    1    1    2  501    0 -0.26916929072E+03 -0.13602552402E+03  0.98130629097E+03  0.10266046400E+04  0.00000000000E+00 0. -1.
<mgrwt>
<rscale>  4 0.32156563E+03</rscale>
<asrwt>0</asrwt>
<pdfrwt beam="1">  1       21 0.53543543E-01 0.32156563E+03</pdfrwt>
<pdfrwt beam="2">  1        2 0.17649522E+00 0.32156563E+03</pdfrwt>
<totfact> 0.84758429E+02</totfact>
</mgrwt>
</event>
<event>
 5    0  0.3040647E+000  0.2222866E+03  0.7546771E-02  0.1132190E+00
          2   -1    0    0  502    0 -0.00000000000E+00  0.00000000000E+00  0.61853289762E+03  0.61853289762E+03  0.00000000000E+00 0. -1.
         21   -1    0    0  503  502  0.00000000000E+00 -0.00000000000E+00 -0.33862158475E+03  0.33862158475E+03  0.00000000000E+00 0. -1.
         25    1    1    2    0    0  0.36469749829E+02 -0.20798259636E+03 -0.23048025846E+03  0.33664959911E+03  0.12500000000E+03 0.  0.
         21    1    1    2  503  501  0.38061903152E+02  0.41218925241E+02 -0.19983226102E+02  0.59557011300E+02  0.00000000000E+00 0. -1.
          2    1    1    2  501    0 -0.74531652981E+02  0.16676367112E+03  0.53037479743E+03  0.56094787196E+03  0.00000000000E+00 0. -1.
<mgrwt>
<rscale>  4 0.22228657E+03</rscale>
<asrwt>0</asrwt>
<pdfrwt beam="1">  1       21 0.52095629E-01 0.22228657E+03</pdfrwt>
<pdfrwt beam="2">  1        2 0.95158907E-01 0.22228657E+03</pdfrwt>
<totfact> 0.21135038E+03</totfact>
</mgrwt>
</event>
<event>
 5    0  0.3040647E+000  0.2753152E+03  0.7546771E-02  0.1098276E+00
          1   -1    0    0  502    0 -0.00000000000E+00  0.00000000000E+00  0.20002914876E+04  0.20002914876E+04  0.00000000000E+00 0. -1.
         21   -1    0    0  503  502  0.00000000000E+00 -0.00000000000E+00 -0.55005990443E+02  0.55005990443E+02  0.00000000000E+00 0.  1.
         25    1    1    2    0    0  0.23149231153E+03  0.38884369054E+02  0.39224168416E+03  0.47389790382E+03  0.12500000000E+03 0.  0.
         21    1    1    2  503  501  0.15621933147E+02 -0.17402681196E+02  0.28772280179E+02  0.37077516297E+02  0.00000000000E+00 0. -1.
          1    1    1    2  501    0 -0.24711424467E+03 -0.21481687858E+02  0.15242715329E+04  0.15443220580E+04  0.00000000000E+00 0. -1.
<mgrwt>
<rscale>  4 0.27531524E+03</rscale>
<asrwt>0</asrwt>
<pdfrwt beam="1">  1       21 0.84624616E-02 0.27531524E+03</pdfrwt>
<pdfrwt beam="2">  1        1 0.30773710E+00 0.27531524E+03</pdfrwt>
<totfact> 0.40571827E+03</totfact>
</mgrwt>
</event>
<event>
 5    0  0.3040647E+000  0.3369018E+03  0.7546771E-02  0.1068123E+00
         21   -1    0    0  503  502  0.00000000000E+00  0.00000000000E+00  0.64206754242E+02  0.64206754242E+02  0.00000000000E+00 0.  1.
          1   -1    0    0  502    0 -0.00000000000E+00 -0.00000000000E+00 -0.32511540057E+04  0.32511540057E+04  0.00000000000E+00 0. -1.
         25    1    1    2    0    0 -0.16405836703E+03 -0.25364419463E+03 -0.14874349575E+04  0.15229373848E+04  0.12500000000E+03 0.  0.
         21    1    1    2  503  501 -0.54853021495E+02  0.14590690092E+02  0.53576372521E+01  0.57012687021E+02  0.00000000000E+00 0.  1.
          1    1    1    2  501    0  0.21891138852E+03  0.23905350454E+03 -0.17048699312E+04  0.17354106881E+04  0.00000000000E+00 0. -1.
<mgrwt>
<rscale>  4 0.33690181E+03</rscale>
<asrwt>0</asrwt>
<pdfrwt beam="1">  1       21 0.98779634E-02 0.33690181E+03</pdfrwt>
<pdfrwt beam="2">  1        1 0.50017748E+00 0.33690181E+03</pdfrwt>
<totfact> 0.42478569E+02</totfact>
</mgrwt>
</event>
<event>
 5    0  0.3040647E+000  0.3360818E+03  0.7546771E-02  0.1068477E+00
         21   -1    0    0  503  502  0.00000000000E+00  0.00000000000E+00  0.31458473505E+03  0.31458473505E+03  0.00000000000E+00 0.  1.
          2   -1    0    0  502    0 -0.00000000000E+00 -0.00000000000E+00 -0.64713059650E+03  0.64713059650E+03  0.00000000000E+00 0.  1.
         25    1    1    2    0    0 -0.26341745029E+02 -0.29753106428E+03 -0.17558458605E+03  0.36833893169E+03  0.12500000000E+03 0.  0.
         21    1    1    2  503  501 -0.12008376567E+02 -0.21724874606E+02  0.14808526424E+03  0.15015131291E+03  0.00000000000E+00 0.  1.
          2    1    1    2  501    0  0.38350121596E+02  0.31925593889E+03 -0.30504653965E+03  0.44322508694E+03  0.00000000000E+00 0.  1.
<mgrwt>
<rscale>  4 0.33608177E+03</rscale>
<asrwt>0</asrwt>
<pdfrwt beam="1">  1       21 0.48397652E-01 0.33608177E+03</pdfrwt>
<pdfrwt beam="2">  1        2 0.99558552E-01 0.33608177E+03</pdfrwt>
<totfact> 0.22537178E+03</totfact>
</mgrwt>
</event>
<event>
 5    0  0.3040647E+000  0.2978515E+03  0.7546771E-02  0.1086320E+00
          1   -1    0    0  502    0 -0.00000000000E+00  0.00000000000E+00  0.35619849711E+04  0.35619849711E+04  0.00000000000E+00 0.  1.
         21   -1    0    0  503  502  0.00000000000E+00 -0.00000000000E+00 -0.50616058818E+02  0.50616058818E+02  0.00000000000E+00 0. -1.
         25    1    1    2    0    0  0.26495457792E+03 -0.25729083840E+01  0.48699722009E+03  0.56832986953E+03  0.12500000000E+03 0.  0.
         21    1    1    2  503  501  0.38670599531E+01 -0.35329786658E+02  0.81605992156E+02  0.89009471034E+02  0.00000000000E+00 0. -1.
          1    1    1    2  501    0 -0.26882163788E+03  0.37902695042E+02  0.29427657000E+04  0.29552616894E+04  0.00000000000E+00 0.  1.
<mgrwt>
<rscale>  4 0.29785151E+03</rscale>
<asrwt>0</asrwt>
<pdfrwt beam="1">  1       21 0.77870888E-02 0.29785151E+03</pdfrwt>
<pdfrwt beam="2">  1        1 0.54799749E+00 0.29785151E+03</pdfrwt>
<totfact> 0.38662936E+02</totfact>
</mgrwt>
</event>
<event>
 5    0  0.3040647E+000  0.2599022E+03  0.7546771E-02  0.1107202E+00
         21   -1    0    0  503  502  0.00000000000E+00  0.00000000000E+00  0.11096130280E+03  0.11096130280E+03  0.00000000000E+00 0. -1.
          2   -1    0    0  502    0 -0.00000000000E+00 -0.00000000000E+00 -0.16051904252E+04  0.16051904252E+04  0.00000000000E+00 0. -1.
         25    1    1    2    0    0 -0.24592163699E+03 -0.66075112854E+01 -0.16103721105E+03  0.31949819105E+03  0.12500000000E+03 0.  0.
         21    1    1    2  503  501  0.27213001090E+02  0.66556411301E+02 -0.37175955180E+02  0.80946617947E+02  0.00000000000E+00 0. -1.
          2    1    1    2  501    0  0.21870863590E+03 -0.59948900015E+02 -0.12960159561E+04  0.13157069190E+04  0.00000000000E+00 0. -1.
<mgrwt>
<rscale>  4 0.25990221E+03</rscale>
<asrwt>0</asrwt>
<pdfrwt beam="1">  1       21 0.17070970E-01 0.25990221E+03</pdfrwt>
<pdfrwt beam="2">  1        2 0.24695237E+00 0.25990221E+03</pdfrwt>
<totfact> 0.46503521E+03</totfact>
</mgrwt>
</event>
<event>
 5    0  0.3040647E+000  0.2131477E+03  0.7546771E-02  0.1139097E+00
         21   -1    0    0  503  502  0.00000000000E+00  0.00000000000E+00  0.74918774809E+03  0.74918774809E+03  0.00000000000E+00 0. -1.
          1   -1    0    0  502    0 -0.00000000000E+00 -0.00000000000E+00 -0.58578273566E+03  0.58578273566E+03  0.00000000000E+00 0. -1.
         25    1    1    2    0    0  0.61978930355E+02 -0.20185248796E+03  0.60586771249E+03  0.65367155342E+03  0.12500000000E+03 0.  0.
         21    1    1    2  503  501 -0.89153380019E+02  0.31742313456E+02  0.84514037301E+02  0.12687995166E+03  0.00000000000E+00 0. -1.
          1    1    1    2  501    0  0.27174449664E+02  0.17011017450E+03 -0.52697673737E+03  0.55441897867E+03  0.00000000000E+00 0. -1.
<mgrwt>
<rscale>  4 0.21314772E+03</rscale>
<asrwt>0</asrwt>
<pdfrwt beam="1">  1       21 0.11525965E+00 0.21314772E+03</pdfrwt>
<pdfrwt beam="2">  1        1 0.90120421E-01 0.21314772E+03</pdfrwt>
<totfact> 0.23175032E+02</totfact>
</mgrwt>
</event>
<event>
 5    0  0.3040647E+000  0.2492090E+03  0.7546771E-02  0.1113806E+00
          2   -1    0    0  502    0 -0.00000000000E+00  0.00000000000E+00  0.27714601508E+03  0.27714601508E+03  0.00000000000E+00 0.  1.
         21   -1    0    0  503  502  0.00000000000E+00 -0.00000000000E+00 -0.50539878703E+03  0.50539878703E+03  0.00000000000E+00 0.  1.
         25    1    1    2    0    0 -0.22188456045E+03  0.62240814338E+02 -0.23125617174E+03  0.34958703366E+03  0.12500000000E+03 0.  0.
         21    1    1    2  503  501  0.11209507459E+02 -0.11847310847E+03 -0.13103211135E+03  0.17700549340E+03  0.00000000000E+00 0.  1.
          2    1    1    2  501    0  0.21067505299E+03  0.56232294134E+02  0.13403551114E+03  0.25595227505E+03  0.00000000000E+00 0.  1.
<mgrwt>
<rscale>  4 0.24920905E+03</rscale>
<asrwt>0</asrwt>
<pdfrwt beam="1">  1       21 0.77753660E-01 0.24920905E+03</pdfrwt>
<pdfrwt beam="2">  1        2 0.42637848E-01 0.24920905E+03</pdfrwt>
<totfact> 0.21187529E+03</totfact>
</mgrwt>
</event>
<event>
 5    0  0.3040647E+000  0.2834977E+03  0.7546771E-02  0.1093794E+00
         21   -1    0    0  503  502  0.00000000000E+00  0.00000000000E+00  0.44198416584E+02  0.44198416584E+02  0.00000000000E+00 0. -1.
          2   -1    0    0  502    0 -0.00000000000E+00 -0.00000000000E+00 -0.23275358459E+04  0.23275358459E+04  0.00000000000E+00 0. -1.
         25    1    1    2    0    0  0.10194297021E+03 -0.22958410075E+03 -0.79738411983E+03  0.84530921150E+03  0.12500000000E+03 0.  0.
         21    1    1    2  503  501 -0.22337305192E+02 -0.14111339844E+02 -0.98081503667E+01  0.28183061030E+02  0.00000000000E+00 0. -1.
          2    1    1    2  501    0 -0.79605665017E+02  0.24369544059E+03 -0.14761451592E+04  0.14982419900E+04  0.00000000000E+00 0. -1.
<mgrwt>
<rscale>  4 0.28349765E+03</rscale>
<asrwt>0</asrwt>
<pdfrwt beam="1">  1       21 0.67997549E-02 0.28349765E+03</pdfrwt>
<pdfrwt beam="2">  1        2 0.35808252E+00 0.28349765E+03</pdfrwt>
<totfact> 0.99591434E+03</totfact>
</mgrwt>
</event>
<event>
 5    0  0.3040647E+000  0.2902134E+03  0.7546771E-02  0.1090238E+00
         21   -1    0    0  503  502  0.00000000000E+00  0.00000000000E+00  0.14038575077E+03  0.14038575077E+03  0.00000000000E+00 0.  1.
          1   -1    0    0  502    0 -0.00000000000E+00 -0.00000000000E+00 -0.24416682278E+04  0.24416682278E+04  0.00000000000E+00 0.  1.
         25    1    1    2    0    0 -0.22225715661E+03  0.12826377112E+03 -0.12033481934E+03  0.30976653692E+03  0.12500000000E+03 0.  0.
         21    1    1    2  503  501  0.16917086010E+02  0.35371859409E+02  0.27751395945E+02  0.48036405090E+02  0.00000000000E+00 0.  1.
          1    1    1    2  501    0  0.20534007060E+03 -0.16363563053E+03 -0.22086990536E+04  0.22242510365E+04  0.00000000000E+00 0.  1.
<mgrwt>
<rscale>  4 0.29021344E+03</rscale>
<asrwt>0</asrwt>
<pdfrwt beam="1">  1       21 0.21597808E-01 0.29021344E+03</pdfrwt>
<pdfrwt beam="2">  1        1 0.37564126E+00 0.29021344E+03</pdfrwt>
<totfact> 0.37467220E+02</totfact>
</mgrwt>
</event>
<event>
 5    0  0.3040647E+000  0.5134502E+03  0.7546771E-02  0.1010327E+00
          2   -1    0    0  502    0 -0.00000000000E+00  0.00000000000E+00  0.16528828854E+04  0.16528828854E+04  0.00000000000E+00 0.  1.
         21   -1    0    0  503  502  0.00000000000E+00 -0.00000000000E+00 -0.51346239910E+03  0.51346239910E+03  0.00000000000E+00 0.  1.
         25    1    1    2    0    0 -0.47313446866E+03  0.97965551423E+02 -0.29362632848E+03  0.57904653999E+03  0.12500000000E+03 0.  0.
         21    1    1    2  503  501 -0.90527738684E+01  0.32358525040E+02 -0.27679560574E+02  0.43533721769E+02  0.00000000000E+00 0.  1.
          2    1    1    2  501    0  0.48218724253E+03 -0.13032407646E+03  0.14607263754E+04  0.15437650227E+04  0.00000000000E+00 0.  1.
<mgrwt>
<rscale>  4 0.51345016E+03</rscale>
<asrwt>0</asrwt>
<pdfrwt beam="1">  1       21 0.78994216E-01 0.51345016E+03</pdfrwt>
<pdfrwt beam="2">  1        2 0.25428967E+00 0.51345016E+03</pdfrwt>
<totfact> 0.17504634E+02</totfact>
</mgrwt>
</event>
<event>
 5    0  0.3040647E+000  0.2497680E+03  0.7546771E-02  0.1113452E+00
         -3   -1    0    0    0  501 -0.00000000000E+00  0.00000000000E+00  0.24199896033E+04  0.24199896033E+04  0.00000000000E+00 0.  1.
         21   -1    0    0  501  502  0.00000000000E+00 -0.00000000000E+00 -0.42889144026E+02  0.42889144026E+02  0.00000000000E+00 0.  1.
         25    1    1    2    0    0 -0.20650484980E+03  0.14365478687E+03  0.63799734399E+03  0.69709867431E+03  0.12500000000E+03 0.  0.
         21    1    1    2  503  502  0.21799952556E+02 -0.46474314105E+02  0.90718317245E+02  0.10423489285E+03  0.00000000000E+00 0. -1.
         -3    1    1    2    0  503  0.18470489724E+03 -0.97180472766E+02  0.16483847980E+04  0.16615451802E+04  0.00000000000E+00 0.  1.
<mgrwt>
<rscale>  4 0.24976799E+03</rscale>
<asrwt>0</asrwt>
<pdfrwt beam="1">  1       21 0.65983318E-02 0.24976799E+03</pdfrwt>
<pdfrwt beam="2">  1       -3 0.37230599E+00 0.24976799E+03</pdfrwt>
<totfact> 0.14973491E+02</totfact>
</mgrwt>
</event>
<event>
 5    0  0.3040647E+000  0.1905387E+03  0.7546771E-02  0.1157976E+00
         21   -1    0    0  503  502  0.00000000000E+00  0.00000000000E+00  0.42293185462E+03  0.42293185462E+03  0.00000000000E+00 0.  1.
          2   -1    0    0  502    0 -0.00000000000E+00 -0.00000000000E+00 -0.19100246950E+04  0.19100246950E+04  0.00000000000E+00 0. -1.
         25    1    1    2    0    0 -0.25025532310E+03  0.27584355181E+02 -0.32283523785E+03  0.42806099354E+03  0.12500000000E+03 0.  0.
         21    1    1    2  503  501  0.12831476838E+03 -0.56864759193E+02  0.35434268860E+03  0.38112599175E+03  0.00000000000E+00 0.  1.
          2    1    1    2  501    0  0.12194055472E+03  0.29280404012E+02 -0.15186002912E+04  0.15237695644E+04  0.00000000000E+00 0. -1.
<mgrwt>
<rscale>  4 0.19053871E+03</rscale>
<asrwt>0</asrwt>
<pdfrwt beam="1">  1       21 0.65066439E-01 0.19053871E+03</pdfrwt>
<pdfrwt beam="2">  1        2 0.29384995E+00 0.19053871E+03</pdfrwt>
<totfact> 0.23377771E+02</totfact>
</mgrwt>
</event>
<event>
 5    0  0.3040647E+000  0.2123342E+03  0.7546771E-02  0.1139731E+00
          2   -1    0    0  502    0 -0.00000000000E+00  0.00000000000E+00  0.21559908599E+04  0.21559908599E+04  0.00000000000E+00 0. -1.
         21   -1    0    0  503  502  0.00000000000E+00 -0.00000000000E+00 -0.88321339747E+03  0.88321339747E+03  0.00000000000E+00 0.  1.
         25    1    1    2    0    0 -0.44319665332E+02 -0.21844657576E+03  0.10634639810E+04  0.10937384414E+04  0.12500000000E+03 0.  0.
         21    1    1    2  503  501  0.58599263669E+02  0.64090332761E+02 -0.86030295645E+03  0.86467486452E+03  0.00000000000E+00 0.  1.
          2    1    1    2  501    0 -0.14279598338E+02  0.15435624300E+03  0.10696164378E+04  0.10807909515E+04  0.00000000000E+00 0. -1.
<mgrwt>
<rscale>  4 0.21233419E+03</rscale>
<asrwt>0</asrwt>
<pdfrwt beam="1">  1       21 0.13587898E+00 0.21233419E+03</pdfrwt>
<pdfrwt beam="2">  1        2 0.33169090E+00 0.21233419E+03</pdfrwt>
<totfact> 0.30172065E+01</totfact>
</mgrwt>
</event>
<event>
 5    0  0.3040647E+000  0.4323903E+03  0.7546771E-02  0.1033108E+00
          2   -1    0    0  502    0 -0.00000000000E+00  0.00000000000E+00  0.72906525261E+03  0.72906525261E+03  0.00000000000E+00 0. -1.
         21   -1    0    0  503  502  0.00000000000E+00 -0.00000000000E+00 -0.69737973037E+03  0.69737973037E+03  0.00000000000E+00 0. -1.
         25    1    1    2    0    0  0.72442316985E+02  0.38221074431E+03 -0.29150872635E+03  0.50193154901E+03  0.12500000000E+03 0.  0.
         21    1    1    2  503  501  0.43326275085E+01  0.29022781151E+02 -0.22948858297E+03  0.23135709023E+03  0.00000000000E+00 0.  1.
          2    1    1    2  501    0 -0.76774944494E+02 -0.41123352546E+03  0.55268283155E+03  0.69315634373E+03  0.00000000000E+00 0. -1.
<mgrwt>
<rscale>  4 0.43239033E+03</rscale>
<asrwt>0</asrwt>
<pdfrwt beam="1">  1       21 0.10728919E+00 0.43239033E+03</pdfrwt>
<pdfrwt beam="2">  1        2 0.11216389E+00 0.43239033E+03</pdfrwt>
<totfact> 0.31186483E+02</totfact>
</mgrwt>
</event>
<event>
 5    0  0.3040647E+000  0.2853005E+03  0.7546771E-02  0.1092829E+00
          2   -1    0    0  502    0 -0.00000000000E+00  0.00000000000E+00  0.98401366658E+03  0.98401366658E+03  0.00000000000E+00 0. -1.
         21   -1    0    0  503  502  0.00000000000E+00 -0.00000000000E+00 -0.49407481401E+03  0.49407481401E+03  0.00000000000E+00 0. -1.
         25    1    1    2    0    0 -0.12440897734E+03  0.22741770818E+03  0.79773242525E+02  0.29863887533E+03  0.12500000000E+03 0.  0.
         21    1    1    2  503  501  0.54187630303E+02  0.19768649470E+02 -0.36152595778E+03  0.36609850714E+03  0.00000000000E+00 0. -1.
          2    1    1    2  501    0  0.70221347033E+02 -0.24718635764E+03  0.77169156782E+03  0.81335109813E+03  0.00000000000E+00 0. -1.
<mgrwt>
<rscale>  4 0.28530047E+03</rscale>
<asrwt>0</asrwt>
<pdfrwt beam="1">  1       21 0.76011510E-01 0.28530047E+03</pdfrwt>
<pdfrwt beam="2">  1        2 0.15138672E+00 0.28530047E+03</pdfrwt>
<totfact> 0.49976955E+02</totfact>
</mgrwt>
</event>
<event>
 5    0  0.3040647E+000  0.2140521E+03  0.7546771E-02  0.1138397E+00
          2   -1    0    0  502    0 -0.00000000000E+00  0.00000000000E+00  0.11773507586E+04  0.11773507586E+04  0.00000000000E+00 0. -1.
         21   -1    0    0  503  502  0.00000000000E+00 -0.00000000000E+00 -0.59878369310E+03  0.59878369310E+03  0.00000000000E+00 0.  1.
         25    1    1    2    0    0  0.21888095078E+03  0.13439105776E+03  0.67525138421E+02  0.29352081926E+03  0.12500000000E+03 0.  0.
         21    1    1    2  503  501 -0.15424244955E+03 -0.64832069580E+02 -0.46901632066E+03  0.49796610280E+03  0.00000000000E+00 0.  1.
          2    1    1    2  501    0 -0.64638501235E+02 -0.69558988177E+02  0.98005824775E+03  0.98464752965E+03  0.00000000000E+00 0. -1.
<mgrwt>
<rscale>  4 0.21405208E+03</rscale>
<asrwt>0</asrwt>
<pdfrwt beam="1">  1       21 0.92120569E-01 0.21405208E+03</pdfrwt>
<pdfrwt beam="2">  1        2 0.18113088E+00 0.21405208E+03</pdfrwt>
<totfact> 0.25745253E+02</totfact>
</mgrwt>
</event>
<event>
 5    0  0.3040647E+000  0.2625669E+03  0.7546771E-02  0.1105611E+00
         21   -1    0    0  501  502  0.00000000000E+00  0.00000000000E+00  0.85001004642E+03  0.85001004642E+03  0.00000000000E+00 0.  1.
         -1   -1    0    0    0  501 -0.00000000000E+00 -0.00000000000E+00 -0.14721659571E+03  0.14721659571E+03  0.00000000000E+00 0. -1.
         25    1    1    2    0    0  0.21779195235E+03  0.10492854584E+03  0.54797687858E+03  0.61183902597E+03  0.12500000000E+03 0.  0.
         21    1    1    2  503  502 -0.56542628166E+02  0.60678621800E+02  0.12823765161E+03  0.15272150874E+03  0.00000000000E+00 0.  1.
         -1    1    1    2    0  503 -0.16124932418E+03 -0.16560716764E+03  0.26578920524E+02  0.23266610741E+03  0.00000000000E+00 0. -1.
<mgrwt>
<rscale>  4 0.26256688E+03</rscale>
<asrwt>0</asrwt>
<pdfrwt beam="1">  1       21 0.13077077E+00 0.26256688E+03</pdfrwt>
<pdfrwt beam="2">  1       -1 0.22648708E-01 0.26256688E+03</pdfrwt>
<totfact> 0.61519175E+02</totfact>
</mgrwt>
</event>
<event>
 5    0  0.3040647E+000  0.1892501E+03  0.7546771E-02  0.1159139E+00
         21   -1    0    0  503  502  0.00000000000E+00  0.00000000000E+00  0.42154083112E+03  0.42154083112E+03  0.00000000000E+00 0.  1.
          2   -1    0    0  502    0 -0.00000000000E+00 -0.00000000000E+00 -0.49239508982E+03  0.49239508982E+03  0.00000000000E+00 0. -1.
         25    1    1    2    0    0 -0.58563343476E+02 -0.22401689325E+03  0.13730932989E+03  0.29680310938E+03  0.12500000000E+03 0.  0.
         21    1    1    2  503  501  0.15702296189E+02  0.93606097472E+02  0.18105009177E+03  0.20442064309E+03  0.00000000000E+00 0.  1.
          2    1    1    2  501    0  0.42861047287E+02  0.13041079578E+03 -0.38921368036E+03  0.41271216847E+03  0.00000000000E+00 0. -1.
<mgrwt>
<rscale>  4 0.18925013E+03</rscale>
<asrwt>0</asrwt>
<pdfrwt beam="1">  1       21 0.64852436E-01 0.18925013E+03</pdfrwt>
<pdfrwt beam="2">  1        2 0.75753091E-01 0.18925013E+03</pdfrwt>
<totfact> 0.17395661E+03</totfact>
</mgrwt>
</event>
<event>
 5    0  0.3040647E+000  0.2028245E+03  0.7546771E-02  0.1147378E+00
          2   -1    0    0  502    0 -0.00000000000E+00  0.00000000000E+00  0.23531841802E+04  0.23531841802E+04  0.00000000000E+00 0.  1.
         21   -1    0    0  503  502  0.00000000000E+00 -0.00000000000E+00 -0.54080772321E+03  0.54080772321E+03  0.00000000000E+00 0.  1.
         25    1    1    2    0    0 -0.19285803442E+03 -0.81430577458E+02 -0.15547099938E+03  0.28917363647E+03  0.12500000000E+03 0.  0.
         21    1    1    2  503  501  0.49502841426E+02  0.12395072838E+02 -0.31365252845E+03  0.31777677345E+03  0.00000000000E+00 0.  1.
          2    1    1    2  501    0  0.14335519299E+03  0.69035504620E+02  0.22814999848E+04  0.22870414935E+04  0.00000000000E+00 0.  1.
<mgrwt>
<rscale>  4 0.20282450E+03</rscale>
<asrwt>0</asrwt>
<pdfrwt beam="1">  1       21 0.83201190E-01 0.20282450E+03</pdfrwt>
<pdfrwt beam="2">  1        2 0.36202833E+00 0.20282450E+03</pdfrwt>
<totfact> 0.78270749E+01</totfact>
</mgrwt>
</event>
<event>
 5    0  0.3040647E+000  0.3852765E+03  0.7546771E-02  0.1049001E+00
         21   -1    0    0  503  502  0.00000000000E+00  0.00000000000E+00  0.12068909950E+03  0.12068909950E+03  0.00000000000E+00 0. -1.
          2   -1    0    0  502    0 -0.00000000000E+00 -0.00000000000E+00 -0.26120466232E+04  0.26120466232E+04  0.00000000000E+00 0. -1.
         25    1    1    2    0    0 -0.21956328090E+03 -0.31693355696E+03 -0.33387210503E+03  0.52511950674E+03  0.12500000000E+03 0.  0.
         21    1    1    2  503  501  0.92834789760E+01  0.23354562780E+02 -0.57405166942E+01  0.25779296276E+02  0.00000000000E+00 0.  1.
          2    1    1    2  501    0  0.21027980192E+03  0.29357899418E+03 -0.21517449020E+04  0.21818369197E+04  0.00000000000E+00 0. -1.
<mgrwt>
<rscale>  4 0.38527654E+03</rscale>
<asrwt>0</asrwt>
<pdfrwt beam="1">  1       21 0.18567555E-01 0.38527654E+03</pdfrwt>
<pdfrwt beam="2">  1        2 0.40185331E+00 0.38527654E+03</pdfrwt>
<totfact> 0.10926527E+03</totfact>
</mgrwt>
</event>
<event>
 5    0  0.3040647E+000  0.2876853E+03  0.7546771E-02  0.1091564E+00
         21   -1    0    0  503  502  0.00000000000E+00  0.00000000000E+00  0.13829749482E+03  0.13829749482E+03  0.00000000000E+00 0. -1.
          2   -1    0    0  502    0 -0.00000000000E+00 -0.00000000000E+00 -0.30169523097E+04  0.30169523097E+04  0.00000000000E+00 0. -1.
         25    1    1    2    0    0 -0.20624276538E+03 -0.13633765207E+03 -0.40189828300E+02  0.27993616405E+03  0.12500000000E+03 0.  0.
         21    1    1    2  503  501 -0.32339700875E+02  0.33284314495E+02 -0.30918616592E+02  0.55764349687E+02  0.00000000000E+00 0.  1.
          2    1    1    2  501    0  0.23858246625E+03  0.10305333758E+03 -0.28075463700E+04  0.28195492908E+04  0.00000000000E+00 0. -1.
<mgrwt>
<rscale>  4 0.28768528E+03</rscale>
<asrwt>0</asrwt>
<pdfrwt beam="1">  1       21 0.21276538E-01 0.28768528E+03</pdfrwt>
<pdfrwt beam="2">  1        2 0.46414651E+00 0.28768528E+03</pdfrwt>
<totfact> 0.51547730E+02</totfact>
</mgrwt>
</event>
<event>
 5    0  0.3040647E+000  0.2829953E+03  0.7546771E-02  0.1094064E+00
         21   -1    0    0  503  502  0.00000000000E+00  0.00000000000E+00  0.35869305019E+02  0.35869305019E+02  0.00000000000E+00 0.  1.
          2   -1    0    0  502    0 -0.00000000000E+00 -0.00000000000E+00 -0.23130237878E+04  0.23130237878E+04  0.00000000000E+00 0.  1.
         25    1    1    2    0    0 -0.22041140197E+03 -0.11081129102E+03 -0.96373945725E+03  0.10026360605E+04  0.12500000000E+03 0.  0.
         21    1    1    2  503  501 -0.23179954715E+02  0.21173331493E+02 -0.82464614459E+02  0.88238500129E+02  0.00000000000E+00 0.  1.
          2    1    1    2  501    0  0.24359135669E+03  0.89637959523E+02 -0.12309504111E+04  0.12580185322E+04  0.00000000000E+00 0.  1.
<mgrwt>
<rscale>  4 0.28299529E+03</rscale>
<asrwt>0</asrwt>
<pdfrwt beam="1">  1       21 0.55183545E-02 0.28299529E+03</pdfrwt>
<pdfrwt beam="2">  1        2 0.35584982E+00 0.28299529E+03</pdfrwt>
<totfact> 0.14549411E+04</totfact>
</mgrwt>
</event>
<event>
 5    0  0.3040647E+000  0.3602305E+03  0.7546771E-02  0.1058493E+00
          2   -1    0    0  502    0 -0.00000000000E+00  0.00000000000E+00  0.44348213708E+03  0.44348213708E+03  0.00000000000E+00 0.  1.
         21   -1    0    0  503  502  0.00000000000E+00 -0.00000000000E+00 -0.68726907782E+03  0.68726907782E+03  0.00000000000E+00 0.  1.
         25    1    1    2    0    0  0.34956548090E+03  0.31829382205E+02 -0.43484412152E+03  0.57264609056E+03  0.12500000000E+03 0.  0.
         21    1    1    2  503  501 -0.13742954016E+02 -0.22251665377E+02 -0.10628882685E+03  0.10945921666E+03  0.00000000000E+00 0. -1.
          2    1    1    2  501    0 -0.33582252688E+03 -0.95777168287E+01  0.29734600763E+03  0.44864590768E+03  0.00000000000E+00 0.  1.
<mgrwt>
<rscale>  4 0.36023048E+03</rscale>
<asrwt>0</asrwt>
<pdfrwt beam="1">  1       21 0.10573370E+00 0.36023048E+03</pdfrwt>
<pdfrwt beam="2">  1        2 0.68228021E-01 0.36023048E+03</pdfrwt>
<totfact> 0.59315298E+02</totfact>
</mgrwt>
</event>
<event>
 5    0  0.3040647E+000  0.2210869E+03  0.7546771E-02  0.1133075E+00
          2   -1    0    0  502    0 -0.00000000000E+00  0.00000000000E+00  0.12708108001E+04  0.12708108001E+04  0.00000000000E+00 0.  1.
         21   -1    0    0  503  502  0.00000000000E+00 -0.00000000000E+00 -0.80448532932E+02  0.80448532932E+02  0.00000000000E+00 0. -1.
         25    1    1    2    0    0  0.19661304102E+03  0.52496999696E+02  0.30623758178E+03  0.38835432194E+03  0.12500000000E+03 0.  0.
         21    1    1    2  503  501 -0.23484623496E+02 -0.11434227131E+02 -0.25224338071E+02  0.36311655456E+02  0.00000000000E+00 0. -1.
          2    1    1    2  501    0 -0.17312841752E+03 -0.41062772565E+02  0.90934902345E+03  0.92659335563E+03  0.00000000000E+00 0.  1.
<mgrwt>
<rscale>  4 0.22108686E+03</rscale>
<asrwt>0</asrwt>
<pdfrwt beam="1">  1       21 0.12376698E-01 0.22108686E+03</pdfrwt>
<pdfrwt beam="2">  1        2 0.19550934E+00 0.22108686E+03</pdfrwt>
<totfact> 0.12836728E+04</totfact>
</mgrwt>
</event>
<event>
 5    0  0.3040647E+000  0.2981026E+03  0.7546771E-02  0.1086193E+00
          1   -1    0    0  502    0 -0.00000000000E+00  0.00000000000E+00  0.17967418790E+04  0.17967418790E+04  0.00000000000E+00 0. -1.
         21   -1    0    0  503  502  0.00000000000E+00 -0.00000000000E+00 -0.27743587625E+03  0.27743587625E+03  0.00000000000E+00 0. -1.
         25    1    1    2    0    0 -0.22820637142E+03 -0.33083958498E+03  0.10660069618E+03  0.43419084211E+03  0.12500000000E+03 0.  0.
         21    1    1    2  503  501  0.86477739325E+02  0.20054003666E+03  0.42479906786E+01  0.21843248643E+03  0.00000000000E+00 0. -1.
          1    1    1    2  501    0  0.14172863209E+03  0.13029954832E+03  0.14084573159E+04  0.14215544267E+04  0.00000000000E+00 0. -1.
<mgrwt>
<rscale>  4 0.29810260E+03</rscale>
<asrwt>0</asrwt>
<pdfrwt beam="1">  1       21 0.42682444E-01 0.29810260E+03</pdfrwt>
<pdfrwt beam="2">  1        1 0.27642182E+00 0.29810260E+03</pdfrwt>
<totfact> 0.25718529E+02</totfact>
</mgrwt>
</event>
<event>
 5    0  0.3040647E+000  0.4636054E+03  0.7546771E-02  0.1023741E+00
         21   -1    0    0  503  502  0.00000000000E+00  0.00000000000E+00  0.12907623128E+03  0.12907623128E+03  0.00000000000E+00 0. -1.
          2   -1    0    0  502    0 -0.00000000000E+00 -0.00000000000E+00 -0.18531440270E+04  0.18531440270E+04  0.00000000000E+00 0. -1.
         25    1    1    2    0    0 -0.45004895823E+03  0.51174910356E+02 -0.11476624257E+04  0.12401278078E+04  0.12500000000E+03 0.  0.
         21    1    1    2  503  501  0.15159145116E+02 -0.17251312027E+02 -0.55033787720E+01  0.23615558965E+02  0.00000000000E+00 0.  1.
          2    1    1    2  501    0  0.43488981312E+03 -0.33923598329E+02 -0.57090199126E+03  0.71847689156E+03  0.00000000000E+00 0. -1.
<mgrwt>
<rscale>  4 0.46360543E+03</rscale>
<asrwt>0</asrwt>
<pdfrwt beam="1">  1       21 0.19857883E-01 0.46360543E+03</pdfrwt>
<pdfrwt beam="2">  1        2 0.28509906E+00 0.46360543E+03</pdfrwt>
<totfact> 0.24338600E+03</totfact>
</mgrwt>
</event>
<event>
 5    0  0.3040647E+000  0.3131670E+03  0.7546771E-02  0.1078838E+00
          1   -1    0    0  502    0 -0.00000000000E+00  0.00000000000E+00  0.55381499997E+03  0.55381499997E+03  0.00000000000E+00 0. -1.
         21   -1    0    0  503  502  0.00000000000E+00 -0.00000000000E+00 -0.23199523126E+03  0.23199523126E+03  0.00000000000E+00 0. -1.
         25    1    1    2    0    0  0.19253327296E+03 -0.21302464915E+03  0.36855684994E+03  0.48364006656E+03  0.12500000000E+03 0.  0.
         21    1    1    2  503  501 -0.56285755842E+02  0.34662807901E+02 -0.40728919459E+02  0.77643038597E+02  0.00000000000E+00 0. -1.
          1    1    1    2  501    0 -0.13624751711E+03  0.17836184125E+03 -0.60081617681E+01  0.22452712607E+03  0.00000000000E+00 0. -1.
<mgrwt>
<rscale>  4 0.31316699E+03</rscale>
<asrwt>0</asrwt>
<pdfrwt beam="1">  1       21 0.35691574E-01 0.31316699E+03</pdfrwt>
<pdfrwt beam="2">  1        1 0.85202307E-01 0.31316699E+03</pdfrwt>
<totfact> 0.31759012E+03</totfact>
</mgrwt>
</event>
<event>
 5    0  0.3040647E+000  0.3307932E+03  0.7546771E-02  0.1070786E+00
          2   -1    0    0  502    0 -0.00000000000E+00  0.00000000000E+00  0.51839443318E+03  0.51839443318E+03  0.00000000000E+00 0. -1.
         21   -1    0    0  503  502  0.00000000000E+00 -0.00000000000E+00 -0.44152986927E+03  0.44152986927E+03  0.00000000000E+00 0. -1.
         25    1    1    2    0    0  0.30971762557E+03  0.13643637237E+02 -0.29473947168E+03  0.44565402791E+03  0.12500000000E+03 0.  0.
         21    1    1    2  503  501 -0.26616588585E+02  0.47239391760E+02  0.17792916439E+02  0.57066547093E+02  0.00000000000E+00 0. -1.
          2    1    1    2  501    0 -0.28310103699E+03 -0.60883028997E+02  0.35381111914E+03  0.45720372745E+03  0.00000000000E+00 0. -1.
<mgrwt>
<rscale>  4 0.33079316E+03</rscale>
<asrwt>0</asrwt>
<pdfrwt beam="1">  1       21 0.67927673E-01 0.33079316E+03</pdfrwt>
<pdfrwt beam="2">  1        2 0.79752989E-01 0.33079316E+03</pdfrwt>
<totfact> 0.14057793E+03</totfact>
</mgrwt>
</event>
<event>
 5    0  0.3040647E+000  0.2741891E+03  0.7546771E-02  0.1098906E+00
          4   -1    0    0  502    0 -0.00000000000E+00  0.00000000000E+00  0.22079022672E+03  0.22079022672E+03  0.00000000000E+00 0.  1.
         21   -1    0    0  503  502  0.00000000000E+00 -0.00000000000E+00 -0.60757573176E+03  0.60757573176E+03  0.00000000000E+00 0. -1.
         25    1    1    2    0    0  0.24442497382E+03  0.60391621150E+01 -0.44032215927E+03  0.51893028747E+03  0.12500000000E+03 0.  0.
         21    1    1    2  503  501 -0.35412174307E+01  0.34898832715E+02 -0.34999123380E+02  0.49552067395E+02  0.00000000000E+00 0. -1.
          4    1    1    2  501    0 -0.24088375639E+03 -0.40937994830E+02  0.88535777606E+02  0.25988360362E+03  0.00000000000E+00 0.  1.
<mgrwt>
<rscale>  4 0.27418912E+03</rscale>
<asrwt>0</asrwt>
<pdfrwt beam="1">  1       21 0.93473189E-01 0.27418912E+03</pdfrwt>
<pdfrwt beam="2">  1        4 0.33967727E-01 0.27418912E+03</pdfrwt>
<totfact> 0.33476646E+02</totfact>
</mgrwt>
</event>
<event>
 5    0  0.3040647E+000  0.4378978E+03  0.7546771E-02  0.1031394E+00
         21   -1    0    0  503  502  0.00000000000E+00  0.00000000000E+00  0.26350650768E+03  0.26350650768E+03  0.00000000000E+00 0.  1.
          2   -1    0    0  502    0 -0.00000000000E+00 -0.00000000000E+00 -0.24034304314E+04  0.24034304314E+04  0.00000000000E+00 0. -1.
         25    1    1    2    0    0  0.10000521070E+03  0.38490775856E+03 -0.81251761762E+03  0.91321678900E+03  0.12500000000E+03 0.  0.
         21    1    1    2  503  501 -0.10830416178E+03  0.54508031639E+02  0.16113330940E+03  0.20165530087E+03  0.00000000000E+00 0.  1.
          2    1    1    2  501    0  0.82989510720E+01 -0.43941579019E+03 -0.14885396155E+04  0.15520648493E+04  0.00000000000E+00 0. -1.
<mgrwt>
<rscale>  4 0.43789779E+03</rscale>
<asrwt>0</asrwt>
<pdfrwt beam="1">  1       21 0.40539463E-01 0.43789779E+03</pdfrwt>
<pdfrwt beam="2">  1        2 0.36975853E+00 0.43789779E+03</pdfrwt>
<totfact> 0.30158379E+02</totfact>
</mgrwt>
</event>
<event>
 5    0  0.3040647E+000  0.2375631E+03  0.7546771E-02  0.1121427E+00
         21   -1    0    0  503  502  0.00000000000E+00  0.00000000000E+00  0.72742200773E+03  0.72742200773E+03  0.00000000000E+00 0.  1.
          3   -1    0    0  502    0 -0.00000000000E+00 -0.00000000000E+00 -0.11075752963E+03  0.11075752963E+03  0.00000000000E+00 0. -1.
         25    1    1    2    0    0  0.16079475070E+03  0.12617574464E+03  0.44560073357E+03  0.50592517643E+03  0.12500000000E+03 0.  0.
         21    1    1    2  503  501  0.93868590395E+01 -0.18105574083E+02  0.12343496561E+03  0.12510841567E+03  0.00000000000E+00 0.  1.
          3    1    1    2  501    0 -0.17018160974E+03 -0.10807017056E+03  0.47628778910E+02  0.20714594526E+03  0.00000000000E+00 0. -1.
<mgrwt>
<rscale>  4 0.23756310E+03</rscale>
<asrwt>0</asrwt>
<pdfrwt beam="1">  1       21 0.11191108E+00 0.23756310E+03</pdfrwt>
<pdfrwt beam="2">  1        3 0.17039620E-01 0.23756310E+03</pdfrwt>
<totfact> 0.91055686E+02</totfact>
</mgrwt>
</event>
<event>
 5    0  0.3040647E+000  0.2217928E+03  0.7546771E-02  0.1132554E+00
          2   -1    0    0  502    0 -0.00000000000E+00  0.00000000000E+00  0.11607964451E+04  0.11607964451E+04  0.00000000000E+00 0. -1.
         21   -1    0    0  503  502  0.00000000000E+00 -0.00000000000E+00 -0.33627120909E+03  0.33627120909E+03  0.00000000000E+00 0.  1.
         25    1    1    2    0    0  0.25921889095E+03  0.11143799399E+03 -0.10856888565E+02  0.30879723438E+03  0.12500000000E+03 0.  0.
         21    1    1    2  503  501 -0.79970065068E+02 -0.11152349280E+03 -0.14030147357E+03  0.19625800427E+03  0.00000000000E+00 0.  1.
          2    1    1    2  501    0 -0.17924882588E+03  0.85498805035E-01  0.97568359818E+03  0.99201241557E+03  0.00000000000E+00 0. -1.
<mgrwt>
<rscale>  4 0.22179275E+03</rscale>
<asrwt>0</asrwt>
<pdfrwt beam="1">  1       21 0.51734033E-01 0.22179275E+03</pdfrwt>
<pdfrwt beam="2">  1        2 0.17858407E+00 0.22179275E+03</pdfrwt>
<totfact> 0.93716149E+02</totfact>
</mgrwt>
</event>
<event>
 5    0  0.3040647E+000  0.3480822E+03  0.7546771E-02  0.1063759E+00
          1   -1    0    0  502    0 -0.00000000000E+00  0.00000000000E+00  0.32946489333E+03  0.32946489333E+03  0.00000000000E+00 0.  1.
         21   -1    0    0  503  502  0.00000000000E+00 -0.00000000000E+00 -0.43065718463E+03  0.43065718463E+03  0.00000000000E+00 0.  1.
         25    1    1    2    0    0  0.26834649034E+03 -0.17653894359E+03 -0.19972799159E+03  0.39836178043E+03  0.12500000000E+03 0.  0.
         21    1    1    2  503  501 -0.81527418561E+02  0.15757787792E+02 -0.24092930362E+02  0.86460957355E+02  0.00000000000E+00 0.  1.
          1    1    1    2  501    0 -0.18681907178E+03  0.16078115580E+03  0.12262863066E+03  0.27529934017E+03  0.00000000000E+00 0.  1.
<mgrwt>
<rscale>  4 0.34722726E+03</rscale>
<asrwt>0</asrwt>
<pdfrwt beam="1">  1       21 0.66254951E-01 0.34808222E+03</pdfrwt>
<pdfrwt beam="2">  1        1 0.50686907E-01 0.34808222E+03</pdfrwt>
<totfact> 0.16914254E+03</totfact>
</mgrwt>
</event>
<event>
 5    0  0.3040647E+000  0.2666116E+03  0.7546771E-02  0.1103235E+00
          2   -1    0    0  502    0 -0.00000000000E+00  0.00000000000E+00  0.69586912209E+03  0.69586912209E+03  0.00000000000E+00 0. -1.
         21   -1    0    0  503  502  0.00000000000E+00 -0.00000000000E+00 -0.16453004661E+04  0.16453004661E+04  0.00000000000E+00 0. -1.
         25    1    1    2    0    0  0.39924570540E+02  0.26387116550E+03 -0.13100499041E+04  0.13427872931E+04  0.12500000000E+03 0.  0.
         21    1    1    2  503  501  0.15705001897E+02 -0.35522910287E+02 -0.29725781912E+03  0.29978448137E+03  0.00000000000E+00 0. -1.
          2    1    1    2  501    0 -0.55629572438E+02 -0.22834825522E+03  0.65787637921E+03  0.69859781371E+03  0.00000000000E+00 0. -1.
<mgrwt>
<rscale>  4 0.26661164E+03</rscale>
<asrwt>0</asrwt>
<pdfrwt beam="1">  1       21 0.25312315E+00 0.26661164E+03</pdfrwt>
<pdfrwt beam="2">  1        2 0.10705679E+00 0.26661164E+03</pdfrwt>
<totfact> 0.31390929E+01</totfact>
</mgrwt>
</event>
<event>
 5    0  0.3040647E+000  0.2612056E+03  0.7546771E-02  0.1106421E+00
         21   -1    0    0  503  502  0.00000000000E+00  0.00000000000E+00  0.75829284041E+03  0.75829284041E+03  0.00000000000E+00 0. -1.
          2   -1    0    0  502    0 -0.00000000000E+00 -0.00000000000E+00 -0.26574244042E+03  0.26574244042E+03  0.00000000000E+00 0. -1.
         25    1    1    2    0    0  0.22767474223E+03 -0.17422452558E+03  0.23398635647E+03  0.39059517224E+03  0.12500000000E+03 0.  0.
         21    1    1    2  503  501 -0.21171019282E+03  0.42934282394E+02  0.39072728313E+03  0.44646653641E+03  0.00000000000E+00 0. -1.
          2    1    1    2  501    0 -0.15964549410E+02  0.13129024319E+03 -0.13216323961E+03  0.18697357219E+03  0.00000000000E+00 0. -1.
<mgrwt>
<rscale>  4 0.26120560E+03</rscale>
<asrwt>0</asrwt>
<pdfrwt beam="1">  1       21 0.11666044E+00 0.26120560E+03</pdfrwt>
<pdfrwt beam="2">  1        2 0.40883453E-01 0.26120560E+03</pdfrwt>
<totfact> 0.84534398E+02</totfact>
</mgrwt>
</event>
<event>
 5    0  0.3040647E+000  0.3144220E+03  0.7546771E-02  0.1078245E+00
          2   -1    0    0  502    0 -0.00000000000E+00  0.00000000000E+00  0.56256002897E+03  0.56256002897E+03  0.00000000000E+00 0.  1.
         21   -1    0    0  503  502  0.00000000000E+00 -0.00000000000E+00 -0.63859711639E+03  0.63859711639E+03  0.00000000000E+00 0.  1.
         25    1    1    2    0    0  0.39672432317E+03 -0.36699589582E+02  0.17319604654E+02  0.41792585129E+03  0.12500000000E+03 0.  0.
         21    1    1    2  503  501 -0.13614008595E+03  0.54297864067E+02 -0.37289568280E+03  0.40066640900E+03  0.00000000000E+00 0.  1.
          2    1    1    2  501    0 -0.26058423722E+03 -0.17598274485E+02  0.27953899073E+03  0.38256488507E+03  0.00000000000E+00 0.  1.
<mgrwt>
<rscale>  4 0.31442202E+03</rscale>
<asrwt>0</asrwt>
<pdfrwt beam="1">  1       21 0.98245710E-01 0.31442202E+03</pdfrwt>
<pdfrwt beam="2">  1        2 0.86547697E-01 0.31442202E+03</pdfrwt>
<totfact> 0.55008925E+02</totfact>
</mgrwt>
</event>
<event>
 5    0  0.3040647E+000  0.4526608E+03  0.7546771E-02  0.1026932E+00
         21   -1    0    0  501  502  0.00000000000E+00  0.00000000000E+00  0.41431953218E+03  0.41431953218E+03  0.00000000000E+00 0. -1.
         -2   -1    0    0    0  501 -0.00000000000E+00 -0.00000000000E+00 -0.89975666726E+03  0.89975666726E+03  0.00000000000E+00 0. -1.
         25    1    1    2    0    0 -0.12957558999E+03 -0.53706514589E+03 -0.32090225779E+03  0.65102385786E+03  0.12500000000E+03 0.  0.
         21    1    1    2  503  502  0.14403415823E+03  0.36615064430E+03  0.40720117973E+02  0.39556322006E+03  0.00000000000E+00 0. -1.
         -2    1    1    2    0  503 -0.14458568236E+02  0.17091450158E+03 -0.20525499526E+03  0.26748912151E+03  0.00000000000E+00 0. -1.
<mgrwt>
<rscale>  4 0.45266079E+03</rscale>
<asrwt>0</asrwt>
<pdfrwt beam="1">  1       21 0.63741467E-01 0.45266079E+03</pdfrwt>
<pdfrwt beam="2">  1       -2 0.13842410E+00 0.45266079E+03</pdfrwt>
<totfact> 0.65971462E+01</totfact>
</mgrwt>
</event>
<event>
 5    0  0.3040647E+000  0.2566043E+03  0.7546771E-02  0.1109201E+00
          2   -1    0    0  502    0 -0.00000000000E+00  0.00000000000E+00  0.41140825833E+04  0.41140825833E+04  0.00000000000E+00 0. -1.
         21   -1    0    0  503  502  0.00000000000E+00 -0.00000000000E+00 -0.50727789726E+02  0.50727789726E+02  0.00000000000E+00 0. -1.
         25    1    1    2    0    0  0.18660653252E+03 -0.19034401839E+03  0.11780882982E+04  0.12143186903E+04  0.12500000000E+03 0.  0.
         21    1    1    2  503  501 -0.26530737178E+02  0.47043794778E+02 -0.31450545489E+01  0.54100739463E+02  0.00000000000E+00 0. -1.
          2    1    1    2  501    0 -0.16007579534E+03  0.14330022361E+03  0.28884115500E+04  0.28963909433E+04  0.00000000000E+00 0. -1.
<mgrwt>
<rscale>  4 0.25660434E+03</rscale>
<asrwt>0</asrwt>
<pdfrwt beam="1">  1       21 0.78042786E-02 0.25660434E+03</pdfrwt>
<pdfrwt beam="2">  1        2 0.63293552E+00 0.25660434E+03</pdfrwt>
<totfact> 0.58199715E+02</totfact>
</mgrwt>
</event>
<event>
 5    0  0.3040647E+000  0.2562974E+03  0.7546771E-02  0.1109388E+00
          2   -1    0    0  502    0 -0.00000000000E+00  0.00000000000E+00  0.57268035234E+04  0.57268035234E+04  0.00000000000E+00 0. -1.
         21   -1    0    0  503  502  0.00000000000E+00 -0.00000000000E+00 -0.29009912274E+02  0.29009912274E+02  0.00000000000E+00 0.  1.
         25    1    1    2    0    0 -0.45073186831E+02  0.20249327573E+03  0.71113541950E+03  0.75124809733E+03  0.12500000000E+03 0.  0.
         21    1    1    2  503  501  0.82159039086E+01  0.20346289739E+02  0.12443504328E+02  0.25225252886E+02  0.00000000000E+00 0.  1.
          2    1    1    2  501    0  0.36857282922E+02 -0.22283956547E+03  0.49742146873E+04  0.49793400854E+04  0.00000000000E+00 0. -1.
<mgrwt>
<rscale>  4 0.25629738E+03</rscale>
<asrwt>0</asrwt>
<pdfrwt beam="1">  1       21 0.44630680E-02 0.25629738E+03</pdfrwt>
<pdfrwt beam="2">  1        2 0.88104580E+00 0.25629738E+03</pdfrwt>
<totfact> 0.14575347E+01</totfact>
</mgrwt>
</event>
<event>
 5    0  0.3040647E+000  0.2393048E+03  0.7546771E-02  0.1120257E+00
          2   -1    0    0  502    0 -0.00000000000E+00  0.00000000000E+00  0.12313773480E+04  0.12313773480E+04  0.00000000000E+00 0.  1.
         21   -1    0    0  503  502  0.00000000000E+00 -0.00000000000E+00 -0.40689870714E+03  0.40689870714E+03  0.00000000000E+00 0. -1.
         25    1    1    2    0    0  0.50917750070E+01  0.21431185940E+03 -0.29304735185E+03  0.38400162718E+03  0.12500000000E+03 0.  0.
         21    1    1    2  503  501  0.55434606883E+02 -0.19495423863E+02 -0.44981698968E+02  0.74002840715E+02  0.00000000000E+00 0.  1.
          2    1    1    2  501    0 -0.60526381890E+02 -0.19481643553E+03  0.11625076916E+04  0.11802715872E+04  0.00000000000E+00 0.  1.
<mgrwt>
<rscale>  4 0.23930479E+03</rscale>
<asrwt>0</asrwt>
<pdfrwt beam="1">  1       21 0.62599802E-01 0.23930479E+03</pdfrwt>
<pdfrwt beam="2">  1        2 0.18944267E+00 0.23930479E+03</pdfrwt>
<totfact> 0.56294506E+02</totfact>
</mgrwt>
</event>
<event>
 5    0  0.3040647E+000  0.5591664E+03  0.7546771E-02  0.9993943E-01
         -1   -1    0    0    0  501 -0.00000000000E+00  0.00000000000E+00  0.53688621508E+03  0.53688621508E+03  0.00000000000E+00 0.  1.
         21   -1    0    0  501  502  0.00000000000E+00 -0.00000000000E+00 -0.82539107745E+03  0.82539107745E+03  0.00000000000E+00 0.  1.
         25    1    1    2    0    0 -0.43885425869E+03 -0.32326236403E+03  0.20780167199E+03  0.59657200005E+03  0.12500000000E+03 0.  0.
         21    1    1    2  503  502 -0.19503381280E+02  0.27213760491E+02 -0.10395538821E+02  0.35057636384E+02  0.00000000000E+00 0.  1.
         -1    1    1    2    0  503  0.45835763997E+03  0.29604860354E+03 -0.48591099553E+03  0.73064765609E+03  0.00000000000E+00 0.  1.
<mgrwt>
<rscale>  4 0.55916640E+03</rscale>
<asrwt>0</asrwt>
<pdfrwt beam="1">  1       21 0.12698324E+00 0.55916640E+03</pdfrwt>
<pdfrwt beam="2">  1       -1 0.82597879E-01 0.55916640E+03</pdfrwt>
<totfact> 0.55574937E+01</totfact>
</mgrwt>
</event>
<event>
 5    0  0.3040647E+000  0.2031982E+03  0.7546771E-02  0.1147068E+00
         21   -1    0    0  503  502  0.00000000000E+00  0.00000000000E+00  0.10454436764E+03  0.10454436764E+03  0.00000000000E+00 0. -1.
          2   -1    0    0  502    0 -0.00000000000E+00 -0.00000000000E+00 -0.15153157523E+04  0.15153157523E+04  0.00000000000E+00 0. -1.
         25    1    1    2    0    0 -0.49070502083E+02  0.27881242249E+03 -0.47940205502E+03  0.57060985925E+03  0.12500000000E+03 0.  0.
         21    1    1    2  503  501 -0.11846915034E+01 -0.14294939982E+03 -0.43191281914E+02  0.14933660380E+03  0.00000000000E+00 0. -1.
          2    1    1    2  501    0  0.50255193587E+02 -0.13586302267E+03 -0.88817804774E+03  0.89991365691E+03  0.00000000000E+00 0. -1.
<mgrwt>
<rscale>  4 0.20319816E+03</rscale>
<asrwt>0</asrwt>
<pdfrwt beam="1">  1       21 0.16083750E-01 0.20319816E+03</pdfrwt>
<pdfrwt beam="2">  1        2 0.23312549E+00 0.20319816E+03</pdfrwt>
<totfact> 0.59220955E+03</totfact>
</mgrwt>
</event>
<event>
 5    0  0.3040647E+000  0.2607881E+03  0.7546771E-02  0.1106671E+00
         21   -1    0    0  503  502  0.00000000000E+00  0.00000000000E+00  0.55440230865E+03  0.55440230865E+03  0.00000000000E+00 0. -1.
          4   -1    0    0  502    0 -0.00000000000E+00 -0.00000000000E+00 -0.33425164567E+03  0.33425164567E+03  0.00000000000E+00 0.  1.
         25    1    1    2    0    0  0.25479277374E+03  0.62708808004E+02  0.86013808722E+02  0.30310910155E+03  0.12500000000E+03 0.  0.
         21    1    1    2  503  501 -0.20056387173E+03 -0.88786163631E+02  0.32125443202E+03  0.38899005076E+03  0.00000000000E+00 0. -1.
          4    1    1    2  501    0 -0.54228902010E+02  0.26077355627E+02 -0.18711757776E+03  0.19655480202E+03  0.00000000000E+00 0.  1.
<mgrwt>
<rscale>  4 0.26078808E+03</rscale>
<asrwt>0</asrwt>
<pdfrwt beam="1">  1       21 0.85292663E-01 0.26078808E+03</pdfrwt>
<pdfrwt beam="2">  1        4 0.51423330E-01 0.26078808E+03</pdfrwt>
<totfact> 0.18058837E+02</totfact>
</mgrwt>
</event>
<event>
 5    0  0.3040647E+000  0.2498387E+03  0.7546771E-02  0.1113407E+00
         21   -1    0    0  503  502  0.00000000000E+00  0.00000000000E+00  0.95342945811E+03  0.95342945811E+03  0.00000000000E+00 0.  1.
          2   -1    0    0  502    0 -0.00000000000E+00 -0.00000000000E+00 -0.18808190505E+03  0.18808190505E+03  0.00000000000E+00 0.  1.
         25    1    1    2    0    0  0.21911127200E+03 -0.75166294020E+02  0.80769109909E+03  0.84949963674E+03  0.12500000000E+03 0.  0.
         21    1    1    2  503  501 -0.89270246470E+01  0.29315026485E+02  0.49404676486E+02  0.58136774984E+02  0.00000000000E+00 0.  1.
          2    1    1    2  501    0 -0.21018424736E+03  0.45851267535E+02 -0.91748222527E+02  0.23387495143E+03  0.00000000000E+00 0.  1.
<mgrwt>
<rscale>  4 0.24983870E+03</rscale>
<asrwt>0</asrwt>
<pdfrwt beam="1">  1       21 0.14668145E+00 0.24983870E+03</pdfrwt>
<pdfrwt beam="2">  1        2 0.28935678E-01 0.24983870E+03</pdfrwt>
<totfact> 0.69023337E+02</totfact>
</mgrwt>
</event>
<event>
 5    0  0.3040647E+000  0.3549151E+03  0.7546771E-02  0.1060616E+00
          2   -1    0    0  502    0 -0.00000000000E+00  0.00000000000E+00  0.15062192734E+04  0.15062192734E+04  0.00000000000E+00 0. -1.
         21   -1    0    0  503  502  0.00000000000E+00 -0.00000000000E+00 -0.11907194839E+04  0.11907194839E+04  0.00000000000E+00 0.  1.
         25    1    1    2    0    0  0.15819710827E+03 -0.42343280818E+03 -0.62019142299E+03  0.77755004293E+03  0.12500000000E+03 0.  0.
         21    1    1    2  503  501 -0.10215513419E+03  0.25379205857E+03 -0.44761121210E+03  0.52459687154E+03  0.00000000000E+00 0.  1.
          2    1    1    2  501    0 -0.56041974081E+02  0.16964074961E+03  0.13833024246E+04  0.13947918428E+04  0.00000000000E+00 0. -1.
<mgrwt>
<rscale>  4 0.35491512E+03</rscale>
<asrwt>0</asrwt>
<pdfrwt beam="1">  1       21 0.18318761E+00 0.35491512E+03</pdfrwt>
<pdfrwt beam="2">  1        2 0.23172604E+00 0.35491512E+03</pdfrwt>
<totfact> 0.26138389E+01</totfact>
</mgrwt>
</event>
<event>
 5    0  0.3040647E+000  0.2852480E+03  0.7546771E-02  0.1092857E+00
          1   -1    0    0  502    0 -0.00000000000E+00  0.00000000000E+00  0.14737816107E+04  0.14737816107E+04  0.00000000000E+00 0.  1.
         21   -1    0    0  503  502  0.00000000000E+00 -0.00000000000E+00 -0.33042758280E+03  0.33042758280E+03  0.00000000000E+00 0.  1.
         25    1    1    2    0    0 -0.19183498139E+03  0.22628907152E+03  0.46394049748E+03  0.56468857716E+03  0.12500000000E+03 0.  0.
         21    1    1    2  503  501  0.33770192036E+02 -0.40445653879E+02 -0.26187775164E+03  0.26712587593E+03  0.00000000000E+00 0.  1.
          1    1    1    2  501    0  0.15806478935E+03 -0.18584341764E+03  0.94129128210E+03  0.97239474046E+03  0.00000000000E+00 0.  1.
<mgrwt>
<rscale>  4 0.28524798E+03</rscale>
<asrwt>0</asrwt>
<pdfrwt beam="1">  1       21 0.50835013E-01 0.28524798E+03</pdfrwt>
<pdfrwt beam="2">  1        1 0.22673563E+00 0.28524798E+03</pdfrwt>
<totfact> 0.29340431E+02</totfact>
</mgrwt>
</event>
<event>
 5    0  0.3040647E+000  0.3280686E+03  0.7546771E-02  0.1071995E+00
         21   -1    0    0  503  502  0.00000000000E+00  0.00000000000E+00  0.88337573085E+02  0.88337573085E+02  0.00000000000E+00 0.  1.
          1   -1    0    0  502    0 -0.00000000000E+00 -0.00000000000E+00 -0.18097256100E+04  0.18097256100E+04  0.00000000000E+00 0. -1.
         25    1    1    2    0    0 -0.10213566823E+03  0.30829266269E+03 -0.41951175500E+03  0.54506070595E+03  0.12500000000E+03 0.  0.
         21    1    1    2  503  501  0.13828816315E+02 -0.24160916456E+02 -0.13919791269E+02  0.31124694917E+02  0.00000000000E+00 0.  1.
          1    1    1    2  501    0  0.88306851914E+02 -0.28413174623E+03 -0.12879564906E+04  0.13218777822E+04  0.00000000000E+00 0. -1.
<mgrwt>
<rscale>  4 0.32806863E+03</rscale>
<asrwt>0</asrwt>
<pdfrwt beam="1">  1       21 0.13590396E-01 0.32806863E+03</pdfrwt>
<pdfrwt beam="2">  1        1 0.27841933E+00 0.32806863E+03</pdfrwt>
<totfact> 0.22684751E+03</totfact>
</mgrwt>
</event>
<event>
 5    0  0.3040647E+000  0.2854973E+03  0.7546771E-02  0.1092724E+00
          4   -1    0    0  502    0 -0.00000000000E+00  0.00000000000E+00  0.37139884989E+03  0.37139884989E+03  0.00000000000E+00 0.  1.
         21   -1    0    0  503  502  0.00000000000E+00 -0.00000000000E+00 -0.47423218468E+03  0.47423218468E+03  0.00000000000E+00 0. -1.
         25    1    1    2    0    0 -0.23572533109E+03 -0.12269115325E+02 -0.83395181879E+02  0.27981550934E+03  0.12500000000E+03 0.  0.
         21    1    1    2  503  501 -0.23220730622E+02 -0.43377463199E+02 -0.22514451698E+03  0.23045793579E+03  0.00000000000E+00 0. -1.
          4    1    1    2  501    0  0.25894606171E+03  0.55646578524E+02  0.20570636407E+03  0.33535758944E+03  0.00000000000E+00 0.  1.
<mgrwt>
<rscale>  4 0.28549727E+03</rscale>
<asrwt>0</asrwt>
<pdfrwt beam="1">  1       21 0.72958798E-01 0.28549727E+03</pdfrwt>
<pdfrwt beam="2">  1        4 0.57138285E-01 0.28549727E+03</pdfrwt>
<totfact> 0.20582213E+02</totfact>
</mgrwt>
</event>
<event>
 5    0  0.3040647E+000  0.3267326E+03  0.7546771E-02  0.1072592E+00
         21   -1    0    0  503  502  0.00000000000E+00  0.00000000000E+00  0.11472634003E+03  0.11472634003E+03  0.00000000000E+00 0.  1.
          1   -1    0    0  502    0 -0.00000000000E+00 -0.00000000000E+00 -0.19841678977E+04  0.19841678977E+04  0.00000000000E+00 0.  1.
         25    1    1    2    0    0 -0.22103972048E+03 -0.15344185033E+03 -0.68707950643E+03  0.74840243694E+03  0.12500000000E+03 0.  0.
         21    1    1    2  503  501 -0.63735043704E+02 -0.34128292299E+01  0.46744835723E+02  0.79113101735E+02  0.00000000000E+00 0.  1.
          1    1    1    2  501    0  0.28477476418E+03  0.15685467956E+03 -0.12291068869E+04  0.12713786990E+04  0.00000000000E+00 0.  1.
<mgrwt>
<rscale>  4 0.32673258E+03</rscale>
<asrwt>0</asrwt>
<pdfrwt beam="1">  1       21 0.17650207E-01 0.32673258E+03</pdfrwt>
<pdfrwt beam="2">  1        1 0.30525658E+00 0.32673258E+03</pdfrwt>
<totfact> 0.10768869E+03</totfact>
</mgrwt>
</event>
<event>
 5    0  0.3040647E+000  0.2279787E+03  0.7546771E-02  0.1128071E+00
         21   -1    0    0  501  502  0.00000000000E+00  0.00000000000E+00  0.90438831018E+03  0.90438831018E+03  0.00000000000E+00 0.  1.
         -4   -1    0    0    0  501 -0.00000000000E+00 -0.00000000000E+00 -0.45737254983E+03  0.45737254983E+03  0.00000000000E+00 0. -1.
         25    1    1    2    0    0 -0.41056003125E+02  0.20503812994E+03 -0.12435886429E+03  0.27352578900E+03  0.12500000000E+03 0.  0.
         21    1    1    2  503  502 -0.11698467281E+02 -0.29900105778E+02  0.79707613774E+03  0.79772253311E+03  0.00000000000E+00 0.  1.
         -4    1    1    2    0  503  0.52754470406E+02 -0.17513802416E+03 -0.22570151311E+03  0.29051253790E+03  0.00000000000E+00 0. -1.
<mgrwt>
<rscale>  4 0.22797873E+03</rscale>
<asrwt>0</asrwt>
<pdfrwt beam="1">  1       21 0.13913666E+00 0.22797873E+03</pdfrwt>
<pdfrwt beam="2">  1       -4 0.70365008E-01 0.22797873E+03</pdfrwt>
<totfact> 0.28367458E+01</totfact>
</mgrwt>
</event>
<event>
 5    0  0.3040647E+000  0.2413605E+03  0.7546771E-02  0.1118890E+00
          2   -1    0    0  502    0 -0.00000000000E+00  0.00000000000E+00  0.47689671583E+03  0.47689671583E+03  0.00000000000E+00 0.  1.
         21   -1    0    0  503  502  0.00000000000E+00 -0.00000000000E+00 -0.49140431903E+03  0.49140431903E+03  0.00000000000E+00 0.  1.
         25    1    1    2    0    0  0.19937041379E+03 -0.23676458312E+02  0.82472533971E+02  0.25047126668E+03  0.12500000000E+03 0.  0.
         21    1    1    2  503  501  0.10054366204E+02  0.39607221008E+02 -0.37062709048E+03  0.37287298432E+03  0.00000000000E+00 0.  1.
          2    1    1    2  501    0 -0.20942477999E+03 -0.15930762696E+02  0.27364695331E+03  0.34495678386E+03  0.00000000000E+00 0.  1.
<mgrwt>
<rscale>  4 0.24136047E+03</rscale>
<asrwt>0</asrwt>
<pdfrwt beam="1">  1       21 0.75600665E-01 0.24136047E+03</pdfrwt>
<pdfrwt beam="2">  1        2 0.73368725E-01 0.24136047E+03</pdfrwt>
<totfact> 0.12541387E+03</totfact>
</mgrwt>
</event>
<event>
 5    0  0.3040647E+000  0.2428399E+03  0.7546771E-02  0.1117915E+00
         21   -1    0    0  503  502  0.00000000000E+00  0.00000000000E+00  0.38093740811E+03  0.38093740811E+03  0.00000000000E+00 0. -1.
          2   -1    0    0  502    0 -0.00000000000E+00 -0.00000000000E+00 -0.15951638850E+04  0.15951638850E+04  0.00000000000E+00 0.  1.
         25    1    1    2    0    0 -0.20738142842E+03  0.10641696538E+03  0.24686712715E+03  0.36180105838E+03  0.12500000000E+03 0.  0.
         21    1    1    2  503  501  0.86023374353E+02  0.62759149830E+02  0.28496098496E+02  0.11023048332E+03  0.00000000000E+00 0. -1.
          2    1    1    2  501    0  0.12135805407E+03 -0.16917611521E+03 -0.14895897026E+04  0.15040697515E+04  0.00000000000E+00 0.  1.
<mgrwt>
<rscale>  4 0.24283986E+03</rscale>
<asrwt>0</asrwt>
<pdfrwt beam="1">  1       21 0.58605756E-01 0.24283986E+03</pdfrwt>
<pdfrwt beam="2">  1        2 0.24540982E+00 0.24283986E+03</pdfrwt>
<totfact> 0.41138603E+02</totfact>
</mgrwt>
</event>
<event>
 5    0  0.3040647E+000  0.3904072E+03  0.7546771E-02  0.1047153E+00
         -4   -1    0    0    0  501 -0.00000000000E+00  0.00000000000E+00  0.21999522717E+03  0.21999522717E+03  0.00000000000E+00 0.  1.
         21   -1    0    0  501  502  0.00000000000E+00 -0.00000000000E+00 -0.99219169046E+03  0.99219169046E+03  0.00000000000E+00 0.  1.
         25    1    1    2    0    0 -0.20712338913E+03 -0.35310900177E+03 -0.20031033863E+03  0.47258364044E+03  0.12500000000E+03 0.  0.
         21    1    1    2  503  502  0.64577444000E+02  0.55966989124E+02 -0.30131359291E+03  0.31319711272E+03  0.00000000000E+00 0.  1.
         -4    1    1    2    0  503  0.14254594513E+03  0.29714201264E+03 -0.27057253175E+03  0.42640616446E+03  0.00000000000E+00 0.  1.
<mgrwt>
<rscale>  4 0.39040716E+03</rscale>
<asrwt>0</asrwt>
<pdfrwt beam="1">  1       21 0.15264488E+00 0.39040716E+03</pdfrwt>
<pdfrwt beam="2">  1       -4 0.33845419E-01 0.39040716E+03</pdfrwt>
<totfact> 0.95877207E+01</totfact>
</mgrwt>
</event>
<event>
 5    0  0.3040647E+000  0.2165082E+03  0.7546771E-02  0.1136513E+00
         21   -1    0    0  503  502  0.00000000000E+00  0.00000000000E+00  0.33606378731E+03  0.33606378731E+03  0.00000000000E+00 0. -1.
          1   -1    0    0  502    0 -0.00000000000E+00 -0.00000000000E+00 -0.97620288371E+03  0.97620288371E+03  0.00000000000E+00 0.  1.
         25    1    1    2    0    0 -0.17479266685E+03  0.16452250868E+03 -0.41396866821E+03  0.49458587779E+03  0.12500000000E+03 0.  0.
         21    1    1    2  503  501  0.48499163310E+02 -0.69472165776E+02  0.27731365636E+03  0.28996795455E+03  0.00000000000E+00 0. -1.
          1    1    1    2  501    0  0.12629350354E+03 -0.95050342901E+02 -0.50348408455E+03  0.52771283869E+03  0.00000000000E+00 0.  1.
<mgrwt>
<rscale>  4 0.21650818E+03</rscale>
<asrwt>0</asrwt>
<pdfrwt beam="1">  1       21 0.51702121E-01 0.21650818E+03</pdfrwt>
<pdfrwt beam="2">  1        1 0.15018506E+00 0.21650818E+03</pdfrwt>
<totfact> 0.65563618E+02</totfact>
</mgrwt>
</event>
<event>
 5    0  0.3040647E+000  0.3133087E+03  0.7546771E-02  0.1078771E+00
         -1   -1    0    0    0  501 -0.00000000000E+00  0.00000000000E+00  0.80381428273E+03  0.80381428273E+03  0.00000000000E+00 0. -1.
         21   -1    0    0  501  502  0.00000000000E+00 -0.00000000000E+00 -0.19153086351E+03  0.19153086351E+03  0.00000000000E+00 0. -1.
         25    1    1    2    0    0 -0.45870575293E+02  0.28270796077E+03  0.51829073302E+03  0.60520920737E+03  0.12500000000E+03 0.  0.
         21    1    1    2  503  502 -0.30787452170E+02 -0.28178723876E+01 -0.55624714172E+02  0.63638953815E+02  0.00000000000E+00 0. -1.
         -1    1    1    2    0  503  0.76658027464E+02 -0.27989008838E+03  0.14961740037E+03  0.32649698504E+03  0.00000000000E+00 0. -1.
<mgrwt>
<rscale>  4 0.31330869E+03</rscale>
<asrwt>0</asrwt>
<pdfrwt beam="1">  1       21 0.29466287E-01 0.31330869E+03</pdfrwt>
<pdfrwt beam="2">  1       -1 0.12366373E+00 0.31330869E+03</pdfrwt>
<totfact> 0.61227729E+02</totfact>
</mgrwt>
</event>
<event>
 5    0  0.3040647E+000  0.2942448E+03  0.7546771E-02  0.1088153E+00
          1   -1    0    0  502    0 -0.00000000000E+00  0.00000000000E+00  0.73764040610E+03  0.73764040610E+03  0.00000000000E+00 0. -1.
         21   -1    0    0  503  502  0.00000000000E+00 -0.00000000000E+00 -0.19153538786E+03  0.19153538786E+03  0.00000000000E+00 0. -1.
         25    1    1    2    0    0  0.29155498180E+03 -0.30782513108E+02  0.37348201382E+02  0.32089212934E+03  0.12500000000E+03 0.  0.
         21    1    1    2  503  501 -0.22503795390E+03 -0.31087513059E+01  0.23857694924E+03  0.32797973374E+03  0.00000000000E+00 0. -1.
          1    1    1    2  501    0 -0.66517027897E+02  0.33891264414E+02  0.27017986761E+03  0.28030393088E+03  0.00000000000E+00 0. -1.
<mgrwt>
<rscale>  4 0.29424481E+03</rscale>
<asrwt>0</asrwt>
<pdfrwt beam="1">  1       21 0.29466983E-01 0.29424481E+03</pdfrwt>
<pdfrwt beam="2">  1        1 0.11348314E+00 0.29424481E+03</pdfrwt>
<totfact> 0.31013074E+03</totfact>
</mgrwt>
</event>
<event>
 5    0  0.3040647E+000  0.2727972E+03  0.7546771E-02  0.1099689E+00
          2   -1    0    0  502    0 -0.00000000000E+00  0.00000000000E+00  0.53402309956E+03  0.53402309956E+03  0.00000000000E+00 0. -1.
         21   -1    0    0  503  502  0.00000000000E+00 -0.00000000000E+00 -0.55615116880E+03  0.55615116880E+03  0.00000000000E+00 0. -1.
         25    1    1    2    0    0  0.20235688417E+03 -0.16976984064E+02 -0.10960152411E+03  0.26243860357E+03  0.12500000000E+03 0.  0.
         21    1    1    2  503  501  0.46796866715E+02  0.16352006249E+00 -0.33431073187E+03  0.33757019851E+03  0.00000000000E+00 0. -1.
          2    1    1    2  501    0 -0.24915375089E+03  0.16813464001E+02  0.42178418673E+03  0.49016546628E+03  0.00000000000E+00 0. -1.
<mgrwt>
<rscale>  4 0.27279720E+03</rscale>
<asrwt>0</asrwt>
<pdfrwt beam="1">  1       21 0.85561719E-01 0.27279720E+03</pdfrwt>
<pdfrwt beam="2">  1        2 0.82157400E-01 0.27279720E+03</pdfrwt>
<totfact> 0.82183252E+02</totfact>
</mgrwt>
</event>
<event>
 5    0  0.3040647E+000  0.4120103E+03  0.7546771E-02  0.1039698E+00
         -4   -1    0    0    0  501 -0.00000000000E+00  0.00000000000E+00  0.10919361208E+04  0.10919361208E+04  0.00000000000E+00 0.  1.
         21   -1    0    0  501  502  0.00000000000E+00 -0.00000000000E+00 -0.34047697538E+03  0.34047697538E+03  0.00000000000E+00 0.  1.
         25    1    1    2    0    0  0.13900897867E+03  0.29429028607E+03 -0.85157910621E+02  0.35889711390E+03  0.12500000000E+03 0.  0.
         21    1    1    2  503  502 -0.45031154966E+02  0.10232865678E+03 -0.30064890070E+02  0.11577070671E+03  0.00000000000E+00 0. -1.
         -4    1    1    2    0  503 -0.93977823701E+02 -0.39661894286E+03  0.86668194611E+03  0.95774527558E+03  0.00000000000E+00 0.  1.
<mgrwt>
<rscale>  4 0.41201032E+03</rscale>
<asrwt>0</asrwt>
<pdfrwt beam="1">  1       21 0.52381074E-01 0.41201032E+03</pdfrwt>
<pdfrwt beam="2">  1       -4 0.16799017E+00 0.41201032E+03</pdfrwt>
<totfact> 0.32199082E+01</totfact>
</mgrwt>
</event>
<event>
 5    0  0.3040647E+000  0.2444034E+03  0.7546771E-02  0.1116894E+00
          2   -1    0    0  502    0 -0.00000000000E+00  0.00000000000E+00  0.73118090935E+03  0.73118090935E+03  0.00000000000E+00 0.  1.
         21   -1    0    0  503  502  0.00000000000E+00 -0.00000000000E+00 -0.16963521438E+03  0.16963521438E+03  0.00000000000E+00 0. -1.
         25    1    1    2    0    0 -0.21409124413E+03 -0.59797469894E+02  0.14985571017E+03  0.29579136581E+03  0.12500000000E+03 0.  0.
         21    1    1    2  503  501  0.19900867341E+02 -0.10785892943E+02 -0.73907816690E+02  0.77296477122E+02  0.00000000000E+00 0.  1.
          2    1    1    2  501    0  0.19419037679E+03  0.70583362837E+02  0.48559780149E+03  0.52772828080E+03  0.00000000000E+00 0.  1.
<mgrwt>
<rscale>  4 0.24440337E+03</rscale>
<asrwt>0</asrwt>
<pdfrwt beam="1">  1       21 0.26097726E-01 0.24440337E+03</pdfrwt>
<pdfrwt beam="2">  1        2 0.11248937E+00 0.24440337E+03</pdfrwt>
<totfact> 0.68929006E+03</totfact>
</mgrwt>
</event>
<event>
 5    0  0.3040647E+000  0.2954562E+03  0.7546771E-02  0.1087534E+00
         21   -1    0    0  503  502  0.00000000000E+00  0.00000000000E+00  0.16172256925E+03  0.16172256925E+03  0.00000000000E+00 0.  1.
          1   -1    0    0  502    0 -0.00000000000E+00 -0.00000000000E+00 -0.55723932573E+03  0.55723932573E+03  0.00000000000E+00 0.  1.
         25    1    1    2    0    0 -0.10894849268E+03 -0.22942730408E+03 -0.13336232797E+03  0.31291719742E+03  0.12500000000E+03 0.  0.
         21    1    1    2  503  501  0.64316662980E+01 -0.28188901387E+02 -0.81979376046E+01  0.30053064299E+02  0.00000000000E+00 0. -1.
          1    1    1    2  501    0  0.10251682638E+03  0.25761620547E+03 -0.25395649091E+03  0.37599163327E+03  0.00000000000E+00 0.  1.
<mgrwt>
<rscale>  4 0.29545621E+03</rscale>
<asrwt>0</asrwt>
<pdfrwt beam="1">  1       21 0.24880395E-01 0.29545621E+03</pdfrwt>
<pdfrwt beam="2">  1        1 0.85729129E-01 0.29545621E+03</pdfrwt>
<totfact> 0.64337797E+03</totfact>
</mgrwt>
</event>
<event>
 5    0  0.3040647E+000  0.2290237E+03  0.7546771E-02  0.1127329E+00
          2   -1    0    0  502    0 -0.00000000000E+00  0.00000000000E+00  0.95333562354E+03  0.95333562354E+03  0.00000000000E+00 0.  1.
         21   -1    0    0  503  502  0.00000000000E+00 -0.00000000000E+00 -0.73333746495E+02  0.73333746495E+02  0.00000000000E+00 0.  1.
         25    1    1    2    0    0 -0.20507590877E+03  0.38765693374E+02  0.26338996757E+03  0.35855011136E+03  0.12500000000E+03 0.  0.
         21    1    1    2  503  501  0.57813519307E+02  0.56914794761E+02  0.17596167562E+03  0.19376327868E+03  0.00000000000E+00 0.  1.
          2    1    1    2  501    0  0.14726238946E+03 -0.95680488135E+02  0.44065023386E+03  0.47435598000E+03  0.00000000000E+00 0.  1.
<mgrwt>
<rscale>  4 0.22902374E+03</rscale>
<asrwt>0</asrwt>
<pdfrwt beam="1">  1       21 0.11282116E-01 0.22902374E+03</pdfrwt>
<pdfrwt beam="2">  1        2 0.14666701E+00 0.22902374E+03</pdfrwt>
<totfact> 0.23197356E+04</totfact>
</mgrwt>
</event>
<event>
 5    0  0.3040647E+000  0.3215484E+03  0.7546771E-02  0.1074939E+00
         21   -1    0    0  503  502  0.00000000000E+00  0.00000000000E+00  0.89207616677E+03  0.89207616677E+03  0.00000000000E+00 0.  1.
          2   -1    0    0  502    0 -0.00000000000E+00 -0.00000000000E+00 -0.86877602593E+03  0.86877602593E+03  0.00000000000E+00 0. -1.
         25    1    1    2    0    0 -0.16770547214E+03 -0.16119329563E+03  0.70871037499E+03  0.75630932796E+03  0.12500000000E+03 0.  0.
         21    1    1    2  503  501  0.53642921387E+02 -0.11559269844E+03  0.10130472269E+03  0.16279398573E+03  0.00000000000E+00 0.  1.
          2    1    1    2  501    0  0.11406255075E+03  0.27678599407E+03 -0.78671495684E+03  0.84174887901E+03  0.00000000000E+00 0. -1.
<mgrwt>
<rscale>  4 0.32154838E+03</rscale>
<asrwt>0</asrwt>
<pdfrwt beam="1">  1       21 0.13724249E+00 0.32154838E+03</pdfrwt>
<pdfrwt beam="2">  1        2 0.13365785E+00 0.32154838E+03</pdfrwt>
<totfact> 0.13938115E+02</totfact>
</mgrwt>
</event>
<event>
 5    0  0.3040647E+000  0.2468902E+03  0.7546771E-02  0.1115286E+00
          2   -1    0    0  502    0 -0.00000000000E+00  0.00000000000E+00  0.15115983836E+04  0.15115983836E+04  0.00000000000E+00 0.  1.
         21   -1    0    0  503  502  0.00000000000E+00 -0.00000000000E+00 -0.20848812170E+03  0.20848812170E+03  0.00000000000E+00 0.  1.
         25    1    1    2    0    0  0.14522193758E+03 -0.17287285183E+03 -0.10191238674E+03  0.27746273376E+03  0.12500000000E+03 0.  0.
         21    1    1    2  503  501 -0.24555395705E+02 -0.19294638417E+01  0.32438205110E+01  0.24843765022E+02  0.00000000000E+00 0. -1.
          2    1    1    2  501    0 -0.12066654188E+03  0.17480231567E+03  0.14017788281E+04  0.14177800065E+04  0.00000000000E+00 0.  1.
<mgrwt>
<rscale>  4 0.24689024E+03</rscale>
<asrwt>0</asrwt>
<pdfrwt beam="1">  1       21 0.32075097E-01 0.24689024E+03</pdfrwt>
<pdfrwt beam="2">  1        2 0.23255359E+00 0.24689024E+03</pdfrwt>
<totfact> 0.15711416E+03</totfact>
</mgrwt>
</event>
<event>
 5    0  0.3040647E+000  0.2118590E+03  0.7546771E-02  0.1140102E+00
          2   -1    0    0  502    0 -0.00000000000E+00  0.00000000000E+00  0.12439604536E+04  0.12439604536E+04  0.00000000000E+00 0. -1.
         21   -1    0    0  503  502  0.00000000000E+00 -0.00000000000E+00 -0.66762581579E+02  0.66762581579E+02  0.00000000000E+00 0.  1.
         25    1    1    2    0    0 -0.17765426159E+03  0.12659184312E+03  0.30971817808E+03  0.39891964259E+03  0.12500000000E+03 0.  0.
         21    1    1    2  503  501  0.47567013457E+02 -0.28877968064E+02  0.40128084626E+02  0.68606275110E+02  0.00000000000E+00 0.  1.
          2    1    1    2  501    0  0.13008724813E+03 -0.97713875059E+02  0.82735160936E+03  0.84319711753E+03  0.00000000000E+00 0. -1.
<mgrwt>
<rscale>  4 0.21185896E+03</rscale>
<asrwt>0</asrwt>
<pdfrwt beam="1">  1       21 0.10271167E-01 0.21185896E+03</pdfrwt>
<pdfrwt beam="2">  1        2 0.19137852E+00 0.21185896E+03</pdfrwt>
<totfact> 0.18582977E+04</totfact>
</mgrwt>
</event>
<event>
 5    0  0.3040647E+000  0.3611698E+03  0.7546771E-02  0.1058122E+00
          2   -1    0    0  502    0 -0.00000000000E+00  0.00000000000E+00  0.20189491369E+04  0.20189491369E+04  0.00000000000E+00 0.  1.
         21   -1    0    0  503  502  0.00000000000E+00 -0.00000000000E+00 -0.58812083038E+03  0.58812083038E+03  0.00000000000E+00 0. -1.
         25    1    1    2    0    0 -0.32874522021E+03  0.13561094901E+02 -0.44958024682E+03  0.57096823155E+03  0.12500000000E+03 0.  0.
         21    1    1    2  503  501 -0.73370618418E+01  0.32123105760E+02 -0.58828234771E+02  0.67427647197E+02  0.00000000000E+00 0. -1.
          2    1    1    2  501    0  0.33608228205E+03 -0.45684200661E+02  0.19392367881E+04  0.19686740885E+04  0.00000000000E+00 0.  1.
<mgrwt>
<rscale>  4 0.36116983E+03</rscale>
<asrwt>0</asrwt>
<pdfrwt beam="1">  1       21 0.90480129E-01 0.36116983E+03</pdfrwt>
<pdfrwt beam="2">  1        2 0.31060756E+00 0.36116983E+03</pdfrwt>
<totfact> 0.86405610E+01</totfact>
</mgrwt>
</event>
<event>
 5    0  0.3040647E+000  0.3032858E+03  0.7546771E-02  0.1083610E+00
         21   -1    0    0  501  502  0.00000000000E+00  0.00000000000E+00  0.57619368394E+03  0.57619368394E+03  0.00000000000E+00 0. -1.
         -3   -1    0    0    0  501 -0.00000000000E+00 -0.00000000000E+00 -0.44566543707E+03  0.44566543707E+03  0.00000000000E+00 0.  1.
         25    1    1    2    0    0  0.23107113716E+03 -0.20985274346E+03  0.40544125983E+03  0.52672541190E+03  0.12500000000E+03 0.  0.
         21    1    1    2  503  502 -0.49080193657E+02  0.67994516212E+01  0.50386847180E+02  0.70667760121E+02  0.00000000000E+00 0. -1.
         -3    1    1    2    0  503 -0.18199094350E+03  0.20305329184E+03 -0.32529986014E+03  0.42446594899E+03  0.00000000000E+00 0.  1.
<mgrwt>
<rscale>  4 0.30328578E+03</rscale>
<asrwt>0</asrwt>
<pdfrwt beam="1">  1       21 0.88645182E-01 0.30328578E+03</pdfrwt>
<pdfrwt beam="2">  1       -3 0.68563913E-01 0.30328578E+03</pdfrwt>
<totfact> 0.10787597E+02</totfact>
</mgrwt>
</event>
<event>
 5    0  0.3040647E+000  0.2604989E+03  0.7546771E-02  0.1106844E+00
         21   -1    0    0  503  502  0.00000000000E+00  0.00000000000E+00  0.64484571609E+03  0.64484571609E+03  0.00000000000E+00 0.  1.
          2   -1    0    0  502    0 -0.00000000000E+00 -0.00000000000E+00 -0.27964715979E+03  0.27964715979E+03  0.00000000000E+00 0.  1.
         25    1    1    2    0    0  0.22287476109E+03 -0.21815885269E+01  0.29998832136E+03  0.39407602238E+03  0.12500000000E+03 0.  0.
         21    1    1    2  503  501  0.18528293777E+01 -0.47605845078E+02  0.23792416543E+03  0.24264718824E+03  0.00000000000E+00 0. -1.
          2    1    1    2  501    0 -0.22472759047E+03  0.49787433605E+02 -0.17271393049E+03  0.28776966527E+03  0.00000000000E+00 0.  1.
<mgrwt>
<rscale>  4 0.26049892E+03</rscale>
<asrwt>0</asrwt>
<pdfrwt beam="1">  1       21 0.99207033E-01 0.26049892E+03</pdfrwt>
<pdfrwt beam="2">  1        2 0.43022640E-01 0.26049892E+03</pdfrwt>
<totfact> 0.11868106E+03</totfact>
</mgrwt>
</event>
<event>
 5    0  0.3040647E+000  0.2787001E+03  0.7546771E-02  0.1096401E+00
         -3   -1    0    0    0  501 -0.00000000000E+00  0.00000000000E+00  0.20491177393E+04  0.20491177393E+04  0.00000000000E+00 0.  1.
         21   -1    0    0  501  502  0.00000000000E+00 -0.00000000000E+00 -0.12751177480E+03  0.12751177480E+03  0.00000000000E+00 0. -1.
         25    1    1    2    0    0 -0.12201978128E+03 -0.19667079400E+03  0.16010608892E+04  0.16225255620E+04  0.12500000000E+03 0.  0.
         21    1    1    2  503  502  0.12098944181E+03  0.21945484098E+03  0.18586595745E+02  0.25128536328E+03  0.00000000000E+00 0. -1.
         -3    1    1    2    0  503  0.10303394674E+01 -0.22784046982E+02  0.30195847957E+03  0.30281858890E+03  0.00000000000E+00 0.  1.
<mgrwt>
<rscale>  4 0.27870005E+03</rscale>
<asrwt>0</asrwt>
<pdfrwt beam="1">  1       21 0.19617198E-01 0.27870005E+03</pdfrwt>
<pdfrwt beam="2">  1       -3 0.31524886E+00 0.27870005E+03</pdfrwt>
<totfact> 0.42024109E+01</totfact>
</mgrwt>
</event>
<event>
 5    0  0.3040647E+000  0.3209300E+03  0.7546771E-02  0.1075222E+00
         21   -1    0    0  503  502  0.00000000000E+00  0.00000000000E+00  0.97170726223E+03  0.97170726223E+03  0.00000000000E+00 0. -1.
          2   -1    0    0  502    0 -0.00000000000E+00 -0.00000000000E+00 -0.42989301528E+03  0.42989301528E+03  0.00000000000E+00 0. -1.
         25    1    1    2    0    0 -0.19204434188E+03 -0.99378188309E+02  0.11489616559E+03  0.27492395753E+03  0.12500000000E+03 0.  0.
         21    1    1    2  503  501 -0.55799960349E+02 -0.11826632733E+03  0.69154549844E+03  0.70380092083E+03  0.00000000000E+00 0. -1.
          2    1    1    2  501    0  0.24784430223E+03  0.21764451564E+03 -0.26462741707E+03  0.42287539914E+03  0.00000000000E+00 0. -1.
<mgrwt>
<rscale>  4 0.32092998E+03</rscale>
<asrwt>0</asrwt>
<pdfrwt beam="1">  1       21 0.14949342E+00 0.32092998E+03</pdfrwt>
<pdfrwt beam="2">  1        2 0.66137387E-01 0.32092998E+03</pdfrwt>
<totfact> 0.25740621E+02</totfact>
</mgrwt>
</event>
<event>
 5    0  0.3040647E+000  0.2680102E+03  0.7546771E-02  0.1102424E+00
          2   -1    0    0  502    0 -0.00000000000E+00  0.00000000000E+00  0.18748550566E+04  0.18748550566E+04  0.00000000000E+00 0. -1.
         21   -1    0    0  503  502  0.00000000000E+00 -0.00000000000E+00 -0.51820313036E+02  0.51820313036E+02  0.00000000000E+00 0. -1.
         25    1    1    2    0    0 -0.19759954015E+03 -0.10957703653E+03  0.43925176355E+03  0.50952901486E+03  0.12500000000E+03 0.  0.
         21    1    1    2  503  501 -0.35261700170E+02 -0.18584715287E+02  0.17348573434E+03  0.17800584024E+03  0.00000000000E+00 0. -1.
          2    1    1    2  501    0  0.23286124032E+03  0.12816175182E+03  0.12102972457E+04  0.12391405146E+04  0.00000000000E+00 0. -1.
<mgrwt>
<rscale>  4 0.26801019E+03</rscale>
<asrwt>0</asrwt>
<pdfrwt beam="1">  1       21 0.79723573E-02 0.26801019E+03</pdfrwt>
<pdfrwt beam="2">  1        2 0.28843919E+00 0.26801019E+03</pdfrwt>
<totfact> 0.13171658E+04</totfact>
</mgrwt>
</event>
<event>
 5    0  0.3040647E+000  0.3072545E+03  0.7546771E-02  0.1081669E+00
          2   -1    0    0  502    0 -0.00000000000E+00  0.00000000000E+00  0.77836204640E+03  0.77836204640E+03  0.00000000000E+00 0.  1.
         21   -1    0    0  503  502  0.00000000000E+00 -0.00000000000E+00 -0.43487188306E+03  0.43487188306E+03  0.00000000000E+00 0.  1.
         25    1    1    2    0    0 -0.27606467848E+03  0.48777281619E+02 -0.33741883813E+03  0.45614405864E+03  0.12500000000E+03 0.  0.
         21    1    1    2  503  501 -0.10009542727E+02 -0.33447694467E+02  0.30411177456E+02  0.46300960303E+02  0.00000000000E+00 0. -1.
          2    1    1    2  501    0  0.28607422121E+03 -0.15329587153E+02  0.65049782401E+03  0.71078891052E+03  0.00000000000E+00 0.  1.
<mgrwt>
<rscale>  4 0.30725455E+03</rscale>
<asrwt>0</asrwt>
<pdfrwt beam="1">  1       21 0.66903367E-01 0.30725455E+03</pdfrwt>
<pdfrwt beam="2">  1        2 0.11974801E+00 0.30725455E+03</pdfrwt>
<totfact> 0.90096513E+02</totfact>
</mgrwt>
</event>
<event>
 5    0  0.3040647E+000  0.3773813E+03  0.7546771E-02  0.1051906E+00
          3   -1    0    0  502    0 -0.00000000000E+00  0.00000000000E+00  0.76456638958E+03  0.76456638958E+03  0.00000000000E+00 0. -1.
         21   -1    0    0  503  502  0.00000000000E+00 -0.00000000000E+00 -0.41402971441E+03  0.41402971441E+03  0.00000000000E+00 0. -1.
         25    1    1    2    0    0 -0.24380694586E+03  0.38217347250E+02 -0.14073101560E+03  0.31037495265E+03  0.12500000000E+03 0.  0.
         21    1    1    2  503  501 -0.91842902197E+02  0.16127459122E+03 -0.57881536022E+02  0.19440906530E+03  0.00000000000E+00 0. -1.
          3    1    1    2  501    0  0.33564984805E+03 -0.19949193847E+03  0.54914922679E+03  0.67381208604E+03  0.00000000000E+00 0. -1.
<mgrwt>
<rscale>  4 0.37738126E+03</rscale>
<asrwt>0</asrwt>
<pdfrwt beam="1">  1       21 0.63696879E-01 0.37738126E+03</pdfrwt>
<pdfrwt beam="2">  1        3 0.11762560E+00 0.37738126E+03</pdfrwt>
<totfact> 0.66150977E+01</totfact>
</mgrwt>
</event>
<event>
 5    0  0.3040647E+000  0.2429379E+03  0.7546771E-02  0.1117851E+00
         21   -1    0    0  503  502  0.00000000000E+00  0.00000000000E+00  0.14612909688E+03  0.14612909688E+03  0.00000000000E+00 0. -1.
          2   -1    0    0  502    0 -0.00000000000E+00 -0.00000000000E+00 -0.14881755316E+04  0.14881755316E+04  0.00000000000E+00 0. -1.
         25    1    1    2    0    0  0.72218911892E+02 -0.19820048720E+03  0.25025961156E+02  0.24647576573E+03  0.12500000000E+03 0.  0.
         21    1    1    2  503  501 -0.14888391400E+02  0.30616379739E+02 -0.61476978823E+02  0.70274076529E+02  0.00000000000E+00 0.  1.
          2    1    1    2  501    0 -0.57330520492E+02  0.16758410746E+03 -0.13055954171E+04  0.13175547862E+04  0.00000000000E+00 0. -1.
<mgrwt>
<rscale>  4 0.24293788E+03</rscale>
<asrwt>0</asrwt>
<pdfrwt beam="1">  1       21 0.22481399E-01 0.24293788E+03</pdfrwt>
<pdfrwt beam="2">  1        2 0.22895008E+00 0.24293788E+03</pdfrwt>
<totfact> 0.32233920E+03</totfact>
</mgrwt>
</event>
<event>
 5    0  0.3040647E+000  0.2414689E+03  0.7546771E-02  0.1118818E+00
          1   -1    0    0  502    0 -0.00000000000E+00  0.00000000000E+00  0.12342229005E+04  0.12342229005E+04  0.00000000000E+00 0. -1.
         21   -1    0    0  503  502  0.00000000000E+00 -0.00000000000E+00 -0.92608102113E+02  0.92608102113E+02  0.00000000000E+00 0.  1.
         25    1    1    2    0    0  0.12264960535E+03 -0.19239972251E+03  0.95868096011E+03  0.99335530511E+03  0.12500000000E+03 0.  0.
         21    1    1    2  503  501 -0.99731270140E+02  0.17742497980E+03  0.66885671234E+02  0.21424201903E+03  0.00000000000E+00 0.  1.
          1    1    1    2  501    0 -0.22918335209E+02  0.14974742709E+02  0.11604816708E+03  0.11923367851E+03  0.00000000000E+00 0. -1.
<mgrwt>
<rscale>  4 0.24146893E+03</rscale>
<asrwt>0</asrwt>
<pdfrwt beam="1">  1       21 0.14247401E-01 0.24146893E+03</pdfrwt>
<pdfrwt beam="2">  1        1 0.18988043E+00 0.24146893E+03</pdfrwt>
<totfact> 0.51811544E+03</totfact>
</mgrwt>
</event>
<event>
 5    0  0.3040647E+000  0.2847292E+03  0.7546771E-02  0.1093134E+00
          2   -1    0    0  502    0 -0.00000000000E+00  0.00000000000E+00  0.95149842810E+03  0.95149842810E+03  0.00000000000E+00 0.  1.
         21   -1    0    0  503  502  0.00000000000E+00 -0.00000000000E+00 -0.88926940015E+02  0.88926940015E+02  0.00000000000E+00 0.  1.
         25    1    1    2    0    0 -0.24978736313E+03  0.55244683871E+02  0.26449600288E+03  0.38862428825E+03  0.12500000000E+03 0.  0.
         21    1    1    2  503  501  0.21456399905E+03 -0.46022323807E+02  0.47099981751E+03  0.51961196298E+03  0.00000000000E+00 0.  1.
          2    1    1    2  501    0  0.35223364079E+02 -0.92223600646E+01  0.12707566770E+03  0.13218911689E+03  0.00000000000E+00 0.  1.
<mgrwt>
<rscale>  4 0.28472917E+03</rscale>
<asrwt>0</asrwt>
<pdfrwt beam="1">  1       21 0.13681068E-01 0.28472917E+03</pdfrwt>
<pdfrwt beam="2">  1        2 0.14638437E+00 0.28472917E+03</pdfrwt>
<totfact> 0.16253437E+04</totfact>
</mgrwt>
</event>
<event>
 5    0  0.3040647E+000  0.2296242E+03  0.7546771E-02  0.1126905E+00
          2   -1    0    0  502    0 -0.00000000000E+00  0.00000000000E+00  0.96317077053E+03  0.96317077053E+03  0.00000000000E+00 0. -1.
         21   -1    0    0  503  502  0.00000000000E+00 -0.00000000000E+00 -0.94110491042E+02  0.94110491042E+02  0.00000000000E+00 0. -1.
         25    1    1    2    0    0 -0.17461889468E+03 -0.19848717807E+03  0.33772901663E+03  0.44673796224E+03  0.12500000000E+03 0.  0.
         21    1    1    2  503  501  0.59806077996E+02  0.69880119449E+02  0.62992378057E+02  0.11148110940E+03  0.00000000000E+00 0. -1.
          2    1    1    2  501    0  0.11481281668E+03  0.12860705862E+03  0.46833888480E+03  0.49906218993E+03  0.00000000000E+00 0. -1.
<mgrwt>
<rscale>  4 0.22962423E+03</rscale>
<asrwt>0</asrwt>
<pdfrwt beam="1">  1       21 0.14478538E-01 0.22962423E+03</pdfrwt>
<pdfrwt beam="2">  1        2 0.14818011E+00 0.22962423E+03</pdfrwt>
<totfact> 0.14577166E+04</totfact>
</mgrwt>
</event>
<event>
 5    0  0.3040647E+000  0.2642977E+03  0.7546771E-02  0.1104588E+00
         -2   -1    0    0    0  501 -0.00000000000E+00  0.00000000000E+00  0.37071129603E+03  0.37071129603E+03  0.00000000000E+00 0.  1.
         21   -1    0    0  501  502  0.00000000000E+00 -0.00000000000E+00 -0.63970535821E+03  0.63970535821E+03  0.00000000000E+00 0.  1.
         25    1    1    2    0    0  0.20028982088E+03  0.53420341776E+02 -0.36122701645E+03  0.43483295951E+03  0.12500000000E+03 0.  0.
         21    1    1    2  503  502  0.27705985840E+02  0.57454200542E+01 -0.19900940859E+03  0.20101088580E+03  0.00000000000E+00 0.  1.
         -2    1    1    2    0  503 -0.22799580672E+03 -0.59165761830E+02  0.29124236286E+03  0.37457280892E+03  0.00000000000E+00 0.  1.
<mgrwt>
<rscale>  4 0.26429771E+03</rscale>
<asrwt>0</asrwt>
<pdfrwt beam="1">  1       21 0.98416208E-01 0.26429771E+03</pdfrwt>
<pdfrwt beam="2">  1       -2 0.57032507E-01 0.26429771E+03</pdfrwt>
<totfact> 0.19647158E+02</totfact>
</mgrwt>
</event>
<event>
 5    0  0.3040647E+000  0.3881624E+03  0.7546771E-02  0.1047957E+00
         21   -1    0    0  503  502  0.00000000000E+00  0.00000000000E+00  0.91100389034E+03  0.91100389034E+03  0.00000000000E+00 0. -1.
          2   -1    0    0  502    0 -0.00000000000E+00 -0.00000000000E+00 -0.14262433059E+04  0.14262433059E+04  0.00000000000E+00 0.  1.
         25    1    1    2    0    0  0.30532806899E+02  0.24194445650E+03 -0.19537435240E+03  0.33654941674E+03  0.12500000000E+03 0.  0.
         21    1    1    2  503  501 -0.16887945664E+02 -0.38824578389E+03  0.79039151190E+03  0.88076031558E+03  0.00000000000E+00 0. -1.
          2    1    1    2  501    0 -0.13644861235E+02  0.14630132739E+03 -0.11102565751E+04  0.11199374640E+04  0.00000000000E+00 0.  1.
<mgrwt>
<rscale>  4 0.38816244E+03</rscale>
<asrwt>0</asrwt>
<pdfrwt beam="1">  1       21 0.14015444E+00 0.38816244E+03</pdfrwt>
<pdfrwt beam="2">  1        2 0.21942205E+00 0.38816244E+03</pdfrwt>
<totfact> 0.59554083E+01</totfact>
</mgrwt>
</event>
<event>
 5    0  0.3040647E+000  0.1915840E+03  0.7546771E-02  0.1157040E+00
          2   -1    0    0  502    0 -0.00000000000E+00  0.00000000000E+00  0.23380491999E+04  0.23380491999E+04  0.00000000000E+00 0.  1.
         21   -1    0    0  503  502  0.00000000000E+00 -0.00000000000E+00 -0.13156998080E+03  0.13156998080E+03  0.00000000000E+00 0. -1.
         25    1    1    2    0    0 -0.15341936095E+03 -0.17437580965E+03  0.31613865040E+03  0.41171964925E+03  0.12500000000E+03 0.  0.
         21    1    1    2  503  501  0.66781290383E+02  0.11487734006E+03 -0.28733920011E+02  0.13594918964E+03  0.00000000000E+00 0. -1.
          2    1    1    2  501    0  0.86638070563E+02  0.59498469596E+02  0.19190744887E+04  0.19219503418E+04  0.00000000000E+00 0.  1.
<mgrwt>
<rscale>  4 0.19158396E+03</rscale>
<asrwt>0</asrwt>
<pdfrwt beam="1">  1       21 0.20241537E-01 0.19158396E+03</pdfrwt>
<pdfrwt beam="2">  1        2 0.35969985E+00 0.19158396E+03</pdfrwt>
<totfact> 0.14468995E+03</totfact>
</mgrwt>
</event>
<event>
 5    0  0.3040647E+000  0.2210282E+03  0.7546771E-02  0.1133119E+00
          2   -1    0    0  502    0 -0.00000000000E+00  0.00000000000E+00  0.66068368830E+03  0.66068368830E+03  0.00000000000E+00 0. -1.
         21   -1    0    0  503  502  0.00000000000E+00 -0.00000000000E+00 -0.29804742318E+03  0.29804742318E+03  0.00000000000E+00 0. -1.
         25    1    1    2    0    0  0.19227790473E+03 -0.25361501084E+03  0.18372893446E+02  0.34242361131E+03  0.12500000000E+03 0.  0.
         21    1    1    2  503  501 -0.97003799817E+02  0.11456677167E+03 -0.72529805477E+02  0.16672088961E+03  0.00000000000E+00 0. -1.
          2    1    1    2  501    0 -0.95274104909E+02  0.13904823917E+03  0.41679317715E+03  0.44958661057E+03  0.00000000000E+00 0. -1.
<mgrwt>
<rscale>  4 0.22102821E+03</rscale>
<asrwt>0</asrwt>
<pdfrwt beam="1">  1       21 0.45853450E-01 0.22102821E+03</pdfrwt>
<pdfrwt beam="2">  1        2 0.10164364E+00 0.22102821E+03</pdfrwt>
<totfact> 0.25531378E+03</totfact>
</mgrwt>
</event>
<event>
 5    0  0.3040647E+000  0.2397190E+03  0.7546771E-02  0.1119980E+00
         21   -1    0    0  503  502  0.00000000000E+00  0.00000000000E+00  0.94485184548E+02  0.94485184548E+02  0.00000000000E+00 0.  1.
          2   -1    0    0  502    0 -0.00000000000E+00 -0.00000000000E+00 -0.61109128943E+03  0.61109128943E+03  0.00000000000E+00 0.  1.
         25    1    1    2    0    0  0.16653000520E+02  0.21714155919E+03 -0.24712098439E+03  0.35230889866E+03  0.12500000000E+03 0.  0.
         21    1    1    2  503  501  0.16723322457E+01 -0.21547790247E+02 -0.24440435895E+01  0.21750340428E+02  0.00000000000E+00 0.  1.
          2    1    1    2  501    0 -0.18325332766E+02 -0.19559376894E+03 -0.26704107690E+03  0.33151723488E+03  0.00000000000E+00 0.  1.
<mgrwt>
<rscale>  4 0.23971900E+03</rscale>
<asrwt>0</asrwt>
<pdfrwt beam="1">  1       21 0.14536182E-01 0.23971900E+03</pdfrwt>
<pdfrwt beam="2">  1        2 0.94014043E-01 0.23971900E+03</pdfrwt>
<totfact> 0.25618153E+04</totfact>
</mgrwt>
</event>
<event>
 5    0  0.3040647E+000  0.2307526E+03  0.7546771E-02  0.1126111E+00
          2   -1    0    0  502    0 -0.00000000000E+00  0.00000000000E+00  0.17990493100E+04  0.17990493100E+04  0.00000000000E+00 0. -1.
         21   -1    0    0  503  502  0.00000000000E+00 -0.00000000000E+00 -0.58832971277E+02  0.58832971277E+02  0.00000000000E+00 0.  1.
         25    1    1    2    0    0  0.22004946980E+03  0.74289875100E+01  0.32652706364E+03  0.41318504608E+03  0.12500000000E+03 0.  0.
         21    1    1    2  503  501 -0.31826024665E+02  0.19914894513E+02  0.30165096190E+02  0.48160480662E+02  0.00000000000E+00 0.  1.
          2    1    1    2  501    0 -0.18822344514E+03 -0.27343882023E+02  0.13835241789E+04  0.13965367545E+04  0.00000000000E+00 0. -1.
<mgrwt>
<rscale>  4 0.23075258E+03</rscale>
<asrwt>0</asrwt>
<pdfrwt beam="1">  1       21 0.90512277E-02 0.23075258E+03</pdfrwt>
<pdfrwt beam="2">  1        2 0.27677678E+00 0.23075258E+03</pdfrwt>
<totfact> 0.11681857E+04</totfact>
</mgrwt>
</event>
<event>
 5    0  0.3040647E+000  0.2738760E+03  0.7546771E-02  0.1099082E+00
         -3   -1    0    0    0  501 -0.00000000000E+00  0.00000000000E+00  0.38486027793E+03  0.38486027793E+03  0.00000000000E+00 0.  1.
         21   -1    0    0  501  502  0.00000000000E+00 -0.00000000000E+00 -0.15248095830E+04  0.15248095830E+04  0.00000000000E+00 0.  1.
         25    1    1    2    0    0 -0.22267082700E+03 -0.10568704308E+03  0.31886505889E+03  0.42196205286E+03  0.12500000000E+03 0.  0.
         21    1    1    2  503  502  0.35795861815E+02  0.25832080567E+02 -0.72297826411E+03  0.72432465820E+03  0.00000000000E+00 0.  1.
         -3    1    1    2    0  503  0.18687496518E+03  0.79854962512E+02 -0.73583609987E+03  0.76338314988E+03  0.00000000000E+00 0.  1.
<mgrwt>
<rscale>  4 0.27387603E+03</rscale>
<asrwt>0</asrwt>
<pdfrwt beam="1">  1       21 0.23458609E+00 0.27387603E+03</pdfrwt>
<pdfrwt beam="2">  1       -3 0.59209274E-01 0.27387603E+03</pdfrwt>
<totfact> 0.10788989E+01</totfact>
</mgrwt>
</event>
<event>
 5    0  0.3040647E+000  0.2206197E+03  0.7546771E-02  0.1133422E+00
         21   -1    0    0  503  502  0.00000000000E+00  0.00000000000E+00  0.11169066320E+03  0.11169066320E+03  0.00000000000E+00 0.  1.
          2   -1    0    0  502    0 -0.00000000000E+00 -0.00000000000E+00 -0.25908397096E+04  0.25908397096E+04  0.00000000000E+00 0. -1.
         25    1    1    2    0    0 -0.14656562804E+03  0.13916094166E+03 -0.57060220202E+03  0.61810931392E+03  0.12500000000E+03 0.  0.
         21    1    1    2  503  501  0.26063882327E+02 -0.75454929697E+01  0.81752621962E+02  0.86137980147E+02  0.00000000000E+00 0.  1.
          2    1    1    2  501    0  0.12050174571E+03 -0.13161544869E+03 -0.19902994663E+04  0.19982830787E+04  0.00000000000E+00 0. -1.
<mgrwt>
<rscale>  4 0.22061966E+03</rscale>
<asrwt>0</asrwt>
<pdfrwt beam="1">  1       21 0.17183178E-01 0.22061966E+03</pdfrwt>
<pdfrwt beam="2">  1        2 0.39859074E+00 0.22061966E+03</pdfrwt>
<totfact> 0.14043191E+03</totfact>
</mgrwt>
</event>
<event>
 5    0  0.3040647E+000  0.2849728E+03  0.7546771E-02  0.1093003E+00
          2   -1    0    0  502    0 -0.00000000000E+00  0.00000000000E+00  0.16506359417E+04  0.16506359417E+04  0.00000000000E+00 0.  1.
         21   -1    0    0  503  502  0.00000000000E+00 -0.00000000000E+00 -0.11241347507E+03  0.11241347507E+03  0.00000000000E+00 0.  1.
         25    1    1    2    0    0  0.29878138755E+03  0.56222754075E+02  0.38596539076E+03  0.50697692105E+03  0.12500000000E+03 0.  0.
         21    1    1    2  503  501 -0.22371502844E+03 -0.45707368901E+02  0.20828939400E+03  0.30906641548E+03  0.00000000000E+00 0.  1.
          2    1    1    2  501    0 -0.75066359102E+02 -0.10515385174E+02  0.94396768192E+03  0.94700608028E+03  0.00000000000E+00 0.  1.
<mgrwt>
<rscale>  4 0.28497278E+03</rscale>
<asrwt>0</asrwt>
<pdfrwt beam="1">  1       21 0.17294382E-01 0.28497278E+03</pdfrwt>
<pdfrwt beam="2">  1        2 0.25394397E+00 0.28497278E+03</pdfrwt>
<totfact> 0.42567816E+03</totfact>
</mgrwt>
</event>
<event>
 5    0  0.3040647E+000  0.2436182E+03  0.7546771E-02  0.1117406E+00
          1   -1    0    0  502    0 -0.00000000000E+00  0.00000000000E+00  0.48213352052E+03  0.48213352052E+03  0.00000000000E+00 0. -1.
         21   -1    0    0  503  502  0.00000000000E+00 -0.00000000000E+00 -0.21453121365E+03  0.21453121365E+03  0.00000000000E+00 0. -1.
         25    1    1    2    0    0 -0.26171714656E+03  0.27395679676E+02  0.15344453826E+03  0.32926678300E+03  0.12500000000E+03 0.  0.
         21    1    1    2  503  501  0.79686115684E+02 -0.72158269532E+02 -0.49689446352E+02  0.11843029162E+03  0.00000000000E+00 0. -1.
          1    1    1    2  501    0  0.18203103087E+03  0.44762589855E+02  0.16384721496E+03  0.24896765955E+03  0.00000000000E+00 0. -1.
<mgrwt>
<rscale>  4 0.24361823E+03</rscale>
<asrwt>0</asrwt>
<pdfrwt beam="1">  1       21 0.33004802E-01 0.24361823E+03</pdfrwt>
<pdfrwt beam="2">  1        1 0.74174388E-01 0.24361823E+03</pdfrwt>
<totfact> 0.45556623E+03</totfact>
</mgrwt>
</event>
<event>
 5    0  0.3040647E+000  0.2664991E+03  0.7546771E-02  0.1103300E+00
          2   -1    0    0  502    0 -0.00000000000E+00  0.00000000000E+00  0.19933024715E+03  0.19933024715E+03  0.00000000000E+00 0.  1.
         21   -1    0    0  503  502  0.00000000000E+00 -0.00000000000E+00 -0.69246548336E+03  0.69246548336E+03  0.00000000000E+00 0.  1.
         25    1    1    2    0    0  0.15533469991E+02 -0.23288385190E+03 -0.53919568384E+03  0.60069390095E+03  0.12500000000E+03 0.  0.
         21    1    1    2  503  501  0.39256085589E+02 -0.81866497925E+01  0.35778021723E+01  0.40259932426E+02  0.00000000000E+00 0.  1.
          2    1    1    2  501    0 -0.54789555580E+02  0.24107050169E+03  0.42482645462E+02  0.25084189713E+03  0.00000000000E+00 0.  1.
<mgrwt>
<rscale>  4 0.26649905E+03</rscale>
<asrwt>0</asrwt>
<pdfrwt beam="1">  1       21 0.10653315E+00 0.26649905E+03</pdfrwt>
<pdfrwt beam="2">  1        2 0.30666192E-01 0.26649905E+03</pdfrwt>
<totfact> 0.14424310E+03</totfact>
</mgrwt>
</event>
<event>
 5    0  0.3040647E+000  0.2162740E+03  0.7546771E-02  0.1136692E+00
         21   -1    0    0  503  502  0.00000000000E+00  0.00000000000E+00  0.11791327601E+04  0.11791327601E+04  0.00000000000E+00 0.  1.
          2   -1    0    0  502    0 -0.00000000000E+00 -0.00000000000E+00 -0.20609149688E+03  0.20609149688E+03  0.00000000000E+00 0. -1.
         25    1    1    2    0    0 -0.18586560220E+03  0.82040210073E+02  0.10071101757E+04  0.10349746490E+04  0.12500000000E+03 0.  0.
         21    1    1    2  503  501  0.27007201284E+02 -0.75905684852E+01  0.11602396621E+03  0.11936735896E+03  0.00000000000E+00 0.  1.
          2    1    1    2  501    0  0.15885840092E+03 -0.74449641588E+02 -0.15009287867E+03  0.23088224900E+03  0.00000000000E+00 0. -1.
<mgrwt>
<rscale>  4 0.21627400E+03</rscale>
<asrwt>0</asrwt>
<pdfrwt beam="1">  1       21 0.18140504E+00 0.21627400E+03</pdfrwt>
<pdfrwt beam="2">  1        2 0.31706385E-01 0.21627400E+03</pdfrwt>
<totfact> 0.35577911E+02</totfact>
</mgrwt>
</event>
<event>
 5    0  0.3040647E+000  0.4087725E+03  0.7546771E-02  0.1040784E+00
          2   -1    0    0  502    0 -0.00000000000E+00  0.00000000000E+00  0.27397021831E+04  0.27397021831E+04  0.00000000000E+00 0. -1.
         21   -1    0    0  503  502  0.00000000000E+00 -0.00000000000E+00 -0.10480853798E+03  0.10480853798E+03  0.00000000000E+00 0.  1.
         25    1    1    2    0    0 -0.23520286316E+03 -0.29676282275E+03  0.42408296079E+03  0.58211675585E+03  0.12500000000E+03 0.  0.
         21    1    1    2  503  501  0.11285286070E+02 -0.24534905772E+02  0.13014308678E+02  0.29978183956E+02  0.00000000000E+00 0. -1.
          2    1    1    2  501    0  0.22391757709E+03  0.32129772852E+03  0.21977963756E+04  0.22324157813E+04  0.00000000000E+00 0. -1.
<mgrwt>
<rscale>  4 0.40877246E+03</rscale>
<asrwt>0</asrwt>
<pdfrwt beam="1">  1       21 0.16124393E-01 0.40877246E+03</pdfrwt>
<pdfrwt beam="2">  1        2 0.42149259E+00 0.40877246E+03</pdfrwt>
<totfact> 0.11938068E+03</totfact>
</mgrwt>
</event>
<event>
 5    0  0.3040647E+000  0.2214074E+03  0.7546771E-02  0.1132838E+00
         -4   -1    0    0    0  501 -0.00000000000E+00  0.00000000000E+00  0.55483496067E+03  0.55483496067E+03  0.00000000000E+00 0.  1.
         21   -1    0    0  501  502  0.00000000000E+00 -0.00000000000E+00 -0.11924468436E+03  0.11924468436E+03  0.00000000000E+00 0.  1.
         25    1    1    2    0    0  0.11899550764E+03  0.16500415299E+03  0.15802003313E+03  0.28632434793E+03  0.12500000000E+03 0.  0.
         21    1    1    2  503  502 -0.12309169056E+03 -0.11857305007E+03  0.87413982541E+02  0.19196962476E+03  0.00000000000E+00 0.  1.
         -4    1    1    2    0  503  0.40961829167E+01 -0.46431102924E+02  0.19015626064E+03  0.19578567234E+03  0.00000000000E+00 0.  1.
<mgrwt>
<rscale>  4 0.22140737E+03</rscale>
<asrwt>0</asrwt>
<pdfrwt beam="1">  1       21 0.18345336E-01 0.22140737E+03</pdfrwt>
<pdfrwt beam="2">  1       -4 0.85359223E-01 0.22140737E+03</pdfrwt>
<totfact> 0.14031238E+03</totfact>
</mgrwt>
</event>
<event>
 5    0  0.3040647E+000  0.1933084E+03  0.7546771E-02  0.1155511E+00
         21   -1    0    0  503  502  0.00000000000E+00  0.00000000000E+00  0.10553459188E+03  0.10553459188E+03  0.00000000000E+00 0.  1.
          1   -1    0    0  502    0 -0.00000000000E+00 -0.00000000000E+00 -0.76614492732E+03  0.76614492732E+03  0.00000000000E+00 0.  1.
         25    1    1    2    0    0  0.36337570172E+02  0.21553906421E+03 -0.13252183405E+03  0.28454269224E+03  0.12500000000E+03 0.  0.
         21    1    1    2  503  501  0.12771320628E+02 -0.86387139631E+02 -0.80727307373E+02  0.11892326383E+03  0.00000000000E+00 0.  1.
          1    1    1    2  501    0 -0.49108890799E+02 -0.12915192458E+03 -0.44736119402E+03  0.46821356313E+03  0.00000000000E+00 0.  1.
<mgrwt>
<rscale>  4 0.19330839E+03</rscale>
<asrwt>0</asrwt>
<pdfrwt beam="1">  1       21 0.16236091E-01 0.19330839E+03</pdfrwt>
<pdfrwt beam="2">  1        1 0.11786845E+00 0.19330839E+03</pdfrwt>
<totfact> 0.93309882E+03</totfact>
</mgrwt>
</event>
<event>
 5    0  0.3040647E+000  0.2412805E+03  0.7546771E-02  0.1118943E+00
          2   -1    0    0  502    0 -0.00000000000E+00  0.00000000000E+00  0.18763690259E+04  0.18763690259E+04  0.00000000000E+00 0. -1.
         21   -1    0    0  503  502  0.00000000000E+00 -0.00000000000E+00 -0.26484278077E+03  0.26484278077E+03  0.00000000000E+00 0. -1.
         25    1    1    2    0    0 -0.12948942018E+03 -0.29721025011E+03  0.11177668481E+04  0.11705251682E+04  0.12500000000E+03 0.  0.
         21    1    1    2  503  501  0.14643794102E+02  0.20193968412E+03 -0.18588239282E+03  0.27485694586E+03  0.00000000000E+00 0. -1.
          2    1    1    2  501    0  0.11484562608E+03  0.95270565985E+02  0.67964178984E+03  0.69582969258E+03  0.00000000000E+00 0. -1.
<mgrwt>
<rscale>  4 0.24128049E+03</rscale>
<asrwt>0</asrwt>
<pdfrwt beam="1">  1       21 0.40745044E-01 0.24128049E+03</pdfrwt>
<pdfrwt beam="2">  1        2 0.28867215E+00 0.24128049E+03</pdfrwt>
<totfact> 0.62692381E+02</totfact>
</mgrwt>
</event>
<event>
 5    0  0.3040647E+000  0.1666029E+03  0.7546771E-02  0.1181437E+00
          2   -1    0    0  502    0 -0.00000000000E+00  0.00000000000E+00  0.14949552614E+04  0.14949552614E+04  0.00000000000E+00 0.  1.
         21   -1    0    0  503  502  0.00000000000E+00 -0.00000000000E+00 -0.19581402240E+03  0.19581402240E+03  0.00000000000E+00 0. -1.
         25    1    1    2    0    0 -0.10966929515E+03 -0.17137775089E+03  0.12463083834E+04  0.12689788313E+04  0.12500000000E+03 0.  0.
         21    1    1    2  503  501  0.57953690478E+02  0.92177025964E+02 -0.15732421874E+03  0.19132732204E+03  0.00000000000E+00 0. -1.
          2    1    1    2  501    0  0.51715604671E+02  0.79200724928E+02  0.21015707427E+03  0.23046313038E+03  0.00000000000E+00 0.  1.
<mgrwt>
<rscale>  4 0.16660291E+03</rscale>
<asrwt>0</asrwt>
<pdfrwt beam="1">  1       21 0.30125235E-01 0.16660291E+03</pdfrwt>
<pdfrwt beam="2">  1        2 0.22999311E+00 0.16660291E+03</pdfrwt>
<totfact> 0.18964801E+03</totfact>
</mgrwt>
</event>
<event>
 5    0  0.3040647E+000  0.2934641E+03  0.7546771E-02  0.1088554E+00
          2   -1    0    0  502    0 -0.00000000000E+00  0.00000000000E+00  0.21356730534E+04  0.21356730534E+04  0.00000000000E+00 0.  1.
         21   -1    0    0  503  502  0.00000000000E+00 -0.00000000000E+00 -0.12417978688E+03  0.12417978688E+03  0.00000000000E+00 0.  1.
         25    1    1    2    0    0 -0.12430792124E+03 -0.20765245132E+03  0.71220285782E+02  0.28154809345E+03  0.12500000000E+03 0.  0.
         21    1    1    2  503  501 -0.16124514098E+02 -0.20104612906E+02  0.71412278481E+01  0.26743084156E+02  0.00000000000E+00 0. -1.
          2    1    1    2  501    0  0.14043243534E+03  0.22775706422E+03  0.19331317529E+04  0.19515616627E+04  0.00000000000E+00 0.  1.
<mgrwt>
<rscale>  4 0.29346411E+03</rscale>
<asrwt>0</asrwt>
<pdfrwt beam="1">  1       21 0.19104584E-01 0.29346411E+03</pdfrwt>
<pdfrwt beam="2">  1        2 0.32856506E+00 0.29346411E+03</pdfrwt>
<totfact> 0.19533961E+03</totfact>
</mgrwt>
</event>
<event>
 5    0  0.3040647E+000  0.5889933E+03  0.7546771E-02  0.9928508E-01
         -3   -1    0    0    0  501 -0.00000000000E+00  0.00000000000E+00  0.11596773044E+04  0.11596773044E+04  0.00000000000E+00 0. -1.
         21   -1    0    0  501  502  0.00000000000E+00 -0.00000000000E+00 -0.45695222601E+03  0.45695222601E+03  0.00000000000E+00 0. -1.
         25    1    1    2    0    0 -0.44325735836E+03  0.43152986305E+03  0.50498584875E+02  0.63314312404E+03  0.12500000000E+03 0.  0.
         21    1    1    2  503  502  0.11422215869E+03  0.24870232392E+02 -0.66244657635E+01  0.11708592376E+03  0.00000000000E+00 0. -1.
         -3    1    1    2    0  503  0.32903519966E+03 -0.45640009544E+03  0.65885095927E+03  0.86640048261E+03  0.00000000000E+00 0. -1.
<mgrwt>
<rscale>  4 0.58899332E+03</rscale>
<asrwt>0</asrwt>
<pdfrwt beam="1">  1       21 0.70300343E-01 0.58899332E+03</pdfrwt>
<pdfrwt beam="2">  1       -3 0.17841189E+00 0.58899332E+03</pdfrwt>
<totfact> 0.17435629E+01</totfact>
</mgrwt>
</event>
<event>
 5    0  0.3040647E+000  0.2633197E+03  0.7546771E-02  0.1105165E+00
          3   -1    0    0  502    0 -0.00000000000E+00  0.00000000000E+00  0.52722540235E+03  0.52722540235E+03  0.00000000000E+00 0. -1.
         21   -1    0    0  503  502  0.00000000000E+00 -0.00000000000E+00 -0.43252516343E+03  0.43252516343E+03  0.00000000000E+00 0. -1.
         25    1    1    2    0    0 -0.15035892518E+03  0.23836136857E+03 -0.27811591533E+03  0.41520767186E+03  0.12500000000E+03 0.  0.
         21    1    1    2  503  501  0.51305378823E+02 -0.33376117014E+02 -0.39995467175E+02  0.73115282108E+02  0.00000000000E+00 0. -1.
          3    1    1    2  501    0  0.99053546359E+02 -0.20498525156E+03  0.41281162142E+03  0.47142761182E+03  0.00000000000E+00 0. -1.
<mgrwt>
<rscale>  4 0.26331974E+03</rscale>
<asrwt>0</asrwt>
<pdfrwt beam="1">  1       21 0.66542333E-01 0.26331974E+03</pdfrwt>
<pdfrwt beam="2">  1        3 0.81111600E-01 0.26331974E+03</pdfrwt>
<totfact> 0.14510224E+02</totfact>
</mgrwt>
</event>
<event>
 5    0  0.3040647E+000  0.2464887E+03  0.7546771E-02  0.1115544E+00
         21   -1    0    0  503  502  0.00000000000E+00  0.00000000000E+00  0.61813435362E+03  0.61813435362E+03  0.00000000000E+00 0.  1.
          2   -1    0    0  502    0 -0.00000000000E+00 -0.00000000000E+00 -0.61794060632E+03  0.61794060632E+03  0.00000000000E+00 0.  1.
         25    1    1    2    0    0 -0.35618456967E+02  0.20720572167E+03  0.53127168628E+03  0.58487390967E+03  0.12500000000E+03 0.  0.
         21    1    1    2  503  501  0.41083855188E+02  0.53786625648E+01  0.30013724817E+02  0.51162846338E+02  0.00000000000E+00 0.  1.
          2    1    1    2  501    0 -0.54653982203E+01 -0.21258438423E+03 -0.56109166379E+03  0.60003820393E+03  0.00000000000E+00 0.  1.
<mgrwt>
<rscale>  4 0.24648873E+03</rscale>
<asrwt>0</asrwt>
<pdfrwt beam="1">  1       21 0.95097593E-01 0.24648873E+03</pdfrwt>
<pdfrwt beam="2">  1        2 0.95067785E-01 0.24648873E+03</pdfrwt>
<totfact> 0.54912440E+02</totfact>
</mgrwt>
</event>
<event>
 5    0  0.3040647E+000  0.2890655E+03  0.7546771E-02  0.1090838E+00
         21   -1    0    0  503  502  0.00000000000E+00  0.00000000000E+00  0.14928591767E+03  0.14928591767E+03  0.00000000000E+00 0. -1.
          2   -1    0    0  502    0 -0.00000000000E+00 -0.00000000000E+00 -0.19077228363E+04  0.19077228363E+04  0.00000000000E+00 0. -1.
         25    1    1    2    0    0 -0.19464584978E+03 -0.19752228648E+03 -0.14840428004E+04  0.15148960671E+04  0.12500000000E+03 0.  0.
         21    1    1    2  503  501  0.13865084679E+03  0.21960158399E+03  0.15157351741E+01  0.25971370865E+03  0.00000000000E+00 0. -1.
          2    1    1    2  501    0  0.55995002984E+02 -0.22079297504E+02 -0.27590985337E+03  0.28239897826E+03  0.00000000000E+00 0. -1.
<mgrwt>
<rscale>  4 0.28906547E+03</rscale>
<asrwt>0</asrwt>
<pdfrwt beam="1">  1       21 0.22967063E-01 0.28906547E+03</pdfrwt>
<pdfrwt beam="2">  1        2 0.29349584E+00 0.28906547E+03</pdfrwt>
<totfact> 0.18222488E+03</totfact>
</mgrwt>
</event>
<event>
 5    0  0.3040647E+000  0.1930854E+03  0.7546771E-02  0.1155708E+00
         21   -1    0    0  503  502  0.00000000000E+00  0.00000000000E+00  0.57152878839E+02  0.57152878839E+02  0.00000000000E+00 0. -1.
          1   -1    0    0  502    0 -0.00000000000E+00 -0.00000000000E+00 -0.12268844588E+04  0.12268844588E+04  0.00000000000E+00 0. -1.
         25    1    1    2    0    0  0.55775651067E+02  0.19538722766E+03 -0.31428775582E+03  0.39457430915E+03  0.12500000000E+03 0.  0.
         21    1    1    2  503  501 -0.15205034237E+02 -0.62926840715E+02 -0.85974856560E+02  0.10762274996E+03  0.00000000000E+00 0.  1.
          1    1    1    2  501    0 -0.40570616830E+02 -0.13246038694E+03 -0.76946896761E+03  0.78184027855E+03  0.00000000000E+00 0. -1.
<mgrwt>
<rscale>  4 0.19308537E+03</rscale>
<asrwt>0</asrwt>
<pdfrwt beam="1">  1       21 0.87927512E-02 0.19308537E+03</pdfrwt>
<pdfrwt beam="2">  1        1 0.18875144E+00 0.19308537E+03</pdfrwt>
<totfact> 0.12605767E+04</totfact>
</mgrwt>
</event>
<event>
 5    0  0.3040647E+000  0.1828865E+03  0.7546771E-02  0.1165038E+00
          2   -1    0    0  502    0 -0.00000000000E+00  0.00000000000E+00  0.75085345607E+03  0.75085345607E+03  0.00000000000E+00 0. -1.
         21   -1    0    0  503  502  0.00000000000E+00 -0.00000000000E+00 -0.31572330394E+03  0.31572330394E+03  0.00000000000E+00 0. -1.
         25    1    1    2    0    0  0.12046433609E+03  0.16256860967E+03  0.27283436203E+03  0.36194446842E+03  0.12500000000E+03 0.  0.
         21    1    1    2  503  501 -0.32471045614E+02 -0.79864318811E+02 -0.25554249658E+03  0.26969361464E+03  0.00000000000E+00 0. -1.
          2    1    1    2  501    0 -0.87993290479E+02 -0.82704290855E+02  0.41783828667E+03  0.43493867695E+03  0.00000000000E+00 0. -1.
<mgrwt>
<rscale>  4 0.18288647E+03</rscale>
<asrwt>0</asrwt>
<pdfrwt beam="1">  1       21 0.48572816E-01 0.18288647E+03</pdfrwt>
<pdfrwt beam="2">  1        2 0.11551592E+00 0.18288647E+03</pdfrwt>
<totfact> 0.19749003E+03</totfact>
</mgrwt>
</event>
<event>
 5    0  0.3040647E+000  0.3249317E+03  0.7546771E-02  0.1073402E+00
          1   -1    0    0  502    0 -0.00000000000E+00  0.00000000000E+00  0.60951383549E+03  0.60951383549E+03  0.00000000000E+00 0.  1.
         21   -1    0    0  503  502  0.00000000000E+00 -0.00000000000E+00 -0.11251519268E+04  0.11251519268E+04  0.00000000000E+00 0. -1.
         25    1    1    2    0    0  0.27431802933E+03  0.15463513876E+03 -0.90794624848E+03  0.96909947760E+03  0.12500000000E+03 0.  0.
         21    1    1    2  503  501 -0.49885009410E+01 -0.24017911965E+02 -0.14685232976E+03  0.14888704441E+03  0.00000000000E+00 0.  1.
          1    1    1    2  501    0 -0.26932952839E+03 -0.13061722679E+03  0.53916048689E+03  0.61667924031E+03  0.00000000000E+00 0.  1.
<mgrwt>
<rscale>  4 0.32493171E+03</rscale>
<asrwt>0</asrwt>
<pdfrwt beam="1">  1       21 0.17310030E+00 0.32493171E+03</pdfrwt>
<pdfrwt beam="2">  1        1 0.93771360E-01 0.32493171E+03</pdfrwt>
<totfact> 0.70335727E+01</totfact>
</mgrwt>
</event>
<event>
 5    0  0.3040647E+000  0.3011157E+03  0.7546771E-02  0.1084684E+00
          1   -1    0    0  502    0 -0.00000000000E+00  0.00000000000E+00  0.10957039070E+04  0.10957039070E+04  0.00000000000E+00 0. -1.
         21   -1    0    0  503  502  0.00000000000E+00 -0.00000000000E+00 -0.55810738656E+03  0.55810738656E+03  0.00000000000E+00 0.  1.
         25    1    1    2    0    0  0.73026562649E+02  0.25188205918E+03 -0.44577273291E+03  0.53208625240E+03  0.12500000000E+03 0.  0.
         21    1    1    2  503  501  0.59665127149E+02 -0.11455592299E+02 -0.32841743655E+02  0.69063290675E+02  0.00000000000E+00 0. -1.
          1    1    1    2  501    0 -0.13269168980E+03 -0.24042646688E+03  0.10162109970E+04  0.10526617505E+04  0.00000000000E+00 0. -1.
<mgrwt>
<rscale>  4 0.30111571E+03</rscale>
<asrwt>0</asrwt>
<pdfrwt beam="1">  1       21 0.85862675E-01 0.30111571E+03</pdfrwt>
<pdfrwt beam="2">  1        1 0.16856983E+00 0.30111571E+03</pdfrwt>
<totfact> 0.16693084E+02</totfact>
</mgrwt>
</event>
<event>
 5    0  0.3040647E+000  0.2593151E+03  0.7546771E-02  0.1107555E+00
         21   -1    0    0  501  502  0.00000000000E+00  0.00000000000E+00  0.32970604295E+03  0.32970604295E+03  0.00000000000E+00 0.  1.
         -1   -1    0    0    0  501 -0.00000000000E+00 -0.00000000000E+00 -0.11946609579E+04  0.11946609579E+04  0.00000000000E+00 0.  1.
         25    1    1    2    0    0  0.33661395324E+03 -0.65090509931E+02 -0.73784531801E+03  0.82315638934E+03  0.12500000000E+03 0.  0.
         21    1    1    2  503  502 -0.16298327147E+03  0.49097859743E+02  0.24032639912E+03  0.29450114554E+03  0.00000000000E+00 0.  1.
         -1    1    1    2    0  503 -0.17363068177E+03  0.15992650189E+02 -0.36743599607E+03  0.40670946598E+03  0.00000000000E+00 0.  1.
<mgrwt>
<rscale>  4 0.25931510E+03</rscale>
<asrwt>0</asrwt>
<pdfrwt beam="1">  1       21 0.50724005E-01 0.25931510E+03</pdfrwt>
<pdfrwt beam="2">  1       -1 0.18379400E+00 0.25931510E+03</pdfrwt>
<totfact> 0.72586569E+01</totfact>
</mgrwt>
</event>
<event>
 5    0  0.3040647E+000  0.2233078E+03  0.7546771E-02  0.1131441E+00
         21   -1    0    0  503  502  0.00000000000E+00  0.00000000000E+00  0.68348115073E+02  0.68348115073E+02  0.00000000000E+00 0.  1.
          1   -1    0    0  502    0 -0.00000000000E+00 -0.00000000000E+00 -0.12582963423E+04  0.12582963423E+04  0.00000000000E+00 0.  1.
         25    1    1    2    0    0 -0.20817352596E+03  0.84117775642E+02 -0.40108646374E+03  0.47634794897E+03  0.12500000000E+03 0.  0.
         21    1    1    2  503  501  0.36554894814E+02 -0.48169216120E+02 -0.23124383372E+02  0.64740024891E+02  0.00000000000E+00 0.  1.
          1    1    1    2  501    0  0.17161863115E+03 -0.35948559522E+02 -0.76573738015E+03  0.78555648355E+03  0.00000000000E+00 0.  1.
<mgrwt>
<rscale>  4 0.22330783E+03</rscale>
<asrwt>0</asrwt>
<pdfrwt beam="1">  1       21 0.10515096E-01 0.22330783E+03</pdfrwt>
<pdfrwt beam="2">  1        1 0.19358403E+00 0.22330783E+03</pdfrwt>
<totfact> 0.86658811E+03</totfact>
</mgrwt>
</event>
<event>
 5    0  0.3040647E+000  0.2678769E+03  0.7546771E-02  0.1102501E+00
          1   -1    0    0  502    0 -0.00000000000E+00  0.00000000000E+00  0.18419261665E+03  0.18419261665E+03  0.00000000000E+00 0. -1.
         21   -1    0    0  503  502  0.00000000000E+00 -0.00000000000E+00 -0.49255118581E+03  0.49255118581E+03  0.00000000000E+00 0.  1.
         25    1    1    2    0    0  0.25181223065E+03  0.39214425169E+01 -0.28089654523E+03  0.39743256829E+03  0.12500000000E+03 0.  0.
         21    1    1    2  503  501 -0.19678504740E+02 -0.63267204776E+01 -0.41894989178E+02  0.46716817732E+02  0.00000000000E+00 0.  1.
          1    1    1    2  501    0 -0.23213372591E+03  0.24052779607E+01  0.14432965242E+02  0.23259441643E+03  0.00000000000E+00 0. -1.
<mgrwt>
<rscale>  4 0.26787688E+03</rscale>
<asrwt>0</asrwt>
<pdfrwt beam="1">  1       21 0.75777103E-01 0.26787688E+03</pdfrwt>
<pdfrwt beam="2">  1        1 0.28337327E-01 0.26787688E+03</pdfrwt>
<totfact> 0.26750948E+03</totfact>
</mgrwt>
</event>
<event>
 5    0  0.3040647E+000  0.2363543E+03  0.7546771E-02  0.1122246E+00
          2   -1    0    0  502    0 -0.00000000000E+00  0.00000000000E+00  0.93431626871E+03  0.93431626871E+03  0.00000000000E+00 0. -1.
         21   -1    0    0  503  502  0.00000000000E+00 -0.00000000000E+00 -0.11529972758E+03  0.11529972758E+03  0.00000000000E+00 0. -1.
         25    1    1    2    0    0 -0.96541281846E+02 -0.20564115230E+03  0.82171763610E+02  0.27200312747E+03  0.12500000000E+03 0.  0.
         21    1    1    2  503  501  0.11852518949E+02  0.27939536438E+02  0.25836322610E+02  0.39857439303E+02  0.00000000000E+00 0. -1.
          2    1    1    2  501    0  0.84688762898E+02  0.17770161586E+03  0.71100845491E+03  0.73775542952E+03  0.00000000000E+00 0. -1.
<mgrwt>
<rscale>  4 0.23635426E+03</rscale>
<asrwt>0</asrwt>
<pdfrwt beam="1">  1       21 0.17738420E-01 0.23635426E+03</pdfrwt>
<pdfrwt beam="2">  1        2 0.14374096E+00 0.23635426E+03</pdfrwt>
<totfact> 0.10444222E+04</totfact>
</mgrwt>
</event>
<event>
 5    0  0.3040647E+000  0.2675114E+03  0.7546771E-02  0.1102712E+00
         21   -1    0    0  503  502  0.00000000000E+00  0.00000000000E+00  0.11064066076E+03  0.11064066076E+03  0.00000000000E+00 0. -1.
          2   -1    0    0  502    0 -0.00000000000E+00 -0.00000000000E+00 -0.80899648534E+03  0.80899648534E+03  0.00000000000E+00 0.  1.
         25    1    1    2    0    0 -0.48638535491E+02  0.23855489454E+03 -0.39932173482E+03  0.48410432011E+03  0.12500000000E+03 0.  0.
         21    1    1    2  503  501  0.27521618713E+02 -0.84171832585E+01  0.24595394165E+02  0.37857917068E+02  0.00000000000E+00 0. -1.
          2    1    1    2  501    0  0.21116916778E+02 -0.23013771128E+03 -0.32362948392E+03  0.39767490893E+03  0.00000000000E+00 0.  1.
<mgrwt>
<rscale>  4 0.26751141E+03</rscale>
<asrwt>0</asrwt>
<pdfrwt beam="1">  1       21 0.17021639E-01 0.26751141E+03</pdfrwt>
<pdfrwt beam="2">  1        2 0.12446100E+00 0.26751141E+03</pdfrwt>
<totfact> 0.13542061E+04</totfact>
</mgrwt>
</event>
<event>
 5    0  0.3040647E+000  0.3337266E+03  0.7546771E-02  0.1069500E+00
          2   -1    0    0  502    0 -0.00000000000E+00  0.00000000000E+00  0.10383569857E+04  0.10383569857E+04  0.00000000000E+00 0. -1.
         21   -1    0    0  503  502  0.00000000000E+00 -0.00000000000E+00 -0.52307579290E+03  0.52307579290E+03  0.00000000000E+00 0. -1.
         25    1    1    2    0    0 -0.70530955647E+02  0.25999686737E+03 -0.40107527048E+03  0.49905847287E+03  0.12500000000E+03 0.  0.
         21    1    1    2  503  501 -0.25279907013E+01  0.42961156297E+02 -0.38626494880E+02  0.57827828889E+02  0.00000000000E+00 0. -1.
          2    1    1    2  501    0  0.73058946348E+02 -0.30295802367E+03  0.95498295813E+03  0.10045464768E+04  0.00000000000E+00 0. -1.
<mgrwt>
<rscale>  4 0.33372657E+03</rscale>
<asrwt>0</asrwt>
<pdfrwt beam="1">  1       21 0.80473199E-01 0.33372657E+03</pdfrwt>
<pdfrwt beam="2">  1        2 0.15974723E+00 0.33372657E+03</pdfrwt>
<totfact> 0.39780228E+02</totfact>
</mgrwt>
</event>
<event>
 5    0  0.3040647E+000  0.2508165E+03  0.7546771E-02  0.1112790E+00
         21   -1    0    0  503  502  0.00000000000E+00  0.00000000000E+00  0.58350055859E+02  0.58350055859E+02  0.00000000000E+00 0.  1.
          1   -1    0    0  502    0 -0.00000000000E+00 -0.00000000000E+00 -0.10892675768E+04  0.10892675768E+04  0.00000000000E+00 0.  1.
         25    1    1    2    0    0 -0.20286179539E+03 -0.24402528128E+02 -0.38556190518E+03  0.45390679014E+03  0.12500000000E+03 0.  0.
         21    1    1    2  503  501 -0.18492158567E+02 -0.18376754699E+02 -0.40095925807E+02  0.47826230335E+02  0.00000000000E+00 0.  1.
          1    1    1    2  501    0  0.22135395396E+03  0.42779282827E+02 -0.60525968995E+03  0.64588461218E+03  0.00000000000E+00 0.  1.
<mgrwt>
<rscale>  4 0.25081645E+03</rscale>
<asrwt>0</asrwt>
<pdfrwt beam="1">  1       21 0.89769326E-02 0.25081645E+03</pdfrwt>
<pdfrwt beam="2">  1        1 0.16757961E+00 0.25081645E+03</pdfrwt>
<totfact> 0.14974419E+04</totfact>
</mgrwt>
</event>
<event>
 5    0  0.3040647E+000  0.2415964E+03  0.7546771E-02  0.1118734E+00
         21   -1    0    0  503  502  0.00000000000E+00  0.00000000000E+00  0.88942175694E+02  0.88942175694E+02  0.00000000000E+00 0. -1.
          2   -1    0    0  502    0 -0.00000000000E+00 -0.00000000000E+00 -0.73160906137E+03  0.73160906137E+03  0.00000000000E+00 0. -1.
         25    1    1    2    0    0  0.20816831868E+03 -0.57221767232E+02 -0.23642338391E+03  0.34369957232E+03  0.12500000000E+03 0.  0.
         21    1    1    2  503  501 -0.90279680366E+01  0.18464361512E+02  0.23264999163E+01  0.20684522107E+02  0.00000000000E+00 0.  1.
          2    1    1    2  501    0 -0.19914035065E+03  0.38757405720E+02 -0.40857000168E+03  0.45616714264E+03  0.00000000000E+00 0. -1.
<mgrwt>
<rscale>  4 0.24159644E+03</rscale>
<asrwt>0</asrwt>
<pdfrwt beam="1">  1       21 0.13683411E-01 0.24159644E+03</pdfrwt>
<pdfrwt beam="2">  1        2 0.11255524E+00 0.24159644E+03</pdfrwt>
<totfact> 0.23044611E+04</totfact>
</mgrwt>
</event>
<event>
 5    0  0.3040647E+000  0.2375292E+03  0.7546771E-02  0.1121450E+00
          1   -1    0    0  502    0 -0.00000000000E+00  0.00000000000E+00  0.10835296454E+04  0.10835296454E+04  0.00000000000E+00 0.  1.
         21   -1    0    0  503  502  0.00000000000E+00 -0.00000000000E+00 -0.10526311973E+03  0.10526311973E+03  0.00000000000E+00 0.  1.
         25    1    1    2    0    0 -0.16425628082E+02 -0.24790174924E+03  0.54559075433E+03  0.61238823449E+03  0.12500000000E+03 0.  0.
         21    1    1    2  503  501 -0.12683362107E+03  0.11917540491E+03  0.12832377359E+03  0.21623259569E+03  0.00000000000E+00 0.  1.
          1    1    1    2  501    0  0.14325924915E+03  0.12872634433E+03  0.30435199777E+03  0.36017193496E+03  0.00000000000E+00 0.  1.
<mgrwt>
<rscale>  4 0.23752916E+03</rscale>
<asrwt>0</asrwt>
<pdfrwt beam="1">  1       21 0.16194327E-01 0.23752916E+03</pdfrwt>
<pdfrwt beam="2">  1        1 0.16669686E+00 0.23752916E+03</pdfrwt>
<totfact> 0.52431818E+03</totfact>
</mgrwt>
</event>
<event>
 5    0  0.3040647E+000  0.2314758E+03  0.7546771E-02  0.1125605E+00
          2   -1    0    0  502    0 -0.00000000000E+00  0.00000000000E+00  0.46832364262E+04  0.46832364262E+04  0.00000000000E+00 0. -1.
         21   -1    0    0  503  502  0.00000000000E+00 -0.00000000000E+00 -0.21898481787E+03  0.21898481787E+03  0.00000000000E+00 0.  1.
         25    1    1    2    0    0  0.19115678828E+03  0.25467956287E+03  0.80925379585E+03  0.87858938278E+03  0.12500000000E+03 0.  0.
         21    1    1    2  503  501 -0.73210074326E+02 -0.17340661380E+03 -0.13455342851E+03  0.23137457470E+03  0.00000000000E+00 0.  1.
          2    1    1    2  501    0 -0.11794671396E+03 -0.81272949062E+02  0.37895512410E+04  0.37922572866E+04  0.00000000000E+00 0. -1.
<mgrwt>
<rscale>  4 0.23147578E+03</rscale>
<asrwt>0</asrwt>
<pdfrwt beam="1">  1       21 0.33689975E-01 0.23147578E+03</pdfrwt>
<pdfrwt beam="2">  1        2 0.72049784E+00 0.23147578E+03</pdfrwt>
<totfact> 0.12374945E+01</totfact>
</mgrwt>
</event>
<event>
 5    0  0.3040647E+000  0.4148463E+03  0.7546771E-02  0.1038757E+00
         21   -1    0    0  501  502  0.00000000000E+00  0.00000000000E+00  0.68489224136E+03  0.68489224136E+03  0.00000000000E+00 0. -1.
         -3   -1    0    0    0  501 -0.00000000000E+00 -0.00000000000E+00 -0.31720363045E+03  0.31720363045E+03  0.00000000000E+00 0.  1.
         25    1    1    2    0    0 -0.18521595245E+03 -0.36972589513E+03  0.18040243945E+03  0.46815833511E+03  0.12500000000E+03 0.  0.
         21    1    1    2  503  502  0.96308600455E+01  0.28547895506E+02  0.14477972612E+03  0.14788138794E+03  0.00000000000E+00 0. -1.
         -3    1    1    2    0  503  0.17558509241E+03  0.34117799962E+03  0.42506445340E+02  0.38605614876E+03  0.00000000000E+00 0.  1.
<mgrwt>
<rscale>  4 0.41484633E+03</rscale>
<asrwt>0</asrwt>
<pdfrwt beam="1">  1       21 0.10536804E+00 0.41484633E+03</pdfrwt>
<pdfrwt beam="2">  1       -3 0.48800559E-01 0.41484633E+03</pdfrwt>
<totfact> 0.14137578E+02</totfact>
</mgrwt>
</event>
<event>
 5    0  0.3040647E+000  0.3191498E+03  0.7546771E-02  0.1076041E+00
         -1   -1    0    0    0  501 -0.00000000000E+00  0.00000000000E+00  0.62634666331E+03  0.62634666331E+03  0.00000000000E+00 0.  1.
         21   -1    0    0  501  502  0.00000000000E+00 -0.00000000000E+00 -0.22486411218E+03  0.22486411218E+03  0.00000000000E+00 0. -1.
         25    1    1    2    0    0  0.24975143542E+03 -0.15189430885E+03 -0.20017474088E+02  0.31854883428E+03  0.12500000000E+03 0.  0.
         21    1    1    2  503  502 -0.86626186969E+01 -0.24073575142E+02  0.20568947344E+02  0.32827725746E+02  0.00000000000E+00 0.  1.
         -1    1    1    2    0  503 -0.24108881672E+03  0.17596788400E+03  0.40093107787E+03  0.49983421546E+03  0.00000000000E+00 0.  1.
<mgrwt>
<rscale>  4 0.31914976E+03</rscale>
<asrwt>0</asrwt>
<pdfrwt beam="1">  1       21 0.34594479E-01 0.31914976E+03</pdfrwt>
<pdfrwt beam="2">  1       -1 0.96361025E-01 0.31914976E+03</pdfrwt>
<totfact> 0.79159323E+02</totfact>
</mgrwt>
</event>
<event>
 5    0  0.3040647E+000  0.2354945E+03  0.7546771E-02  0.1122831E+00
          2   -1    0    0  502    0 -0.00000000000E+00  0.00000000000E+00  0.73707652874E+03  0.73707652874E+03  0.00000000000E+00 0.  1.
         21   -1    0    0  503  502  0.00000000000E+00 -0.00000000000E+00 -0.11088946318E+03  0.11088946318E+03  0.00000000000E+00 0.  1.
         25    1    1    2    0    0 -0.52556445435E+01  0.20843120077E+03  0.53561530267E+03  0.58820059479E+03  0.12500000000E+03 0.  0.
         21    1    1    2  503  501 -0.43000157552E+02 -0.35853560848E+02  0.52114401449E+02  0.76487922010E+02  0.00000000000E+00 0. -1.
          2    1    1    2  501    0  0.48255802095E+02 -0.17257763992E+03  0.38457361443E+02  0.18327747512E+03  0.00000000000E+00 0.  1.
<mgrwt>
<rscale>  4 0.23549450E+03</rscale>
<asrwt>0</asrwt>
<pdfrwt beam="1">  1       21 0.17059918E-01 0.23549450E+03</pdfrwt>
<pdfrwt beam="2">  1        2 0.11339639E+00 0.23549450E+03</pdfrwt>
<totfact> 0.15258112E+04</totfact>
</mgrwt>
</event>
<event>
 5    0  0.3040647E+000  0.3691452E+03  0.7546771E-02  0.1055020E+00
         21   -1    0    0  503  502  0.00000000000E+00  0.00000000000E+00  0.10021738793E+03  0.10021738793E+03  0.00000000000E+00 0.  1.
          2   -1    0    0  502    0 -0.00000000000E+00 -0.00000000000E+00 -0.19281781804E+04  0.19281781804E+04  0.00000000000E+00 0. -1.
         25    1    1    2    0    0  0.26379753631E+03  0.26915939237E+03 -0.48406958379E+03  0.62608648014E+03  0.12500000000E+03 0.  0.
         21    1    1    2  503  501 -0.42088457744E+02 -0.13530111875E+02 -0.59714392127E+02  0.74298794269E+02  0.00000000000E+00 0.  1.
          2    1    1    2  501    0 -0.22170907857E+03 -0.25562928049E+03 -0.12841768165E+04  0.13280102939E+04  0.00000000000E+00 0. -1.
<mgrwt>
<rscale>  4 0.36914515E+03</rscale>
<asrwt>0</asrwt>
<pdfrwt beam="1">  1       21 0.15418060E-01 0.36914515E+03</pdfrwt>
<pdfrwt beam="2">  1        2 0.29664280E+00 0.36914515E+03</pdfrwt>
<totfact> 0.36574362E+03</totfact>
</mgrwt>
</event>
<event>
 5    0  0.3040647E+000  0.2708953E+03  0.7546771E-02  0.1100768E+00
          2   -1    0    0  502    0 -0.00000000000E+00  0.00000000000E+00  0.67336322155E+03  0.67336322155E+03  0.00000000000E+00 0. -1.
         21   -1    0    0  503  502  0.00000000000E+00 -0.00000000000E+00 -0.10138158420E+03  0.10138158420E+03  0.00000000000E+00 0. -1.
         25    1    1    2    0    0  0.23965812690E+03  0.17979306163E+02  0.27035432994E+03  0.38272148745E+03  0.12500000000E+03 0.  0.
         21    1    1    2  503  501 -0.15489453849E+02  0.15723086245E+02  0.15450766323E+02  0.26941878212E+02  0.00000000000E+00 0. -1.
          2    1    1    2  501    0 -0.22416867305E+03 -0.33702392409E+02  0.28617654108E+03  0.36508144009E+03  0.00000000000E+00 0. -1.
<mgrwt>
<rscale>  4 0.27089532E+03</rscale>
<asrwt>0</asrwt>
<pdfrwt beam="1">  1       21 0.15597167E-01 0.27089532E+03</pdfrwt>
<pdfrwt beam="2">  1        2 0.10359434E+00 0.27089532E+03</pdfrwt>
<totfact> 0.19978326E+04</totfact>
</mgrwt>
</event>
<event>
 5    0  0.3040647E+000  0.3298679E+03  0.7546771E-02  0.1071195E+00
          1   -1    0    0  502    0 -0.00000000000E+00  0.00000000000E+00  0.34909392944E+03  0.34909392944E+03  0.00000000000E+00 0.  1.
         21   -1    0    0  503  502  0.00000000000E+00 -0.00000000000E+00 -0.33353719006E+03  0.33353719006E+03  0.00000000000E+00 0.  1.
         25    1    1    2    0    0  0.38953824661E+02 -0.28691288805E+03  0.47983677609E+02  0.31900444997E+03  0.12500000000E+03 0.  0.
         21    1    1    2  503  501  0.70429178938E+01 -0.35615438643E+02 -0.55692851623E+01  0.36729812134E+02  0.00000000000E+00 0. -1.
          1    1    1    2  501    0 -0.45996742555E+02  0.32252832669E+03 -0.26857653062E+02  0.32689685739E+03  0.00000000000E+00 0.  1.
<mgrwt>
<rscale>  4 0.32986789E+03</rscale>
<asrwt>0</asrwt>
<pdfrwt beam="1">  1       21 0.51313414E-01 0.32986789E+03</pdfrwt>
<pdfrwt beam="2">  1        1 0.53706758E-01 0.32986789E+03</pdfrwt>
<totfact> 0.27447675E+03</totfact>
</mgrwt>
</event>
<event>
 5    0  0.3040647E+000  0.3282885E+03  0.7546771E-02  0.1071897E+00
         21   -1    0    0  503  502  0.00000000000E+00  0.00000000000E+00  0.33838407124E+03  0.33838407124E+03  0.00000000000E+00 0.  1.
          2   -1    0    0  502    0 -0.00000000000E+00 -0.00000000000E+00 -0.38911369329E+03  0.38911369329E+03  0.00000000000E+00 0.  1.
         25    1    1    2    0    0 -0.75923818093E+02  0.29968723257E+03 -0.15481434293E+03  0.36765383759E+03  0.12500000000E+03 0.  0.
         21    1    1    2  503  501 -0.40170916296E+02 -0.27939918514E+02  0.16229920388E+02  0.51553388622E+02  0.00000000000E+00 0. -1.
          2    1    1    2  501    0  0.11609473439E+03 -0.27174731405E+03  0.87854800489E+02  0.30829053832E+03  0.00000000000E+00 0.  1.
<mgrwt>
<rscale>  4 0.32828852E+03</rscale>
<asrwt>0</asrwt>
<pdfrwt beam="1">  1       21 0.52059088E-01 0.32828852E+03</pdfrwt>
<pdfrwt beam="2">  1        2 0.59863645E-01 0.32828852E+03</pdfrwt>
<totfact> 0.34540883E+03</totfact>
</mgrwt>
</event>
<event>
 5    0  0.3040647E+000  0.2390058E+03  0.7546771E-02  0.1120457E+00
         21   -1    0    0  503  502  0.00000000000E+00  0.00000000000E+00  0.35603473610E+03  0.35603473610E+03  0.00000000000E+00 0. -1.
          2   -1    0    0  502    0 -0.00000000000E+00 -0.00000000000E+00 -0.26091037417E+03  0.26091037417E+03  0.00000000000E+00 0. -1.
         25    1    1    2    0    0  0.27324117553E+02 -0.20552204995E+03  0.10005863646E+03  0.26195925474E+03  0.12500000000E+03 0.  0.
         21    1    1    2  503  501  0.19892252462E+02  0.82681688542E+01  0.11657435617E+03  0.11854806975E+03  0.00000000000E+00 0. -1.
          2    1    1    2  501    0 -0.47216370014E+02  0.19725388110E+03 -0.12150863070E+03  0.23643778577E+03  0.00000000000E+00 0. -1.
<mgrwt>
<rscale>  4 0.23900581E+03</rscale>
<asrwt>0</asrwt>
<pdfrwt beam="1">  1       21 0.54774574E-01 0.23900581E+03</pdfrwt>
<pdfrwt beam="2">  1        2 0.40140058E-01 0.23900581E+03</pdfrwt>
<totfact> 0.48897815E+03</totfact>
</mgrwt>
</event>
<event>
 5    0  0.3040647E+000  0.2983821E+03  0.7546771E-02  0.1086052E+00
         21   -1    0    0  503  502  0.00000000000E+00  0.00000000000E+00  0.40820751738E+03  0.40820751738E+03  0.00000000000E+00 0.  1.
          2   -1    0    0  502    0 -0.00000000000E+00 -0.00000000000E+00 -0.21195156043E+04  0.21195156043E+04  0.00000000000E+00 0.  1.
         25    1    1    2    0    0  0.49542614652E+02  0.20495525616E+03 -0.12792069253E+04  0.13024808964E+04  0.12500000000E+03 0.  0.
         21    1    1    2  503  501 -0.71763087423E+02 -0.26353999643E+03  0.34813494599E+03  0.44249430624E+03  0.00000000000E+00 0.  1.
          2    1    1    2  501    0  0.22220472771E+02  0.58584740269E+02 -0.78023610757E+03  0.78274791904E+03  0.00000000000E+00 0.  1.
<mgrwt>
<rscale>  4 0.29838212E+03</rscale>
<asrwt>0</asrwt>
<pdfrwt beam="1">  1       21 0.62801157E-01 0.29838212E+03</pdfrwt>
<pdfrwt beam="2">  1        2 0.32607932E+00 0.29838212E+03</pdfrwt>
<totfact> 0.18117230E+02</totfact>
</mgrwt>
</event>
<event>
 5    0  0.3040647E+000  0.2244215E+03  0.7546771E-02  0.1130629E+00
         21   -1    0    0  503  502  0.00000000000E+00  0.00000000000E+00  0.16872307288E+03  0.16872307288E+03  0.00000000000E+00 0. -1.
          2   -1    0    0  502    0 -0.00000000000E+00 -0.00000000000E+00 -0.17974108749E+04  0.17974108749E+04  0.00000000000E+00 0. -1.
         25    1    1    2    0    0  0.12205185390E+03  0.16079655530E+03  0.17352599797E+01  0.23744514812E+03  0.12500000000E+03 0.  0.
         21    1    1    2  503  501  0.16583944132E+02 -0.36989156406E+02  0.34616992137E+02  0.53306294556E+02  0.00000000000E+00 0. -1.
          2    1    1    2  501    0 -0.13863579803E+03 -0.12380739889E+03 -0.16650400541E+04  0.16753825051E+04  0.00000000000E+00 0. -1.
<mgrwt>
<rscale>  4 0.22442152E+03</rscale>
<asrwt>0</asrwt>
<pdfrwt beam="1">  1       21 0.25957395E-01 0.22442152E+03</pdfrwt>
<pdfrwt beam="2">  1        2 0.27652475E+00 0.22442152E+03</pdfrwt>
<totfact> 0.16979662E+03</totfact>
</mgrwt>
</event>
<event>
 5    0  0.3040647E+000  0.2546206E+03  0.7546771E-02  0.1110419E+00
         21   -1    0    0  503  502  0.00000000000E+00  0.00000000000E+00  0.71714763735E+02  0.71714763735E+02  0.00000000000E+00 0. -1.
          1   -1    0    0  502    0 -0.00000000000E+00 -0.00000000000E+00 -0.88898721924E+03  0.88898721924E+03  0.00000000000E+00 0. -1.
         25    1    1    2    0    0  0.15113174347E+03  0.14304412663E+03 -0.32184695834E+03  0.40312887597E+03  0.12500000000E+03 0.  0.
         21    1    1    2  503  501  0.12080768150E+02  0.20564735237E+02 -0.34268175468E+02  0.41751181353E+02  0.00000000000E+00 0. -1.
          1    1    1    2  501    0 -0.16321251162E+03 -0.16360886186E+03 -0.46115732169E+03  0.51582192565E+03  0.00000000000E+00 0. -1.
<mgrwt>
<rscale>  4 0.25462063E+03</rscale>
<asrwt>0</asrwt>
<pdfrwt beam="1">  1       21 0.11033041E-01 0.25462063E+03</pdfrwt>
<pdfrwt beam="2">  1        1 0.13676726E+00 0.25462063E+03</pdfrwt>
<totfact> 0.14684871E+04</totfact>
</mgrwt>
</event>
<event>
 5    0  0.3040647E+000  0.2424195E+03  0.7546771E-02  0.1118191E+00
          4   -1    0    0  502    0 -0.00000000000E+00  0.00000000000E+00  0.21108398195E+04  0.21108398195E+04  0.00000000000E+00 0. -1.
         21   -1    0    0  503  502  0.00000000000E+00 -0.00000000000E+00 -0.19709723682E+03  0.19709723682E+03  0.00000000000E+00 0.  1.
         25    1    1    2    0    0 -0.24813268687E+03  0.10136387570E+02  0.30246129445E+02  0.27966480829E+03  0.12500000000E+03 0.  0.
         21    1    1    2  503  501  0.58067239197E+02 -0.91950133287E+02 -0.22518927092E+02  0.11105734265E+03  0.00000000000E+00 0. -1.
          4    1    1    2  501    0  0.19006544768E+03  0.81813745717E+02  0.19060153803E+04  0.19172149054E+04  0.00000000000E+00 0. -1.
<mgrwt>
<rscale>  4 0.24241947E+03</rscale>
<asrwt>0</asrwt>
<pdfrwt beam="1">  1       21 0.30322653E-01 0.24241947E+03</pdfrwt>
<pdfrwt beam="2">  1        4 0.32474457E+00 0.24241947E+03</pdfrwt>
<totfact> 0.11262888E+01</totfact>
</mgrwt>
</event>
<event>
 5    0  0.3040647E+000  0.1916200E+03  0.7546771E-02  0.1157008E+00
         21   -1    0    0  503  502  0.00000000000E+00  0.00000000000E+00  0.59271014376E+02  0.59271014376E+02  0.00000000000E+00 0. -1.
          2   -1    0    0  502    0 -0.00000000000E+00 -0.00000000000E+00 -0.12959323668E+04  0.12959323668E+04  0.00000000000E+00 0. -1.
         25    1    1    2    0    0 -0.19574984892E+03 -0.93056263617E+02 -0.52142193206E+03  0.57834531448E+03  0.12500000000E+03 0.  0.
         21    1    1    2  503  501  0.67682058750E+02  0.70107671092E+02 -0.73489037444E+02  0.12205156798E+03  0.00000000000E+00 0. -1.
          2    1    1    2  501    0  0.12806779017E+03  0.22948592525E+02 -0.64175038292E+03  0.65480649871E+03  0.00000000000E+00 0. -1.
<mgrwt>
<rscale>  4 0.19161999E+03</rscale>
<asrwt>0</asrwt>
<pdfrwt beam="1">  1       21 0.91186174E-02 0.19161999E+03</pdfrwt>
<pdfrwt beam="2">  1        2 0.19937421E+00 0.19161999E+03</pdfrwt>
<totfact> 0.21573162E+04</totfact>
</mgrwt>
</event>
<event>
 5    0  0.3040647E+000  0.2751189E+03  0.7546771E-02  0.1098385E+00
          2   -1    0    0  502    0 -0.00000000000E+00  0.00000000000E+00  0.70473978360E+03  0.70473978360E+03  0.00000000000E+00 0. -1.
         21   -1    0    0  503  502  0.00000000000E+00 -0.00000000000E+00 -0.35899892890E+03  0.35899892890E+03  0.00000000000E+00 0. -1.
         25    1    1    2    0    0 -0.19097542340E+03  0.73346853471E+02 -0.24439355605E+03  0.34235154957E+03  0.12500000000E+03 0.  0.
         21    1    1    2  503  501 -0.49386638163E+02 -0.10249397279E+02 -0.26201410396E+02  0.56838403218E+02  0.00000000000E+00 0. -1.
          2    1    1    2  501    0  0.24036206156E+03 -0.63097456192E+02  0.61633582113E+03  0.66454875971E+03  0.00000000000E+00 0. -1.
<mgrwt>
<rscale>  4 0.27511886E+03</rscale>
<asrwt>0</asrwt>
<pdfrwt beam="1">  1       21 0.55230604E-01 0.27511886E+03</pdfrwt>
<pdfrwt beam="2">  1        2 0.10842151E+00 0.27511886E+03</pdfrwt>
<totfact> 0.15654893E+03</totfact>
</mgrwt>
</event>
<event>
 5    0  0.3040647E+000  0.2713702E+03  0.7546771E-02  0.1100498E+00
          3   -1    0    0  502    0 -0.00000000000E+00  0.00000000000E+00  0.21092717501E+03  0.21092717501E+03  0.00000000000E+00 0. -1.
         21   -1    0    0  503  502  0.00000000000E+00 -0.00000000000E+00 -0.47973290463E+03  0.47973290463E+03  0.00000000000E+00 0. -1.
         25    1    1    2    0    0 -0.22630791267E+03 -0.10856545166E+03 -0.19628196323E+03  0.34227669760E+03  0.12500000000E+03 0.  0.
         21    1    1    2  503  501  0.17878495365E+03  0.15257224598E+03 -0.12391615757E+03  0.26570202107E+03  0.00000000000E+00 0. -1.
          3    1    1    2  501    0  0.47522959011E+02 -0.44006794322E+02  0.51392391186E+02  0.82681360968E+02  0.00000000000E+00 0. -1.
<mgrwt>
<rscale>  4 0.27137016E+03</rscale>
<asrwt>0</asrwt>
<pdfrwt beam="1">  1       21 0.73805062E-01 0.27137016E+03</pdfrwt>
<pdfrwt beam="2">  1        3 0.32450335E-01 0.27137016E+03</pdfrwt>
<totfact> 0.74383277E+02</totfact>
</mgrwt>
</event>
<event>
 5    0  0.3040647E+000  0.2325448E+03  0.7546771E-02  0.1124861E+00
         21   -1    0    0  503  502  0.00000000000E+00  0.00000000000E+00  0.42355828348E+03  0.42355828348E+03  0.00000000000E+00 0. -1.
          3   -1    0    0  502    0 -0.00000000000E+00 -0.00000000000E+00 -0.45147439807E+03  0.45147439807E+03  0.00000000000E+00 0.  1.
         25    1    1    2    0    0  0.13965737049E+03  0.16047667903E+03  0.33625742206E+03  0.41707433335E+03  0.12500000000E+03 0.  0.
         21    1    1    2  503  501 -0.19796095033E+02 -0.65677766624E+01  0.18853929471E+02  0.28115684686E+02  0.00000000000E+00 0.  1.
          3    1    1    2  501    0 -0.11986127546E+03 -0.15390890237E+03 -0.38302746611E+03  0.42984266352E+03  0.00000000000E+00 0.  1.
<mgrwt>
<rscale>  4 0.23254484E+03</rscale>
<asrwt>0</asrwt>
<pdfrwt beam="1">  1       21 0.65162813E-01 0.23254484E+03</pdfrwt>
<pdfrwt beam="2">  1        3 0.69457600E-01 0.23254484E+03</pdfrwt>
<totfact> 0.21443571E+02</totfact>
</mgrwt>
</event>
<event>
 5    0  0.3040647E+000  0.2686834E+03  0.7546771E-02  0.1102035E+00
         21   -1    0    0  503  502  0.00000000000E+00  0.00000000000E+00  0.53555928277E+03  0.53555928277E+03  0.00000000000E+00 0.  1.
          2   -1    0    0  502    0 -0.00000000000E+00 -0.00000000000E+00 -0.18781419851E+04  0.18781419851E+04  0.00000000000E+00 0.  1.
         25    1    1    2    0    0  0.29745265902E+03 -0.23355602536E+02  0.44648631326E+03  0.55136067729E+03  0.12500000000E+03 0.  0.
         21    1    1    2  503  501 -0.65295478732E+02 -0.23889361706E+02 -0.13240190160E+02  0.70777848095E+02  0.00000000000E+00 0.  1.
          2    1    1    2  501    0 -0.23215718029E+03  0.47244964241E+02 -0.17758288254E+04  0.17915627424E+04  0.00000000000E+00 0.  1.
<mgrwt>
<rscale>  4 0.26868344E+03</rscale>
<asrwt>0</asrwt>
<pdfrwt beam="1">  1       21 0.82393736E-01 0.26868344E+03</pdfrwt>
<pdfrwt beam="2">  1        2 0.28894492E+00 0.26868344E+03</pdfrwt>
<totfact> 0.13478951E+02</totfact>
</mgrwt>
</event>
<event>
 5    0  0.3040647E+000  0.3188635E+03  0.7546771E-02  0.1076174E+00
          2   -1    0    0  502    0 -0.00000000000E+00  0.00000000000E+00  0.41263911512E+03  0.41263911512E+03  0.00000000000E+00 0. -1.
         21   -1    0    0  503  502  0.00000000000E+00 -0.00000000000E+00 -0.32423586090E+03  0.32423586090E+03  0.00000000000E+00 0. -1.
         25    1    1    2    0    0  0.14515091698E+03 -0.25980257942E+03 -0.99235424062E+02  0.33769637007E+03  0.12500000000E+03 0.  0.
         21    1    1    2  503  501 -0.23023334122E+02 -0.55743252598E+01 -0.27560291907E+02  0.36341666256E+02  0.00000000000E+00 0.  1.
          2    1    1    2  501    0 -0.12212758285E+03  0.26537690468E+03  0.21519897019E+03  0.36283693969E+03  0.00000000000E+00 0. -1.
<mgrwt>
<rscale>  4 0.31886345E+03</rscale>
<asrwt>0</asrwt>
<pdfrwt beam="1">  1       21 0.49882440E-01 0.31886345E+03</pdfrwt>
<pdfrwt beam="2">  1        2 0.63482941E-01 0.31886345E+03</pdfrwt>
<totfact> 0.35521737E+03</totfact>
</mgrwt>
</event>
<event>
 5    0  0.3040647E+000  0.3041168E+03  0.7546771E-02  0.1083650E+00
         21   -1    0    0  503  502  0.00000000000E+00  0.00000000000E+00  0.43208741593E+02  0.43208741593E+02  0.00000000000E+00 0.  1.
          2   -1    0    0  502    0 -0.00000000000E+00 -0.00000000000E+00 -0.23221575543E+04  0.23221575543E+04  0.00000000000E+00 0.  1.
         25    1    1    2    0    0 -0.26790054024E+03  0.53803335236E+02 -0.14864953063E+04  0.15165615036E+04  0.12500000000E+03 0.  0.
         21    1    1    2  503  501  0.13793067364E+03 -0.63978556571E+02 -0.26540744948E+03  0.30587455055E+03  0.00000000000E+00 0.  1.
          2    1    1    2  501    0  0.12996986660E+03  0.10175221335E+02 -0.52704605684E+03  0.54293024173E+03  0.00000000000E+00 0.  1.
<mgrwt>
<rscale>  4 0.30320447E+03</rscale>
<asrwt>0</asrwt>
<pdfrwt beam="1">  1       21 0.66474970E-02 0.30411678E+03</pdfrwt>
<pdfrwt beam="2">  1        2 0.35725510E+00 0.30411678E+03</pdfrwt>
<totfact> 0.10362075E+04</totfact>
</mgrwt>
</event>
<event>
 5    0  0.3040647E+000  0.3132779E+03  0.7546771E-02  0.1078785E+00
         21   -1    0    0  503  502  0.00000000000E+00  0.00000000000E+00  0.36484493220E+03  0.36484493220E+03  0.00000000000E+00 0.  1.
          1   -1    0    0  502    0 -0.00000000000E+00 -0.00000000000E+00 -0.34367331793E+03  0.34367331793E+03  0.00000000000E+00 0.  1.
         25    1    1    2    0    0  0.17512000280E+02 -0.29424366705E+03 -0.15484068966E+03  0.35564960977E+03  0.12500000000E+03 0.  0.
         21    1    1    2  503  501 -0.19397809789E+01  0.23481190590E+02  0.46918541839E+02  0.52502177384E+02  0.00000000000E+00 0. -1.
          1    1    1    2  501    0 -0.15572219301E+02  0.27076247646E+03  0.12909376209E+03  0.30036646298E+03  0.00000000000E+00 0.  1.
<mgrwt>
<rscale>  4 0.31327793E+03</rscale>
<asrwt>0</asrwt>
<pdfrwt beam="1">  1       21 0.56129990E-01 0.31327793E+03</pdfrwt>
<pdfrwt beam="2">  1        1 0.52872818E-01 0.31327793E+03</pdfrwt>
<totfact> 0.23216178E+03</totfact>
</mgrwt>
</event>
<event>
 5    0  0.3040647E+000  0.2524065E+03  0.7546771E-02  0.1111793E+00
         21   -1    0    0  503  502  0.00000000000E+00  0.00000000000E+00  0.37573592709E+03  0.37573592709E+03  0.00000000000E+00 0.  1.
          3   -1    0    0  502    0 -0.00000000000E+00 -0.00000000000E+00 -0.51013133150E+03  0.51013133150E+03  0.00000000000E+00 0. -1.
         25    1    1    2    0    0 -0.17830403924E+03  0.16718214302E+03 -0.56942266464E+02  0.28037407345E+03  0.12500000000E+03 0.  0.
         21    1    1    2  503  501  0.98301245160E+02  0.34276980408E+02  0.21651826226E+03  0.24024613229E+03  0.00000000000E+00 0.  1.
          3    1    1    2  501    0  0.80002794077E+02 -0.20145912343E+03 -0.29397140021E+03  0.36524705285E+03  0.00000000000E+00 0. -1.
<mgrwt>
<rscale>  4 0.25240647E+03</rscale>
<asrwt>0</asrwt>
<pdfrwt beam="1">  1       21 0.57805527E-01 0.25240647E+03</pdfrwt>
<pdfrwt beam="2">  1        3 0.78481743E-01 0.25240647E+03</pdfrwt>
<totfact> 0.21246019E+02</totfact>
</mgrwt>
</event>
<event>
 5    0  0.3040647E+000  0.3182618E+03  0.7546771E-02  0.1076452E+00
         21   -1    0    0  501  502  0.00000000000E+00  0.00000000000E+00  0.29527468034E+03  0.29527468034E+03  0.00000000000E+00 0. -1.
         -2   -1    0    0    0  501 -0.00000000000E+00 -0.00000000000E+00 -0.71712907252E+03  0.71712907252E+03  0.00000000000E+00 0. -1.
         25    1    1    2    0    0  0.24061304015E+02 -0.26910182444E+03  0.86065103918E+02  0.30988213950E+03  0.12500000000E+03 0.  0.
         21    1    1    2  503  502 -0.62789332741E+02 -0.26429652110E+02  0.39840401965E+02  0.78919480773E+02  0.00000000000E+00 0.  1.
         -2    1    1    2    0  503  0.38728028726E+02  0.29553147655E+03 -0.54775989806E+03  0.62360213259E+03  0.00000000000E+00 0. -1.
<mgrwt>
<rscale>  4 0.31826183E+03</rscale>
<asrwt>0</asrwt>
<pdfrwt beam="1">  1       21 0.45426874E-01 0.31826183E+03</pdfrwt>
<pdfrwt beam="2">  1       -2 0.11032755E+00 0.31826183E+03</pdfrwt>
<totfact> 0.24798718E+02</totfact>
</mgrwt>
</event>
<event>
 5    0  0.3040647E+000  0.3637523E+03  0.7546771E-02  0.1057108E+00
         21   -1    0    0  503  502  0.00000000000E+00  0.00000000000E+00  0.14274511818E+04  0.14274511818E+04  0.00000000000E+00 0.  1.
          2   -1    0    0  502    0 -0.00000000000E+00 -0.00000000000E+00 -0.23130867477E+04  0.23130867477E+04  0.00000000000E+00 0.  1.
         25    1    1    2    0    0  0.34089878661E+03 -0.16273184451E+03 -0.77737993458E+03  0.87329158854E+03  0.12500000000E+03 0.  0.
         21    1    1    2  503  501 -0.45854080374E+02  0.19500357572E+02  0.13609585031E+04  0.13618703712E+04  0.00000000000E+00 0.  1.
          2    1    1    2  501    0 -0.29504470623E+03  0.14323148694E+03 -0.14692141344E+04  0.15053759698E+04  0.00000000000E+00 0.  1.
<mgrwt>
<rscale>  4 0.36375234E+03</rscale>
<asrwt>0</asrwt>
<pdfrwt beam="1">  1       21 0.21960788E+00 0.36375234E+03</pdfrwt>
<pdfrwt beam="2">  1        2 0.35585950E+00 0.36375234E+03</pdfrwt>
<totfact> 0.55305929E+00</totfact>
</mgrwt>
</event>
<event>
 5    0  0.3040647E+000  0.2703341E+03  0.7546771E-02  0.1101089E+00
         21   -1    0    0  503  502  0.00000000000E+00  0.00000000000E+00  0.25071443599E+03  0.25071443599E+03  0.00000000000E+00 0. -1.
          4   -1    0    0  502    0 -0.00000000000E+00 -0.00000000000E+00 -0.51602221499E+03  0.51602221499E+03  0.00000000000E+00 0.  1.
         25    1    1    2    0    0  0.74892991363E+01 -0.22205681706E+03  0.72664671748E+02  0.26508578635E+03  0.12500000000E+03 0.  0.
         21    1    1    2  503  501  0.27288496562E+02 -0.19104607315E+02  0.39934737433E+02  0.52004147134E+02  0.00000000000E+00 0. -1.
          4    1    1    2  501    0 -0.34777795698E+02  0.24116142437E+03 -0.37790718818E+03  0.44964671750E+03  0.00000000000E+00 0.  1.
<mgrwt>
<rscale>  4 0.27033411E+03</rscale>
<asrwt>0</asrwt>
<pdfrwt beam="1">  1       21 0.38571452E-01 0.27033411E+03</pdfrwt>
<pdfrwt beam="2">  1        4 0.79388032E-01 0.27033411E+03</pdfrwt>
<totfact> 0.39132304E+02</totfact>
</mgrwt>
</event>
<event>
 5    0  0.3040647E+000  0.3411338E+03  0.7546771E-02  0.1066314E+00
         21   -1    0    0  503  502  0.00000000000E+00  0.00000000000E+00  0.14133327106E+03  0.14133327106E+03  0.00000000000E+00 0. -1.
          1   -1    0    0  502    0 -0.00000000000E+00 -0.00000000000E+00 -0.11590115078E+04  0.11590115078E+04  0.00000000000E+00 0. -1.
         25    1    1    2    0    0  0.22746057861E+03 -0.19055295703E+03 -0.16763846370E+03  0.36301019099E+03  0.12500000000E+03 0.  0.
         21    1    1    2  503  501  0.12866384178E+02 -0.26408158076E+02 -0.18319875014E+01  0.29432818978E+02  0.00000000000E+00 0.  1.
          1    1    1    2  501    0 -0.24032696278E+03  0.21696111511E+03 -0.84820778549E+03  0.90790176885E+03  0.00000000000E+00 0. -1.
<mgrwt>
<rscale>  4 0.34113384E+03</rscale>
<asrwt>0</asrwt>
<pdfrwt beam="1">  1       21 0.21743580E-01 0.34113384E+03</pdfrwt>
<pdfrwt beam="2">  1        1 0.17830946E+00 0.34113384E+03</pdfrwt>
<totfact> 0.25831208E+03</totfact>
</mgrwt>
</event>
<event>
 5    0  0.3040647E+000  0.2184573E+03  0.7546771E-02  0.1135038E+00
         21   -1    0    0  501  502  0.00000000000E+00  0.00000000000E+00  0.84696334201E+03  0.84696334201E+03  0.00000000000E+00 0.  1.
         -1   -1    0    0    0  501 -0.00000000000E+00 -0.00000000000E+00 -0.31846623198E+03  0.31846623198E+03  0.00000000000E+00 0. -1.
         25    1    1    2    0    0 -0.13191590225E+03 -0.18228956542E+03  0.65777701798E+01  0.25748700547E+03  0.12500000000E+03 0.  0.
         21    1    1    2  503  502  0.10864421052E+03  0.13748778521E+03  0.70064380980E+03  0.72222448295E+03  0.00000000000E+00 0.  1.
         -1    1    1    2    0  503  0.23271691726E+02  0.44801780213E+02 -0.17872446995E+03  0.18571808557E+03  0.00000000000E+00 0. -1.
<mgrwt>
<rscale>  4 0.21845730E+03</rscale>
<asrwt>0</asrwt>
<pdfrwt beam="1">  1       21 0.13030205E+00 0.21845730E+03</pdfrwt>
<pdfrwt beam="2">  1       -1 0.48994805E-01 0.21845730E+03</pdfrwt>
<totfact> 0.16662054E+02</totfact>
</mgrwt>
</event>
<event>
 5    0  0.3040647E+000  0.2986041E+03  0.7546771E-02  0.1085941E+00
          2   -1    0    0  502    0 -0.00000000000E+00  0.00000000000E+00  0.35690180986E+04  0.35690180986E+04  0.00000000000E+00 0.  1.
         21   -1    0    0  503  502  0.00000000000E+00 -0.00000000000E+00 -0.41877045711E+02  0.41877045711E+02  0.00000000000E+00 0. -1.
         25    1    1    2    0    0 -0.19466965244E+03 -0.18640908200E+03  0.80143371210E+03  0.85473131118E+03  0.12500000000E+03 0.  0.
         21    1    1    2  503  501 -0.20936174567E+02  0.20702914676E+02  0.17320901122E+02  0.34160616172E+02  0.00000000000E+00 0. -1.
          2    1    1    2  501    0  0.21560582701E+03  0.16570616732E+03  0.27083864397E+04  0.27220032170E+04  0.00000000000E+00 0.  1.
<mgrwt>
<rscale>  4 0.29860407E+03</rscale>
<asrwt>0</asrwt>
<pdfrwt beam="1">  1       21 0.64426252E-02 0.29860407E+03</pdfrwt>
<pdfrwt beam="2">  1        2 0.54907947E+00 0.29860407E+03</pdfrwt>
<totfact> 0.19854722E+03</totfact>
</mgrwt>
</event>
<event>
 5    0  0.3040647E+000  0.2327403E+03  0.7546771E-02  0.1124726E+00
         -1   -1    0    0    0  501 -0.00000000000E+00  0.00000000000E+00  0.13372835954E+03  0.13372835954E+03  0.00000000000E+00 0.  1.
         21   -1    0    0  501  502  0.00000000000E+00 -0.00000000000E+00 -0.15308809957E+04  0.15308809957E+04  0.00000000000E+00 0.  1.
         25    1    1    2    0    0 -0.19605808714E+03 -0.51789525574E+02 -0.84318447775E+01  0.23836321969E+03  0.12500000000E+03 0.  0.
         21    1    1    2  503  502  0.28017290964E+02  0.36107495113E+01 -0.99571212994E+03  0.99611277063E+03  0.00000000000E+00 0.  1.
         -1    1    1    2    0  503  0.16804079618E+03  0.48178776063E+02 -0.39300866144E+03  0.43013336491E+03  0.00000000000E+00 0.  1.
<mgrwt>
<rscale>  4 0.23274030E+03</rscale>
<asrwt>0</asrwt>
<pdfrwt beam="1">  1       21 0.23552014E+00 0.23274030E+03</pdfrwt>
<pdfrwt beam="2">  1       -1 0.20573595E-01 0.23274030E+03</pdfrwt>
<totfact> 0.13680473E+02</totfact>
</mgrwt>
</event>
<event>
 5    0  0.3040647E+000  0.3579172E+03  0.7546771E-02  0.1059412E+00
         21   -1    0    0  503  502  0.00000000000E+00  0.00000000000E+00  0.18018807918E+03  0.18018807918E+03  0.00000000000E+00 0.  1.
          1   -1    0    0  502    0 -0.00000000000E+00 -0.00000000000E+00 -0.19842954328E+04  0.19842954328E+04  0.00000000000E+00 0.  1.
         25    1    1    2    0    0 -0.26717915971E+03 -0.18417036147E+03 -0.12119452703E+04  0.12608488267E+04  0.12500000000E+03 0.  0.
         21    1    1    2  503  501  0.53519669462E+01 -0.58133005610E+02  0.10520548377E+03  0.12031742894E+03  0.00000000000E+00 0.  1.
          1    1    1    2  501    0  0.26182719276E+03  0.24230336708E+03 -0.69736756707E+03  0.78331725640E+03  0.00000000000E+00 0.  1.
<mgrwt>
<rscale>  4 0.35791716E+03</rscale>
<asrwt>0</asrwt>
<pdfrwt beam="1">  1       21 0.27721244E-01 0.35791716E+03</pdfrwt>
<pdfrwt beam="2">  1        1 0.30527621E+00 0.35791716E+03</pdfrwt>
<totfact> 0.44873078E+02</totfact>
</mgrwt>
</event>
<event>
 5    0  0.3040647E+000  0.2737854E+03  0.7546771E-02  0.1099132E+00
          2   -1    0    0  502    0 -0.00000000000E+00  0.00000000000E+00  0.21247363309E+04  0.21247363309E+04  0.00000000000E+00 0.  1.
         21   -1    0    0  503  502  0.00000000000E+00 -0.00000000000E+00 -0.12814574291E+04  0.12814574291E+04  0.00000000000E+00 0.  1.
         25    1    1    2    0    0  0.84555268973E+02  0.27481745039E+03 -0.11961352065E+04  0.12365430266E+04  0.12500000000E+03 0.  0.
         21    1    1    2  503  501  0.19891042964E+01 -0.47395103234E+02 -0.48361376675E+02  0.67742712526E+02  0.00000000000E+00 0.  1.
          2    1    1    2  501    0 -0.86544373270E+02 -0.22742234716E+03  0.20877754849E+04  0.21019080208E+04  0.00000000000E+00 0.  1.
<mgrwt>
<rscale>  4 0.27378541E+03</rscale>
<asrwt>0</asrwt>
<pdfrwt beam="1">  1       21 0.19714730E+00 0.27378541E+03</pdfrwt>
<pdfrwt beam="2">  1        2 0.32688251E+00 0.27378541E+03</pdfrwt>
<totfact> 0.10545337E+01</totfact>
</mgrwt>
</event>
<event>
 5    0  0.3040647E+000  0.3904230E+03  0.7546771E-02  0.1047147E+00
         21   -1    0    0  503  502  0.00000000000E+00  0.00000000000E+00  0.20578953638E+04  0.20578953638E+04  0.00000000000E+00 0.  1.
          2   -1    0    0  502    0 -0.00000000000E+00 -0.00000000000E+00 -0.18730053025E+04  0.18730053025E+04  0.00000000000E+00 0.  1.
         25    1    1    2    0    0 -0.28402249026E+03  0.12315246040E+03  0.18349638355E+04  0.18650878213E+04  0.12500000000E+03 0.  0.
         21    1    1    2  503  501 -0.73711097987E+02 -0.26696982895E+02  0.18120076393E+03  0.19743295497E+03  0.00000000000E+00 0.  1.
          2    1    1    2  501    0  0.35773358824E+03 -0.96455477504E+02 -0.18312745381E+04  0.18683798900E+04  0.00000000000E+00 0.  1.
<mgrwt>
<rscale>  4 0.39042297E+03</rscale>
<asrwt>0</asrwt>
<pdfrwt beam="1">  1       21 0.31659929E+00 0.39042297E+03</pdfrwt>
<pdfrwt beam="2">  1        2 0.28815466E+00 0.39042297E+03</pdfrwt>
<totfact> 0.24064711E+00</totfact>
</mgrwt>
</event>
<event>
 5    0  0.3040647E+000  0.2173713E+03  0.7546771E-02  0.1135858E+00
         21   -1    0    0  503  502  0.00000000000E+00  0.00000000000E+00  0.88681965664E+02  0.88681965664E+02  0.00000000000E+00 0.  1.
          2   -1    0    0  502    0 -0.00000000000E+00 -0.00000000000E+00 -0.23737242001E+04  0.23737242001E+04  0.00000000000E+00 0. -1.
         25    1    1    2    0    0  0.89544652773E+02 -0.18716284987E+03 -0.16054602676E+03  0.29059973145E+03  0.12500000000E+03 0.  0.
         21    1    1    2  503  501 -0.30602982959E+02  0.21077554484E+02  0.27609677998E+01  0.37261626537E+02  0.00000000000E+00 0.  1.
          2    1    1    2  501    0 -0.58941669814E+02  0.16608529538E+03 -0.21272571755E+04  0.21345448078E+04  0.00000000000E+00 0. -1.
<mgrwt>
<rscale>  4 0.21737126E+03</rscale>
<asrwt>0</asrwt>
<pdfrwt beam="1">  1       21 0.13643379E-01 0.21737126E+03</pdfrwt>
<pdfrwt beam="2">  1        2 0.36518834E+00 0.21737126E+03</pdfrwt>
<totfact> 0.28150041E+03</totfact>
</mgrwt>
</event>
<event>
 5    0  0.3040647E+000  0.4220145E+03  0.7546771E-02  0.1036413E+00
          2   -1    0    0  502    0 -0.00000000000E+00  0.00000000000E+00  0.11100475188E+04  0.11100475188E+04  0.00000000000E+00 0. -1.
         21   -1    0    0  503  502  0.00000000000E+00 -0.00000000000E+00 -0.29459633483E+03  0.29459633483E+03  0.00000000000E+00 0.  1.
         25    1    1    2    0    0 -0.15204764541E+03  0.37479637535E+03 -0.57493199404E+02  0.42722508988E+03  0.12500000000E+03 0.  0.
         21    1    1    2  503  501  0.33393778434E+02  0.46127616486E+01  0.28737390907E+02  0.44297399972E+02  0.00000000000E+00 0. -1.
          2    1    1    2  501    0  0.11865386697E+03 -0.37940913700E+03  0.84420699244E+03  0.93312136374E+03  0.00000000000E+00 0. -1.
<mgrwt>
<rscale>  4 0.42201449E+03</rscale>
<asrwt>0</asrwt>
<pdfrwt beam="1">  1       21 0.45322514E-01 0.42201449E+03</pdfrwt>
<pdfrwt beam="2">  1        2 0.17077654E+00 0.42201449E+03</pdfrwt>
<totfact> 0.12283809E+03</totfact>
</mgrwt>
</event>
<event>
 5    0  0.3040647E+000  0.2568348E+03  0.7546771E-02  0.1109060E+00
          2   -1    0    0  502    0 -0.00000000000E+00  0.00000000000E+00  0.13849404718E+04  0.13849404718E+04  0.00000000000E+00 0.  1.
         21   -1    0    0  503  502  0.00000000000E+00 -0.00000000000E+00 -0.58916849082E+03  0.58916849082E+03  0.00000000000E+00 0.  1.
         25    1    1    2    0    0  0.28788775228E+03 -0.95195090209E+02 -0.21251624114E+02  0.32866106347E+03  0.12500000000E+03 0.  0.
         21    1    1    2  503  501 -0.88902260250E+02  0.12845915617E+01 -0.39945479027E+03  0.40923024268E+03  0.00000000000E+00 0.  1.
          2    1    1    2  501    0 -0.19898549203E+03  0.93910498647E+02  0.12164783953E+04  0.12362176564E+04  0.00000000000E+00 0.  1.
<mgrwt>
<rscale>  4 0.25683485E+03</rscale>
<asrwt>0</asrwt>
<pdfrwt beam="1">  1       21 0.90641307E-01 0.25683485E+03</pdfrwt>
<pdfrwt beam="2">  1        2 0.21306776E+00 0.25683485E+03</pdfrwt>
<totfact> 0.19907062E+02</totfact>
</mgrwt>
</event>
<event>
 5    0  0.3040647E+000  0.4033112E+03  0.7546771E-02  0.1042639E+00
         21   -1    0    0  503  502  0.00000000000E+00  0.00000000000E+00  0.33904535305E+03  0.33904535305E+03  0.00000000000E+00 0.  1.
          2   -1    0    0  502    0 -0.00000000000E+00 -0.00000000000E+00 -0.10130963677E+04  0.10130963677E+04  0.00000000000E+00 0.  1.
         25    1    1    2    0    0 -0.40652882733E+03  0.12031155490E+03 -0.15604113268E+03  0.46873701879E+03  0.12500000000E+03 0.  0.
         21    1    1    2  503  501  0.34964230851E+03 -0.86954782197E+02  0.92758710131E+00  0.36029396118E+03  0.00000000000E+00 0.  1.
          2    1    1    2  501    0  0.56886518824E+02 -0.33356772704E+02 -0.51893746912E+03  0.52311074083E+03  0.00000000000E+00 0.  1.
<mgrwt>
<rscale>  4 0.40331116E+03</rscale>
<asrwt>0</asrwt>
<pdfrwt beam="1">  1       21 0.52160825E-01 0.40331116E+03</pdfrwt>
<pdfrwt beam="2">  1        2 0.15586098E+00 0.40331116E+03</pdfrwt>
<totfact> 0.10506609E+03</totfact>
</mgrwt>
</event>
<event>
 5    0  0.3040647E+000  0.2623420E+03  0.7546771E-02  0.1105744E+00
          2   -1    0    0  502    0 -0.00000000000E+00  0.00000000000E+00  0.33516533896E+04  0.33516533896E+04  0.00000000000E+00 0. -1.
         21   -1    0    0  503  502  0.00000000000E+00 -0.00000000000E+00 -0.40159536220E+02  0.40159536220E+02  0.00000000000E+00 0. -1.
         25    1    1    2    0    0  0.88784829116E+02 -0.21971568113E+03  0.52918762296E+03  0.59314607536E+03  0.12500000000E+03 0.  0.
         21    1    1    2  503  501 -0.34140808407E+02 -0.37027896812E+01  0.86513940804E+02  0.93080435128E+02  0.00000000000E+00 0.  1.
          2    1    1    2  501    0 -0.54644020709E+02  0.22341847081E+03  0.26957922896E+04  0.27055864153E+04  0.00000000000E+00 0. -1.
<mgrwt>
<rscale>  4 0.26234205E+03</rscale>
<asrwt>0</asrwt>
<pdfrwt beam="1">  1       21 0.61783928E-02 0.26234205E+03</pdfrwt>
<pdfrwt beam="2">  1        2 0.51563876E+00 0.26234205E+03</pdfrwt>
<totfact> 0.30201236E+03</totfact>
</mgrwt>
</event>
<event>
 5    0  0.3040647E+000  0.2995650E+03  0.7546771E-02  0.1085458E+00
         21   -1    0    0  503  502  0.00000000000E+00  0.00000000000E+00  0.64578813130E+03  0.64578813130E+03  0.00000000000E+00 0. -1.
          2   -1    0    0  502    0 -0.00000000000E+00 -0.00000000000E+00 -0.14115843035E+03  0.14115843035E+03  0.00000000000E+00 0. -1.
         25    1    1    2    0    0 -0.15172714792E+03 -0.23131783526E+03  0.29131710159E+03  0.42073711745E+03  0.12500000000E+03 0.  0.
         21    1    1    2  503  501  0.16703031892E+03  0.21001614902E+03  0.20783900340E+03  0.33941561782E+03  0.00000000000E+00 0. -1.
          2    1    1    2  501    0 -0.15303171001E+02  0.21301686240E+02  0.54735959628E+01  0.26793826381E+02  0.00000000000E+00 0. -1.
<mgrwt>
<rscale>  4 0.29956502E+03</rscale>
<asrwt>0</asrwt>
<pdfrwt beam="1">  1       21 0.99352019E-01 0.29956502E+03</pdfrwt>
<pdfrwt beam="2">  1        2 0.21716682E-01 0.29956502E+03</pdfrwt>
<totfact> 0.24897846E+03</totfact>
</mgrwt>
</event>
<event>
 5    0  0.3040647E+000  0.2974039E+03  0.7546771E-02  0.1086546E+00
         21   -1    0    0  503  502  0.00000000000E+00  0.00000000000E+00  0.43737235175E+03  0.43737235175E+03  0.00000000000E+00 0.  1.
          2   -1    0    0  502    0 -0.00000000000E+00 -0.00000000000E+00 -0.29086577475E+04  0.29086577475E+04  0.00000000000E+00 0.  1.
         25    1    1    2    0    0 -0.82656332540E+02 -0.28050135638E+03  0.20456972440E+03  0.37813602365E+03  0.12500000000E+03 0.  0.
         21    1    1    2  503  501  0.11314454218E+02  0.20758293624E+02  0.13858817412E+03  0.14059020461E+03  0.00000000000E+00 0.  1.
          2    1    1    2  501    0  0.71341878322E+02  0.25974306276E+03 -0.28144432943E+04  0.28273038710E+04  0.00000000000E+00 0.  1.
<mgrwt>
<rscale>  4 0.29740394E+03</rscale>
<asrwt>0</asrwt>
<pdfrwt beam="1">  1       21 0.67288056E-01 0.29740394E+03</pdfrwt>
<pdfrwt beam="2">  1        2 0.44748580E+00 0.29740394E+03</pdfrwt>
<totfact> 0.56988614E+01</totfact>
</mgrwt>
</event>
<event>
 5    0  0.3040647E+000  0.3866045E+03  0.7546771E-02  0.1048519E+00
         -1   -1    0    0    0  501 -0.00000000000E+00  0.00000000000E+00  0.12656636894E+04  0.12656636894E+04  0.00000000000E+00 0. -1.
         21   -1    0    0  501  502  0.00000000000E+00 -0.00000000000E+00 -0.16343810585E+03  0.16343810585E+03  0.00000000000E+00 0.  1.
         25    1    1    2    0    0 -0.34915538985E+03 -0.85433337424E+02  0.40075255523E+03  0.55266260225E+03  0.12500000000E+03 0.  0.
         21    1    1    2  503  502  0.24207055763E-02 -0.37529640977E+02 -0.35539989817E+02  0.51687182491E+02  0.00000000000E+00 0.  1.
         -1    1    1    2    0  503  0.34915296915E+03  0.12296297840E+03  0.73701301811E+03  0.82475201048E+03  0.00000000000E+00 0. -1.
<mgrwt>
<rscale>  4 0.38660450E+03</rscale>
<asrwt>0</asrwt>
<pdfrwt beam="1">  1       21 0.25144325E-01 0.38660450E+03</pdfrwt>
<pdfrwt beam="2">  1       -1 0.19471748E+00 0.38660450E+03</pdfrwt>
<totfact> 0.23933918E+02</totfact>
</mgrwt>
</event>
<event>
 5    0  0.3040647E+000  0.2130658E+03  0.7546771E-02  0.1139161E+00
         21   -1    0    0  503  502  0.00000000000E+00  0.00000000000E+00  0.96624469542E+03  0.96624469542E+03  0.00000000000E+00 0.  1.
          2   -1    0    0  502    0 -0.00000000000E+00 -0.00000000000E+00 -0.11646893597E+04  0.11646893597E+04  0.00000000000E+00 0. -1.
         25    1    1    2    0    0  0.45959752866E+02 -0.22247522980E+03 -0.44674651686E+03  0.51654136048E+03  0.12500000000E+03 0.  0.
         21    1    1    2  503  501 -0.57429003964E+02  0.63305745689E+02  0.92001829295E+03  0.92398017690E+03  0.00000000000E+00 0.  1.
          2    1    1    2  501    0  0.11469251098E+02  0.15916948411E+03 -0.67171644035E+03  0.69041251772E+03  0.00000000000E+00 0. -1.
<mgrwt>
<rscale>  4 0.21306584E+03</rscale>
<asrwt>0</asrwt>
<pdfrwt beam="1">  1       21 0.14865303E+00 0.21306584E+03</pdfrwt>
<pdfrwt beam="2">  1        2 0.17918298E+00 0.21306584E+03</pdfrwt>
<totfact> 0.80240541E+01</totfact>
</mgrwt>
</event>
<event>
 5    0  0.3040647E+000  0.3310591E+03  0.7546771E-02  0.1070669E+00
         21   -1    0    0  503  502  0.00000000000E+00  0.00000000000E+00  0.54974299015E+02  0.54974299015E+02  0.00000000000E+00 0. -1.
          2   -1    0    0  502    0 -0.00000000000E+00 -0.00000000000E+00 -0.19879827275E+04  0.19879827275E+04  0.00000000000E+00 0.  1.
         25    1    1    2    0    0  0.25328687083E+03 -0.17268724472E+03 -0.77868657724E+03  0.84614000555E+03  0.12500000000E+03 0.  0.
         21    1    1    2  503  501 -0.59666150329E+02  0.64858842446E+02 -0.23021699405E+03  0.24650878947E+03  0.00000000000E+00 0. -1.
          2    1    1    2  501    0 -0.19362072050E+03  0.10782840227E+03 -0.92410485717E+03  0.95030823147E+03  0.00000000000E+00 0.  1.
<mgrwt>
<rscale>  4 0.33105909E+03</rscale>
<asrwt>0</asrwt>
<pdfrwt beam="1">  1       21 0.84575844E-02 0.33105909E+03</pdfrwt>
<pdfrwt beam="2">  1        2 0.30584350E+00 0.33105909E+03</pdfrwt>
<totfact> 0.10170061E+04</totfact>
</mgrwt>
</event>
<event>
 5    0  0.3040647E+000  0.2961575E+03  0.7546771E-02  0.1087177E+00
          2   -1    0    0  502    0 -0.00000000000E+00  0.00000000000E+00  0.15775463924E+04  0.15775463924E+04  0.00000000000E+00 0. -1.
         21   -1    0    0  503  502  0.00000000000E+00 -0.00000000000E+00 -0.93488446931E+03  0.93488446931E+03  0.00000000000E+00 0. -1.
         25    1    1    2    0    0 -0.34325539858E+03  0.29834953209E+03  0.31797002037E+03  0.56882918860E+03  0.12500000000E+03 0.  0.
         21    1    1    2  503  501  0.21172321765E+03 -0.86142285579E+02 -0.77909371760E+03  0.81193240794E+03  0.00000000000E+00 0. -1.
          2    1    1    2  501    0  0.13153218093E+03 -0.21220724651E+03  0.11037856203E+04  0.11316692652E+04  0.00000000000E+00 0. -1.
<mgrwt>
<rscale>  4 0.29615746E+03</rscale>
<asrwt>0</asrwt>
<pdfrwt beam="1">  1       21 0.14382838E+00 0.29615746E+03</pdfrwt>
<pdfrwt beam="2">  1        2 0.24269945E+00 0.29615746E+03</pdfrwt>
<totfact> 0.48641846E+01</totfact>
</mgrwt>
</event>
<event>
 5    0  0.3040647E+000  0.3867454E+03  0.7546771E-02  0.1048468E+00
         21   -1    0    0  503  502  0.00000000000E+00  0.00000000000E+00  0.14936291925E+03  0.14936291925E+03  0.00000000000E+00 0. -1.
          2   -1    0    0  502    0 -0.00000000000E+00 -0.00000000000E+00 -0.13480367343E+04  0.13480367343E+04  0.00000000000E+00 0. -1.
         25    1    1    2    0    0  0.88155535991E+02 -0.36036300225E+03 -0.96882176912E+03  0.10449275153E+04  0.12500000000E+03 0.  0.
         21    1    1    2  503  501 -0.20484112243E+02  0.21139213025E+01 -0.30909060866E+02  0.37140780300E+02  0.00000000000E+00 0. -1.
          2    1    1    2  501    0 -0.67671423747E+02  0.35824908094E+03 -0.19894298506E+03  0.41533135795E+03  0.00000000000E+00 0. -1.
<mgrwt>
<rscale>  4 0.38674544E+03</rscale>
<asrwt>0</asrwt>
<pdfrwt beam="1">  1       21 0.22978912E-01 0.38674544E+03</pdfrwt>
<pdfrwt beam="2">  1        2 0.20739026E+00 0.38674544E+03</pdfrwt>
<totfact> 0.35234222E+03</totfact>
</mgrwt>
</event>
<event>
 5    0  0.3040647E+000  0.3139761E+03  0.7546771E-02  0.1078456E+00
          1   -1    0    0  502    0 -0.00000000000E+00  0.00000000000E+00  0.72805949139E+03  0.72805949139E+03  0.00000000000E+00 0.  1.
         21   -1    0    0  503  502  0.00000000000E+00 -0.00000000000E+00 -0.93660036020E+03  0.93660036020E+03  0.00000000000E+00 0.  1.
         25    1    1    2    0    0 -0.26768554810E+03 -0.18043554529E+03 -0.82363050924E+03  0.89342305456E+03  0.12500000000E+03 0.  0.
         21    1    1    2  503  501  0.71312167558E+01  0.60278596776E+02 -0.28147050017E+02  0.66907547454E+02  0.00000000000E+00 0. -1.
          1    1    1    2  501    0  0.26055433134E+03  0.12015694851E+03  0.64323669045E+03  0.70432924957E+03  0.00000000000E+00 0.  1.
<mgrwt>
<rscale>  4 0.31397607E+03</rscale>
<asrwt>0</asrwt>
<pdfrwt beam="1">  1       21 0.14409236E+00 0.31397607E+03</pdfrwt>
<pdfrwt beam="2">  1        1 0.11200915E+00 0.31397607E+03</pdfrwt>
<totfact> 0.90360966E+01</totfact>
</mgrwt>
</event>
<event>
 5    0  0.3040647E+000  0.2062843E+03  0.7546771E-02  0.1144543E+00
         -4   -1    0    0    0  501 -0.00000000000E+00  0.00000000000E+00  0.34462897896E+03  0.34462897896E+03  0.00000000000E+00 0. -1.
         21   -1    0    0  501  502  0.00000000000E+00 -0.00000000000E+00 -0.28664654552E+03  0.28664654552E+03  0.00000000000E+00 0. -1.
         25    1    1    2    0    0  0.94710863985E+02 -0.18099352736E+03 -0.75802750181E+01  0.23960648003E+03  0.12500000000E+03 0.  0.
         21    1    1    2  503  502 -0.35009976830E+02  0.37458437484E+02 -0.13122531489E+03  0.14088618202E+03  0.00000000000E+00 0. -1.
         -4    1    1    2    0  503 -0.59700887155E+02  0.14353508988E+03  0.19678802334E+03  0.25078286242E+03  0.00000000000E+00 0. -1.
<mgrwt>
<rscale>  4 0.20628434E+03</rscale>
<asrwt>0</asrwt>
<pdfrwt beam="1">  1       21 0.44099468E-01 0.20628434E+03</pdfrwt>
<pdfrwt beam="2">  1       -4 0.53019843E-01 0.20628434E+03</pdfrwt>
<totfact> 0.71351101E+02</totfact>
</mgrwt>
</event>
<event>
 5    0  0.3040647E+000  0.3141393E+03  0.7546771E-02  0.1078379E+00
          1   -1    0    0  502    0 -0.00000000000E+00  0.00000000000E+00  0.18326187454E+04  0.18326187454E+04  0.00000000000E+00 0.  1.
         21   -1    0    0  503  502  0.00000000000E+00 -0.00000000000E+00 -0.99350829678E+02  0.99350829678E+02  0.00000000000E+00 0. -1.
         25    1    1    2    0    0  0.22260395503E+03  0.13977188937E+03  0.60521406243E+03  0.67156367026E+03  0.12500000000E+03 0.  0.
         21    1    1    2  503  501  0.25682267517E+02  0.34166443271E+02 -0.37015380177E+02  0.56542577588E+02  0.00000000000E+00 0. -1.
          1    1    1    2  501    0 -0.24828622255E+03 -0.17393833264E+03  0.11650692335E+04  0.12038633272E+04  0.00000000000E+00 0.  1.
<mgrwt>
<rscale>  4 0.31413929E+03</rscale>
<asrwt>0</asrwt>
<pdfrwt beam="1">  1       21 0.15284744E-01 0.31413929E+03</pdfrwt>
<pdfrwt beam="2">  1        1 0.28194132E+00 0.31413929E+03</pdfrwt>
<totfact> 0.17747858E+03</totfact>
</mgrwt>
</event>
<event>
 5    0  0.3040647E+000  0.6361259E+03  0.7546771E-02  0.9833167E-01
         21   -1    0    0  503  502  0.00000000000E+00  0.00000000000E+00  0.36574890771E+03  0.36574890771E+03  0.00000000000E+00 0.  1.
          2   -1    0    0  502    0 -0.00000000000E+00 -0.00000000000E+00 -0.42309741271E+04  0.42309741271E+04  0.00000000000E+00 0.  1.
         25    1    1    2    0    0  0.40146518802E+03 -0.50809972974E+03 -0.34842515358E+03  0.74589859914E+03  0.12500000000E+03 0.  0.
         21    1    1    2  503  501 -0.43279885939E+02  0.11859412698E+01  0.13751581467E+03  0.14417057351E+03  0.00000000000E+00 0.  1.
          2    1    1    2  501    0 -0.35818530208E+03  0.50691378847E+03 -0.36543158805E+04  0.37066538622E+04  0.00000000000E+00 0.  1.
<mgrwt>
<rscale>  4 0.63612586E+03</rscale>
<asrwt>0</asrwt>
<pdfrwt beam="1">  1       21 0.56269066E-01 0.63612586E+03</pdfrwt>
<pdfrwt beam="2">  1        2 0.65091906E+00 0.63612586E+03</pdfrwt>
<totfact> 0.85039168E+00</totfact>
</mgrwt>
</event>
<event>
 5    0  0.3040647E+000  0.3385353E+03  0.7546771E-02  0.1067421E+00
         21   -1    0    0  501  502  0.00000000000E+00  0.00000000000E+00  0.16866535996E+04  0.16866535996E+04  0.00000000000E+00 0. -1.
         -1   -1    0    0    0  501 -0.00000000000E+00 -0.00000000000E+00 -0.67300391601E+03  0.67300391601E+03  0.00000000000E+00 0.  1.
         25    1    1    2    0    0  0.23769516081E+03  0.21688721479E+03  0.13451270344E+04  0.13887155188E+04  0.12500000000E+03 0.  0.
         21    1    1    2  503  502 -0.69037486489E+02  0.48825229043E+02  0.27497909577E+03  0.28768660143E+03  0.00000000000E+00 0. -1.
         -1    1    1    2    0  503 -0.16865767432E+03 -0.26571244383E+03 -0.60645644652E+03  0.68325539547E+03  0.00000000000E+00 0.  1.
<mgrwt>
<rscale>  4 0.33853535E+03</rscale>
<asrwt>0</asrwt>
<pdfrwt beam="1">  1       21 0.25948517E+00 0.33853535E+03</pdfrwt>
<pdfrwt beam="2">  1       -1 0.10353906E+00 0.33853535E+03</pdfrwt>
<totfact> 0.44283365E+00</totfact>
</mgrwt>
</event>
<event>
 5    0  0.3283106E+000  0.2669439E+03  0.7546771E-02  0.1103042E+00
         21   -1    0    0  503  502  0.00000000000E+00  0.00000000000E+00  0.27694586342E+03  0.27694586342E+03  0.00000000000E+00 0. -1.
          2   -1    0    0  502    0 -0.00000000000E+00 -0.00000000000E+00 -0.19057280789E+04  0.19057280789E+04  0.00000000000E+00 0.  1.
         25    1    1    2    0    0  0.19437687864E+03  0.11114872407E+03  0.19267822494E+03  0.32075895650E+03  0.12500000000E+03 0.  0.
         21    1    1    2  503  501  0.11507624997E+01  0.21438362095E+02  0.34779334844E+01  0.21749106763E+02  0.00000000000E+00 0.  1.
          2    1    1    2  501    0 -0.19552764114E+03 -0.13258708616E+03 -0.18249383739E+04  0.18401658791E+04  0.00000000000E+00 0.  1.
<mgrwt>
<rscale>  4 0.26694394E+03</rscale>
<asrwt>0</asrwt>
<pdfrwt beam="1">  1       21 0.42607055E-01 0.26694394E+03</pdfrwt>
<pdfrwt beam="2">  1        2 0.29318894E+00 0.26694394E+03</pdfrwt>
<totfact> 0.54402497E+02</totfact>
</mgrwt>
</event>
<event>
 5    0  0.3040647E+000  0.4732388E+03  0.7546771E-02  0.1021010E+00
          1   -1    0    0  502    0 -0.00000000000E+00  0.00000000000E+00  0.18938034200E+04  0.18938034200E+04  0.00000000000E+00 0.  1.
         21   -1    0    0  503  502  0.00000000000E+00 -0.00000000000E+00 -0.26566063270E+03  0.26566063270E+03  0.00000000000E+00 0.  1.
         25    1    1    2    0    0  0.29643612393E+03  0.34337283857E+03  0.14716502439E+04  0.15450432752E+04  0.12500000000E+03 0.  0.
         21    1    1    2  503  501 -0.66304959192E+02  0.74929325570E+02 -0.25879978404E+02  0.10334662416E+03  0.00000000000E+00 0.  1.
          1    1    1    2  501    0 -0.23013116474E+03 -0.41830216414E+03  0.18237252180E+03  0.51107415335E+03  0.00000000000E+00 0.  1.
<mgrwt>
<rscale>  4 0.47323879E+03</rscale>
<asrwt>0</asrwt>
<pdfrwt beam="1">  1       21 0.40870868E-01 0.47323879E+03</pdfrwt>
<pdfrwt beam="2">  1        1 0.29135436E+00 0.47323879E+03</pdfrwt>
<totfact> 0.22614052E+02</totfact>
</mgrwt>
</event>
<event>
 5    0  0.3040647E+000  0.2809416E+03  0.7546771E-02  0.1095176E+00
          2   -1    0    0  502    0 -0.00000000000E+00  0.00000000000E+00  0.22332862449E+04  0.22332862449E+04  0.00000000000E+00 0.  1.
         21   -1    0    0  503  502  0.00000000000E+00 -0.00000000000E+00 -0.16492294084E+03  0.16492294084E+03  0.00000000000E+00 0.  1.
         25    1    1    2    0    0 -0.10236336817E+03  0.30744413407E+03  0.10703687440E+03  0.36343093869E+03  0.12500000000E+03 0.  0.
         21    1    1    2  503  501  0.10030123183E+03 -0.14989953739E+03  0.21187714671E+03  0.27824833102E+03  0.00000000000E+00 0.  1.
          2    1    1    2  501    0  0.20621363406E+01 -0.15754459668E+03  0.17494492830E+04  0.17565299161E+04  0.00000000000E+00 0.  1.
<mgrwt>
<rscale>  4 0.28094156E+03</rscale>
<asrwt>0</asrwt>
<pdfrwt beam="1">  1       21 0.25372762E-01 0.28094156E+03</pdfrwt>
<pdfrwt beam="2">  1        2 0.34358248E+00 0.28094156E+03</pdfrwt>
<totfact> 0.10156851E+03</totfact>
</mgrwt>
</event>
<event>
 5    0  0.3040647E+000  0.2534068E+03  0.7546771E-02  0.1111171E+00
         -3   -1    0    0    0  501 -0.00000000000E+00  0.00000000000E+00  0.12072750390E+04  0.12072750390E+04  0.00000000000E+00 0.  1.
         21   -1    0    0  501  502  0.00000000000E+00 -0.00000000000E+00 -0.10842630143E+03  0.10842630143E+03  0.00000000000E+00 0.  1.
         25    1    1    2    0    0 -0.21438517919E+01 -0.20403498135E+03  0.80571806262E+02  0.25249096158E+03  0.12500000000E+03 0.  0.
         21    1    1    2  503  502  0.28898086680E+02 -0.17345243502E+02  0.17665947342E+02  0.38053154684E+02  0.00000000000E+00 0.  1.
         -3    1    1    2    0  503 -0.26754234888E+02  0.22138022485E+03  0.10006109839E+04  0.10251572241E+04  0.00000000000E+00 0.  1.
<mgrwt>
<rscale>  4 0.25340684E+03</rscale>
<asrwt>0</asrwt>
<pdfrwt beam="1">  1       21 0.16680970E-01 0.25340684E+03</pdfrwt>
<pdfrwt beam="2">  1       -3 0.18573461E+00 0.25340684E+03</pdfrwt>
<totfact> 0.30958220E+02</totfact>
</mgrwt>
</event>
<event>
 5    0  0.3040647E+000  0.3180858E+03  0.7546771E-02  0.1076534E+00
         21   -1    0    0  503  502  0.00000000000E+00  0.00000000000E+00  0.66074403183E+03  0.66074403183E+03  0.00000000000E+00 0. -1.
          1   -1    0    0  502    0 -0.00000000000E+00 -0.00000000000E+00 -0.11652623081E+04  0.11652623081E+04  0.00000000000E+00 0. -1.
         25    1    1    2    0    0 -0.22724663892E+03 -0.63691797192E+02  0.56836417020E+03  0.62798129741E+03  0.12500000000E+03 0.  0.
         21    1    1    2  503  501 -0.17308048039E+02 -0.10092871259E+03 -0.19594574546E+02  0.10425987197E+03  0.00000000000E+00 0.  1.
          1    1    1    2  501    0  0.24455468696E+03  0.16462050978E+03 -0.10532878720E+04  0.10937651706E+04  0.00000000000E+00 0. -1.
<mgrwt>
<rscale>  4 0.31808581E+03</rscale>
<asrwt>0</asrwt>
<pdfrwt beam="1">  1       21 0.10165293E+00 0.31808581E+03</pdfrwt>
<pdfrwt beam="2">  1        1 0.17927112E+00 0.31808581E+03</pdfrwt>
<totfact> 0.98891378E+01</totfact>
</mgrwt>
</event>
<event>
 5    0  0.3040647E+000  0.2591063E+03  0.7546771E-02  0.1107681E+00
         21   -1    0    0  503  502  0.00000000000E+00  0.00000000000E+00  0.68560470684E+02  0.68560470684E+02  0.00000000000E+00 0.  1.
          2   -1    0    0  502    0 -0.00000000000E+00 -0.00000000000E+00 -0.14609894801E+04  0.14609894801E+04  0.00000000000E+00 0.  1.
         25    1    1    2    0    0 -0.18213169050E+03  0.17423763686E+03 -0.42017746236E+03  0.50567262795E+03  0.12500000000E+03 0.  0.
         21    1    1    2  503  501  0.23003715812E+02 -0.22725724562E+02 -0.59110673107E+01  0.32872027847E+02  0.00000000000E+00 0.  1.
          2    1    1    2  501    0  0.15912797468E+03 -0.15151191230E+03 -0.96634047971E+03  0.99100529496E+03  0.00000000000E+00 0.  1.
<mgrwt>
<rscale>  4 0.25910625E+03</rscale>
<asrwt>0</asrwt>
<pdfrwt beam="1">  1       21 0.10547765E-01 0.25910625E+03</pdfrwt>
<pdfrwt beam="2">  1        2 0.22476762E+00 0.25910625E+03</pdfrwt>
<totfact> 0.13323370E+04</totfact>
</mgrwt>
</event>
<event>
 5    0  0.3040647E+000  0.2612888E+03  0.7546771E-02  0.1106371E+00
         21   -1    0    0  503  502  0.00000000000E+00  0.00000000000E+00  0.72463913251E+03  0.72463913251E+03  0.00000000000E+00 0.  1.
          2   -1    0    0  502    0 -0.00000000000E+00 -0.00000000000E+00 -0.32921894781E+03  0.32921894781E+03  0.00000000000E+00 0. -1.
         25    1    1    2    0    0 -0.20764778780E+03 -0.66005983041E+02  0.61026687195E+03  0.65994321618E+03  0.12500000000E+03 0.  0.
         21    1    1    2  503  501 -0.21013018081E+01 -0.29223611174E+02  0.40519843280E+02  0.50002926102E+02  0.00000000000E+00 0. -1.
          2    1    1    2  501    0  0.20974908961E+03  0.95229594215E+02 -0.25536653053E+03  0.34391193804E+03  0.00000000000E+00 0. -1.
<mgrwt>
<rscale>  4 0.26128882E+03</rscale>
<asrwt>0</asrwt>
<pdfrwt beam="1">  1       21 0.11148294E+00 0.26128882E+03</pdfrwt>
<pdfrwt beam="2">  1        2 0.50649069E-01 0.26128882E+03</pdfrwt>
<totfact> 0.74963450E+02</totfact>
</mgrwt>
</event>
<event>
 5    0  0.3040647E+000  0.4917385E+03  0.7546771E-02  0.1015958E+00
          2   -1    0    0  502    0 -0.00000000000E+00  0.00000000000E+00  0.10538831358E+04  0.10538831358E+04  0.00000000000E+00 0.  1.
         21   -1    0    0  503  502  0.00000000000E+00 -0.00000000000E+00 -0.74779609383E+03  0.74779609383E+03  0.00000000000E+00 0.  1.
         25    1    1    2    0    0  0.38250040248E+03 -0.32528111995E+03 -0.51523513705E+03  0.73020997757E+03  0.12500000000E+03 0.  0.
         21    1    1    2  503  501 -0.22076747026E+02  0.18883091301E+02 -0.62548783632E+02  0.68965964288E+02  0.00000000000E+00 0.  1.
          2    1    1    2  501    0 -0.36042365545E+03  0.30639802864E+03  0.88387096269E+03  0.10025032878E+04  0.00000000000E+00 0.  1.
<mgrwt>
<rscale>  4 0.49173847E+03</rscale>
<asrwt>0</asrwt>
<pdfrwt beam="1">  1       21 0.11504555E+00 0.49173847E+03</pdfrwt>
<pdfrwt beam="2">  1        2 0.16213587E+00 0.49173847E+03</pdfrwt>
<totfact> 0.15577684E+02</totfact>
</mgrwt>
</event>
<event>
 5    0  0.3040647E+000  0.2944909E+03  0.7546771E-02  0.1088027E+00
         21   -1    0    0  503  502  0.00000000000E+00  0.00000000000E+00  0.54971574849E+03  0.54971574849E+03  0.00000000000E+00 0.  1.
          3   -1    0    0  502    0 -0.00000000000E+00 -0.00000000000E+00 -0.20283549528E+03  0.20283549528E+03  0.00000000000E+00 0.  1.
         25    1    1    2    0    0 -0.58949063623E+02 -0.25719535457E+03  0.27309321273E+01  0.29198784308E+03  0.12500000000E+03 0.  0.
         21    1    1    2  503  501 -0.30797952649E+02 -0.21148316820E+01  0.45593836324E+02  0.55061641014E+02  0.00000000000E+00 0.  1.
          3    1    1    2  501    0  0.89747016272E+02  0.25931018625E+03  0.29855548476E+03  0.40550175968E+03  0.00000000000E+00 0.  1.
<mgrwt>
<rscale>  4 0.29449086E+03</rscale>
<asrwt>0</asrwt>
<pdfrwt beam="1">  1       21 0.84571653E-01 0.29449086E+03</pdfrwt>
<pdfrwt beam="2">  1        3 0.31205461E-01 0.29449086E+03</pdfrwt>
<totfact> 0.58526055E+02</totfact>
</mgrwt>
</event>
<event>
 5    0  0.3040647E+000  0.2762080E+03  0.7546771E-02  0.1097778E+00
         -2   -1    0    0    0  501 -0.00000000000E+00  0.00000000000E+00  0.45686509572E+03  0.45686509572E+03  0.00000000000E+00 0.  1.
         21   -1    0    0  501  502  0.00000000000E+00 -0.00000000000E+00 -0.51377213960E+03  0.51377213960E+03  0.00000000000E+00 0. -1.
         25    1    1    2    0    0 -0.24612418418E+03 -0.64601723047E+02 -0.30406318328E+03  0.41572817571E+03  0.12500000000E+03 0.  0.
         21    1    1    2  503  502  0.27603357250E+02 -0.48440129704E+02 -0.10877068430E+03  0.12222705617E+03  0.00000000000E+00 0. -1.
         -2    1    1    2    0  503  0.21852082693E+03  0.11304185275E+03  0.35592682369E+03  0.43268200344E+03  0.00000000000E+00 0.  1.
<mgrwt>
<rscale>  4 0.27620799E+03</rscale>
<asrwt>0</asrwt>
<pdfrwt beam="1">  1       21 0.79041867E-01 0.27620799E+03</pdfrwt>
<pdfrwt beam="2">  1       -2 0.70286938E-01 0.27620799E+03</pdfrwt>
<totfact> 0.20986450E+02</totfact>
</mgrwt>
</event>
<event>
 5    0  0.3040647E+000  0.2111236E+03  0.7546771E-02  0.1140679E+00
         -3   -1    0    0    0  501 -0.00000000000E+00  0.00000000000E+00  0.77032620317E+03  0.77032620317E+03  0.00000000000E+00 0.  1.
         21   -1    0    0  501  502  0.00000000000E+00 -0.00000000000E+00 -0.22306222758E+03  0.22306222758E+03  0.00000000000E+00 0.  1.
         25    1    1    2    0    0 -0.11452084960E+03 -0.17098472050E+03 -0.89994529558E+02  0.25705021880E+03  0.12500000000E+03 0.  0.
         21    1    1    2  503  502  0.49806119500E+02  0.15740933038E+02 -0.21471402989E+02  0.56475195075E+02  0.00000000000E+00 0. -1.
         -3    1    1    2    0  503  0.64714730103E+02  0.15524378746E+03  0.65872990814E+03  0.67986301688E+03  0.00000000000E+00 0.  1.
<mgrwt>
<rscale>  4 0.21112358E+03</rscale>
<asrwt>0</asrwt>
<pdfrwt beam="1">  1       21 0.34317266E-01 0.21112358E+03</pdfrwt>
<pdfrwt beam="2">  1       -3 0.11851172E+00 0.21112358E+03</pdfrwt>
<totfact> 0.24533337E+02</totfact>
</mgrwt>
</event>
<event>
 5    0  0.3040647E+000  0.2457752E+03  0.7546771E-02  0.1116004E+00
         21   -1    0    0  503  502  0.00000000000E+00  0.00000000000E+00  0.64484568926E+02  0.64484568926E+02  0.00000000000E+00 0. -1.
          2   -1    0    0  502    0 -0.00000000000E+00 -0.00000000000E+00 -0.13234719643E+04  0.13234719643E+04  0.00000000000E+00 0. -1.
         25    1    1    2    0    0 -0.22824853443E+03  0.11587723166E+03 -0.52647598805E+03  0.59860411983E+03  0.12500000000E+03 0.  0.
         21    1    1    2  503  501  0.73045944663E+02  0.24091044951E+01 -0.80327112018E+02  0.10859999421E+03  0.00000000000E+00 0. -1.
          2    1    1    2  501    0  0.15520258976E+03 -0.11828633616E+03 -0.65218429533E+03  0.68075241921E+03  0.00000000000E+00 0. -1.
<mgrwt>
<rscale>  4 0.24577519E+03</rscale>
<asrwt>0</asrwt>
<pdfrwt beam="1">  1       21 0.99207038E-02 0.24577519E+03</pdfrwt>
<pdfrwt beam="2">  1        2 0.20361105E+00 0.24577519E+03</pdfrwt>
<totfact> 0.17710077E+04</totfact>
</mgrwt>
</event>
<event>
 5    0  0.3040647E+000  0.3714683E+03  0.7546771E-02  0.1054133E+00
          1   -1    0    0  502    0 -0.00000000000E+00  0.00000000000E+00  0.21261747365E+03  0.21261747365E+03  0.00000000000E+00 0. -1.
         21   -1    0    0  503  502  0.00000000000E+00 -0.00000000000E+00 -0.64101530744E+03  0.64101530744E+03  0.00000000000E+00 0. -1.
         25    1    1    2    0    0 -0.31305113755E+03 -0.15608542094E+03 -0.23477984160E+03  0.43944311051E+03  0.12500000000E+03 0.  0.
         21    1    1    2  503  501  0.23188791217E+03  0.12377193315E+03 -0.19422990841E+03  0.32682832278E+03  0.00000000000E+00 0. -1.
          1    1    1    2  501    0  0.81163225381E+02  0.32313487787E+02  0.61191622667E+00  0.87361347796E+02  0.00000000000E+00 0. -1.
<mgrwt>
<rscale>  4 0.37146827E+03</rscale>
<asrwt>0</asrwt>
<pdfrwt beam="1">  1       21 0.98617739E-01 0.37146827E+03</pdfrwt>
<pdfrwt beam="2">  1        1 0.32710381E-01 0.37146827E+03</pdfrwt>
<totfact> 0.11739043E+03</totfact>
</mgrwt>
</event>
<event>
 5    0  0.3040647E+000  0.3487561E+03  0.7546771E-02  0.1063127E+00
          1   -1    0    0  502    0 -0.00000000000E+00  0.00000000000E+00  0.27124077581E+03  0.27124077581E+03  0.00000000000E+00 0. -1.
         21   -1    0    0  503  502  0.00000000000E+00 -0.00000000000E+00 -0.10591570928E+04  0.10591570928E+04  0.00000000000E+00 0.  1.
         25    1    1    2    0    0 -0.25480451363E+03 -0.78141106197E+02 -0.94263395534E+02  0.30909862565E+03  0.12500000000E+03 0.  0.
         21    1    1    2  503  501 -0.10811104251E+03 -0.10685347646E+03 -0.57828810670E+03  0.59793210091E+03  0.00000000000E+00 0.  1.
          1    1    1    2  501    0  0.36291555614E+03  0.18499458266E+03 -0.11536481477E+03  0.42336714207E+03  0.00000000000E+00 0. -1.
<mgrwt>
<rscale>  4 0.34875610E+03</rscale>
<asrwt>0</asrwt>
<pdfrwt beam="1">  1       21 0.16294724E+00 0.34875610E+03</pdfrwt>
<pdfrwt beam="2">  1        1 0.41729351E-01 0.34875610E+03</pdfrwt>
<totfact> 0.23854373E+02</totfact>
</mgrwt>
</event>
<event>
 5    0  0.3040647E+000  0.2188634E+03  0.7546771E-02  0.1134733E+00
          1   -1    0    0  502    0 -0.00000000000E+00  0.00000000000E+00  0.23233279430E+03  0.23233279430E+03  0.00000000000E+00 0. -1.
         21   -1    0    0  503  502  0.00000000000E+00 -0.00000000000E+00 -0.41912601342E+03  0.41912601342E+03  0.00000000000E+00 0.  1.
         25    1    1    2    0    0  0.18243744309E+03  0.88166718515E+02 -0.27814248909E+03  0.36612161249E+03  0.12500000000E+03 0.  0.
         21    1    1    2  503  501 -0.15767180923E+02 -0.29304399138E+02 -0.49278060867E+02  0.59461576551E+02  0.00000000000E+00 0.  1.
          1    1    1    2  501    0 -0.16667026217E+03 -0.58862319377E+02  0.14062733084E+03  0.22587561868E+03  0.00000000000E+00 0. -1.
<mgrwt>
<rscale>  4 0.21886340E+03</rscale>
<asrwt>0</asrwt>
<pdfrwt beam="1">  1       21 0.64480925E-01 0.21886340E+03</pdfrwt>
<pdfrwt beam="2">  1        1 0.35743507E-01 0.21886340E+03</pdfrwt>
<totfact> 0.28971767E+03</totfact>
</mgrwt>
</event>
<event>
 5    0  0.3040647E+000  0.2330950E+03  0.7546771E-02  0.1124480E+00
          2   -1    0    0  502    0 -0.00000000000E+00  0.00000000000E+00  0.19382928619E+04  0.19382928619E+04  0.00000000000E+00 0.  1.
         21   -1    0    0  503  502  0.00000000000E+00 -0.00000000000E+00 -0.87786986992E+02  0.87786986992E+02  0.00000000000E+00 0.  1.
         25    1    1    2    0    0 -0.20656511971E+03 -0.12177736980E+03  0.96309977639E+03  0.10003424692E+04  0.12500000000E+03 0.  0.
         21    1    1    2  503  501  0.15322481919E+03  0.11410808734E+03  0.65345230978E+02  0.20191210966E+03  0.00000000000E+00 0.  1.
          2    1    1    2  501    0  0.53340300514E+02  0.76692824528E+01  0.82206086752E+03  0.82382526998E+03  0.00000000000E+00 0.  1.
<mgrwt>
<rscale>  4 0.23309502E+03</rscale>
<asrwt>0</asrwt>
<pdfrwt beam="1">  1       21 0.13505692E-01 0.23309502E+03</pdfrwt>
<pdfrwt beam="2">  1        2 0.29819887E+00 0.23309502E+03</pdfrwt>
<totfact> 0.48286108E+03</totfact>
</mgrwt>
</event>
<event>
 5    0  0.3040647E+000  0.2701189E+03  0.7546771E-02  0.1101212E+00
         21   -1    0    0  503  502  0.00000000000E+00  0.00000000000E+00  0.78266001174E+03  0.78266001174E+03  0.00000000000E+00 0. -1.
          1   -1    0    0  502    0 -0.00000000000E+00 -0.00000000000E+00 -0.13725718869E+03  0.13725718869E+03  0.00000000000E+00 0.  1.
         25    1    1    2    0    0  0.25766845963E+03  0.21613047844E+02  0.54443531617E+03  0.61554445202E+03  0.12500000000E+03 0.  0.
         21    1    1    2  503  501 -0.28668925993E+02  0.31671767558E+02  0.46272965979E+02  0.62977738593E+02  0.00000000000E+00 0. -1.
          1    1    1    2  501    0 -0.22899953364E+03 -0.53284815402E+02  0.54694540901E+02  0.24139500982E+03  0.00000000000E+00 0.  1.
<mgrwt>
<rscale>  4 0.27011888E+03</rscale>
<asrwt>0</asrwt>
<pdfrwt beam="1">  1       21 0.12040923E+00 0.27011888E+03</pdfrwt>
<pdfrwt beam="2">  1        1 0.21116491E-01 0.27011888E+03</pdfrwt>
<totfact> 0.12992370E+03</totfact>
</mgrwt>
</event>
<event>
 5    0  0.3040647E+000  0.3378897E+03  0.7546771E-02  0.1067698E+00
         21   -1    0    0  503  502  0.00000000000E+00  0.00000000000E+00  0.30958912583E+03  0.30958912583E+03  0.00000000000E+00 0.  1.
          1   -1    0    0  502    0 -0.00000000000E+00 -0.00000000000E+00 -0.10297461979E+04  0.10297461979E+04  0.00000000000E+00 0.  1.
         25    1    1    2    0    0  0.41053506303E+03 -0.10740223365E+03 -0.49129022508E+03  0.66110919145E+03  0.12500000000E+03 0.  0.
         21    1    1    2  503  501 -0.17409529214E+03 -0.51691117172E+01  0.14165598550E+03  0.22450458501E+03  0.00000000000E+00 0.  1.
          1    1    1    2  501    0 -0.23643977089E+03  0.11257134537E+03 -0.37052283248E+03  0.45372154726E+03  0.00000000000E+00 0.  1.
<mgrwt>
<rscale>  4 0.33788968E+03</rscale>
<asrwt>0</asrwt>
<pdfrwt beam="1">  1       21 0.47629096E-01 0.33788968E+03</pdfrwt>
<pdfrwt beam="2">  1        1 0.15842249E+00 0.33788968E+03</pdfrwt>
<totfact> 0.67231787E+02</totfact>
</mgrwt>
</event>
<event>
 5    0  0.3040647E+000  0.2381981E+03  0.7546771E-02  0.1120999E+00
          1   -1    0    0  502    0 -0.00000000000E+00  0.00000000000E+00  0.91935968957E+03  0.91935968957E+03  0.00000000000E+00 0. -1.
         21   -1    0    0  503  502  0.00000000000E+00 -0.00000000000E+00 -0.26181787252E+03  0.26181787252E+03  0.00000000000E+00 0. -1.
         25    1    1    2    0    0  0.14632541374E+03 -0.20207117403E+03  0.37587719373E+03  0.46813732050E+03  0.12500000000E+03 0.  0.
         21    1    1    2  503  501 -0.67206706903E+02  0.33737366450E+02 -0.19090598479E+03  0.20518295830E+03  0.00000000000E+00 0. -1.
          1    1    1    2  501    0 -0.79118706833E+02  0.16833380758E+03  0.47257060811E+03  0.50785728329E+03  0.00000000000E+00 0. -1.
<mgrwt>
<rscale>  4 0.23819812E+03</rscale>
<asrwt>0</asrwt>
<pdfrwt beam="1">  1       21 0.40279673E-01 0.23819812E+03</pdfrwt>
<pdfrwt beam="2">  1        1 0.14143995E+00 0.23819812E+03</pdfrwt>
<totfact> 0.12004175E+03</totfact>
</mgrwt>
</event>
<event>
 5    0  0.3040647E+000  0.2577813E+03  0.7546771E-02  0.1108484E+00
          1   -1    0    0  502    0 -0.00000000000E+00  0.00000000000E+00  0.29784971986E+04  0.29784971986E+04  0.00000000000E+00 0. -1.
         21   -1    0    0  503  502  0.00000000000E+00 -0.00000000000E+00 -0.29428238497E+02  0.29428238497E+02  0.00000000000E+00 0. -1.
         25    1    1    2    0    0  0.29519436044E-01 -0.20164203220E+03  0.85525778841E+03  0.88755303765E+03  0.12500000000E+03 0.  0.
         21    1    1    2  503  501  0.26638350303E+02 -0.32757325159E+02  0.62601761510E+02  0.75509102779E+02  0.00000000000E+00 0. -1.
          1    1    1    2  501    0 -0.26667869739E+02  0.23439935736E+03  0.20312094101E+04  0.20448632966E+04  0.00000000000E+00 0. -1.
<mgrwt>
<rscale>  4 0.25778132E+03</rscale>
<asrwt>0</asrwt>
<pdfrwt beam="1">  1       21 0.45274237E-02 0.25778132E+03</pdfrwt>
<pdfrwt beam="2">  1        1 0.45823010E+00 0.25778132E+03</pdfrwt>
<totfact> 0.26770903E+03</totfact>
</mgrwt>
</event>
<event>
 5    0  0.3040647E+000  0.2474072E+03  0.7546771E-02  0.1114954E+00
         21   -1    0    0  503  502  0.00000000000E+00  0.00000000000E+00  0.48102994161E+02  0.48102994161E+02  0.00000000000E+00 0.  1.
          3   -1    0    0  502    0 -0.00000000000E+00 -0.00000000000E+00 -0.12841991099E+04  0.12841991099E+04  0.00000000000E+00 0.  1.
         25    1    1    2    0    0 -0.20320993656E+03 -0.23587738626E+02 -0.72576028253E+03  0.76433215778E+03  0.12500000000E+03 0.  0.
         21    1    1    2  503  501  0.21368439103E+03  0.51094793152E+02 -0.44341570667E+03  0.49486279490E+03  0.00000000000E+00 0.  1.
          3    1    1    2  501    0 -0.10474454472E+02 -0.27507054526E+02 -0.66920126524E+02  0.73107151355E+02  0.00000000000E+00 0.  1.
<mgrwt>
<rscale>  4 0.24740720E+03</rscale>
<asrwt>0</asrwt>
<pdfrwt beam="1">  1       21 0.74004612E-02 0.24740720E+03</pdfrwt>
<pdfrwt beam="2">  1        3 0.19756908E+00 0.24740720E+03</pdfrwt>
<totfact> 0.11279457E+03</totfact>
</mgrwt>
</event>
<event>
 5    0  0.3040647E+000  0.3547638E+03  0.7546771E-02  0.1060677E+00
          1   -1    0    0  502    0 -0.00000000000E+00  0.00000000000E+00  0.14648414701E+04  0.14648414701E+04  0.00000000000E+00 0.  1.
         21   -1    0    0  503  502  0.00000000000E+00 -0.00000000000E+00 -0.18785795073E+03  0.18785795073E+03  0.00000000000E+00 0.  1.
         25    1    1    2    0    0  0.27322593938E+03 -0.23872984553E+03  0.27225929480E+03  0.47052574499E+03  0.12500000000E+03 0.  0.
         21    1    1    2  503  501 -0.48724777402E+02  0.41016432255E+01 -0.55128277753E+02  0.73688902951E+02  0.00000000000E+00 0.  1.
          1    1    1    2  501    0 -0.22450116198E+03  0.23462820230E+03  0.10598525024E+04  0.11084847729E+04  0.00000000000E+00 0.  1.
<mgrwt>
<rscale>  4 0.35476375E+03</rscale>
<asrwt>0</asrwt>
<pdfrwt beam="1">  1       21 0.28901224E-01 0.35476375E+03</pdfrwt>
<pdfrwt beam="2">  1        1 0.22536022E+00 0.35476375E+03</pdfrwt>
<totfact> 0.91151717E+02</totfact>
</mgrwt>
</event>
<event>
 5    0  0.3040647E+000  0.2277180E+03  0.7546771E-02  0.1128256E+00
          2   -1    0    0  502    0 -0.00000000000E+00  0.00000000000E+00  0.23480496409E+03  0.23480496409E+03  0.00000000000E+00 0.  1.
         21   -1    0    0  503  502  0.00000000000E+00 -0.00000000000E+00 -0.66278350716E+03  0.66278350716E+03  0.00000000000E+00 0.  1.
         25    1    1    2    0    0  0.18631576047E+03  0.12216912094E+03 -0.55423874377E+03  0.61028226405E+03  0.12500000000E+03 0.  0.
         21    1    1    2  503  501 -0.26969100865E+02 -0.22660522251E+02 -0.27380666544E+02  0.44615384909E+02  0.00000000000E+00 0. -1.
          2    1    1    2  501    0 -0.15934665961E+03 -0.99508598690E+02  0.15364086724E+03  0.24269082230E+03  0.00000000000E+00 0.  1.
<mgrwt>
<rscale>  4 0.22771803E+03</rscale>
<asrwt>0</asrwt>
<pdfrwt beam="1">  1       21 0.10196669E+00 0.22771803E+03</pdfrwt>
<pdfrwt beam="2">  1        2 0.36123840E-01 0.22771803E+03</pdfrwt>
<totfact> 0.13608017E+03</totfact>
</mgrwt>
</event>
<event>
 5    0  0.3040647E+000  0.3588103E+03  0.7546771E-02  0.1059056E+00
          2   -1    0    0  502    0 -0.00000000000E+00  0.00000000000E+00  0.12656038387E+04  0.12656038387E+04  0.00000000000E+00 0.  1.
         21   -1    0    0  503  502  0.00000000000E+00 -0.00000000000E+00 -0.16299277498E+03  0.16299277498E+03  0.00000000000E+00 0. -1.
         25    1    1    2    0    0  0.47032037807E+02 -0.31826626852E+03  0.24249948307E+03  0.42182511726E+03  0.12500000000E+03 0.  0.
         21    1    1    2  503  501 -0.52210388792E+02 -0.24395066481E+02 -0.21019915162E+02  0.61342324702E+02  0.00000000000E+00 0.  1.
          2    1    1    2  501    0  0.51783509851E+01  0.34266133500E+03  0.88113149586E+03  0.94542917177E+03  0.00000000000E+00 0.  1.
<mgrwt>
<rscale>  4 0.35881031E+03</rscale>
<asrwt>0</asrwt>
<pdfrwt beam="1">  1       21 0.25075812E-01 0.35881031E+03</pdfrwt>
<pdfrwt beam="2">  1        2 0.19470828E+00 0.35881031E+03</pdfrwt>
<totfact> 0.33350841E+03</totfact>
</mgrwt>
</event>
<event>
 5    0  0.3040647E+000  0.3023351E+03  0.7546771E-02  0.1084079E+00
         21   -1    0    0  503  502  0.00000000000E+00  0.00000000000E+00  0.42995325868E+02  0.42995325868E+02  0.00000000000E+00 0. -1.
          2   -1    0    0  502    0 -0.00000000000E+00 -0.00000000000E+00 -0.22205107473E+04  0.22205107473E+04  0.00000000000E+00 0.  1.
         25    1    1    2    0    0  0.13217017570E+03  0.21932222739E+03 -0.96896055611E+03  0.10099904723E+04  0.12500000000E+03 0.  0.
         21    1    1    2  503  501  0.20725265316E+02  0.30604040871E+02 -0.91652628368E+02  0.98824836083E+02  0.00000000000E+00 0. -1.
          2    1    1    2  501    0 -0.15289544101E+03 -0.24992626826E+03 -0.11169022369E+04  0.11546907648E+04  0.00000000000E+00 0.  1.
<mgrwt>
<rscale>  4 0.30233507E+03</rscale>
<asrwt>0</asrwt>
<pdfrwt beam="1">  1       21 0.66146626E-02 0.30233507E+03</pdfrwt>
<pdfrwt beam="2">  1        2 0.34161719E+00 0.30233507E+03</pdfrwt>
<totfact> 0.11858903E+04</totfact>
</mgrwt>
</event>
<event>
 5    0  0.3040647E+000  0.4378359E+03  0.7546771E-02  0.1031413E+00
         -1   -1    0    0    0  501 -0.00000000000E+00  0.00000000000E+00  0.39280628722E+03  0.39280628722E+03  0.00000000000E+00 0. -1.
         21   -1    0    0  501  502  0.00000000000E+00 -0.00000000000E+00 -0.70961875827E+03  0.70961875827E+03  0.00000000000E+00 0.  1.
         25    1    1    2    0    0  0.69890359317E+01  0.41297285871E+03 -0.20121748621E+03  0.47613958606E+03  0.12500000000E+03 0.  0.
         21    1    1    2  503  502  0.36669885790E+02  0.83551034772E+01 -0.19218714152E+03  0.19583254490E+03  0.00000000000E+00 0. -1.
         -1    1    1    2    0  503 -0.43658921722E+02 -0.42132796219E+03  0.76592156678E+02  0.43045291454E+03  0.00000000000E+00 0. -1.
<mgrwt>
<rscale>  4 0.43783586E+03</rscale>
<asrwt>0</asrwt>
<pdfrwt beam="1">  1       21 0.10917212E+00 0.43783586E+03</pdfrwt>
<pdfrwt beam="2">  1       -1 0.60431737E-01 0.43783586E+03</pdfrwt>
<totfact> 0.15928560E+02</totfact>
</mgrwt>
</event>
<event>
 5    0  0.3040647E+000  0.3219972E+03  0.7546771E-02  0.1074734E+00
         21   -1    0    0  503  502  0.00000000000E+00  0.00000000000E+00  0.15136916235E+03  0.15136916235E+03  0.00000000000E+00 0.  1.
          1   -1    0    0  502    0 -0.00000000000E+00 -0.00000000000E+00 -0.90606871433E+03  0.90606871433E+03  0.00000000000E+00 0.  1.
         25    1    1    2    0    0 -0.30283326143E+03  0.56988376284E+02 -0.16234818515E+03  0.37005079716E+03  0.12500000000E+03 0.  0.
         21    1    1    2  503  501  0.18369616692E+02  0.13743953142E+02  0.36239633609E+01  0.23226540332E+02  0.00000000000E+00 0.  1.
          1    1    1    2  501    0  0.28446364474E+03 -0.70732329426E+02 -0.59597533020E+03  0.66416053918E+03  0.00000000000E+00 0.  1.
<mgrwt>
<rscale>  4 0.32199719E+03</rscale>
<asrwt>0</asrwt>
<pdfrwt beam="1">  1       21 0.23287563E-01 0.32199719E+03</pdfrwt>
<pdfrwt beam="2">  1        1 0.13939519E+00 0.32199719E+03</pdfrwt>
<totfact> 0.35201625E+03</totfact>
</mgrwt>
</event>
<event>
 5    0  0.3040647E+000  0.4544737E+03  0.7546771E-02  0.1026396E+00
         21   -1    0    0  503  502  0.00000000000E+00  0.00000000000E+00  0.53747942414E+03  0.53747942414E+03  0.00000000000E+00 0.  1.
          2   -1    0    0  502    0 -0.00000000000E+00 -0.00000000000E+00 -0.22526488228E+04  0.22526488228E+04  0.00000000000E+00 0. -1.
         25    1    1    2    0    0  0.37381076605E+03  0.18787154978E+03  0.28815549840E+03  0.52315274948E+03  0.12500000000E+03 0.  0.
         21    1    1    2  503  501  0.37426250227E+00  0.39883122616E+02  0.10568140153E+03  0.11295734669E+03  0.00000000000E+00 0.  1.
          2    1    1    2  501    0 -0.37418502855E+03 -0.22775467239E+03 -0.21090062986E+04  0.21540181508E+04  0.00000000000E+00 0. -1.
<mgrwt>
<rscale>  4 0.45447371E+03</rscale>
<asrwt>0</asrwt>
<pdfrwt beam="1">  1       21 0.82689143E-01 0.45447371E+03</pdfrwt>
<pdfrwt beam="2">  1        2 0.34656135E+00 0.45447371E+03</pdfrwt>
<totfact> 0.76424488E+01</totfact>
</mgrwt>
</event>
<event>
 5    0  0.3040647E+000  0.2885470E+03  0.7546771E-02  0.1091110E+00
          2   -1    0    0  502    0 -0.00000000000E+00  0.00000000000E+00  0.42976692341E+03  0.42976692341E+03  0.00000000000E+00 0.  1.
         21   -1    0    0  503  502  0.00000000000E+00 -0.00000000000E+00 -0.42812658570E+03  0.42812658570E+03  0.00000000000E+00 0.  1.
         25    1    1    2    0    0  0.18806976653E+03  0.11617453838E+03 -0.15059537430E+03  0.29524689195E+03  0.12500000000E+03 0.  0.
         21    1    1    2  503  501  0.54615511832E+02  0.55818002543E+00 -0.14893469707E+03  0.15863388569E+03  0.00000000000E+00 0.  1.
          2    1    1    2  501    0 -0.24268527836E+03 -0.11673271840E+03  0.30117040909E+03  0.40401273147E+03  0.00000000000E+00 0.  1.
<mgrwt>
<rscale>  4 0.28854705E+03</rscale>
<asrwt>0</asrwt>
<pdfrwt beam="1">  1       21 0.65865628E-01 0.28854705E+03</pdfrwt>
<pdfrwt beam="2">  1        2 0.66117988E-01 0.28854705E+03</pdfrwt>
<totfact> 0.18807780E+03</totfact>
</mgrwt>
</event>
<event>
 5    0  0.3040647E+000  0.2113248E+03  0.7546771E-02  0.1140521E+00
         21   -1    0    0  503  502  0.00000000000E+00  0.00000000000E+00  0.10950599742E+03  0.10950599742E+03  0.00000000000E+00 0. -1.
          2   -1    0    0  502    0 -0.00000000000E+00 -0.00000000000E+00 -0.36387597925E+04  0.36387597925E+04  0.00000000000E+00 0. -1.
         25    1    1    2    0    0 -0.80224998837E+02  0.22092965889E+03 -0.27006360922E+03  0.37921671592E+03  0.12500000000E+03 0.  0.
         21    1    1    2  503  501  0.81179501901E+02 -0.52559684071E+02  0.84466866305E+01  0.97077177718E+02  0.00000000000E+00 0. -1.
          2    1    1    2  501    0 -0.95450306407E+00 -0.16836997481E+03 -0.32676368725E+04  0.32719718963E+04  0.00000000000E+00 0. -1.
<mgrwt>
<rscale>  4 0.21132475E+03</rscale>
<asrwt>0</asrwt>
<pdfrwt beam="1">  1       21 0.16847076E-01 0.21132475E+03</pdfrwt>
<pdfrwt beam="2">  1        2 0.55980923E+00 0.21132475E+03</pdfrwt>
<totfact> 0.33954016E+02</totfact>
</mgrwt>
</event>
<event>
 5    0  0.3040647E+000  0.2588200E+03  0.7546771E-02  0.1107854E+00
         21   -1    0    0  503  502  0.00000000000E+00  0.00000000000E+00  0.11644929948E+03  0.11644929948E+03  0.00000000000E+00 0.  1.
          2   -1    0    0  502    0 -0.00000000000E+00 -0.00000000000E+00 -0.85117207749E+03  0.85117207749E+03  0.00000000000E+00 0.  1.
         25    1    1    2    0    0 -0.20509427424E+03 -0.38467239021E+02 -0.95962743908E+02  0.26149041669E+03  0.12500000000E+03 0.  0.
         21    1    1    2  503  501 -0.20290297848E+02 -0.12319544921E+02  0.31164404073E+01  0.23941169032E+02  0.00000000000E+00 0.  1.
          2    1    1    2  501    0  0.22538457209E+03  0.50786783942E+02 -0.64187647451E+03  0.68218979125E+03  0.00000000000E+00 0.  1.
<mgrwt>
<rscale>  4 0.25881998E+03</rscale>
<asrwt>0</asrwt>
<pdfrwt beam="1">  1       21 0.17915277E-01 0.25881998E+03</pdfrwt>
<pdfrwt beam="2">  1        2 0.13094955E+00 0.25881998E+03</pdfrwt>
<totfact> 0.11549765E+04</totfact>
</mgrwt>
</event>
<event>
 5    0  0.3040647E+000  0.3537107E+03  0.7546771E-02  0.1061102E+00
         21   -1    0    0  503  502  0.00000000000E+00  0.00000000000E+00  0.12072021952E+04  0.12072021952E+04  0.00000000000E+00 0.  1.
          1   -1    0    0  502    0 -0.00000000000E+00 -0.00000000000E+00 -0.12592855774E+03  0.12592855774E+03  0.00000000000E+00 0.  1.
         25    1    1    2    0    0 -0.10565883785E+03  0.29192175368E+03  0.49546868492E+03  0.59790995812E+03  0.12500000000E+03 0.  0.
         21    1    1    2  503  501  0.11049785056E+02  0.41569772591E+02  0.24623242585E+03  0.24996109954E+03  0.00000000000E+00 0. -1.
          1    1    1    2  501    0  0.94609052794E+02 -0.33349152628E+03  0.33957252665E+03  0.48525969524E+03  0.00000000000E+00 0.  1.
<mgrwt>
<rscale>  4 0.35371072E+03</rscale>
<asrwt>0</asrwt>
<pdfrwt beam="1">  1       21 0.18572341E+00 0.35371072E+03</pdfrwt>
<pdfrwt beam="2">  1        1 0.19373625E-01 0.35371072E+03</pdfrwt>
<totfact> 0.43863369E+02</totfact>
</mgrwt>
</event>
<event>
 5    0  0.3040647E+000  0.5541009E+03  0.7546771E-02  0.1000549E+00
         21   -1    0    0  503  502  0.00000000000E+00  0.00000000000E+00  0.24470700303E+03  0.24470700303E+03  0.00000000000E+00 0.  1.
          2   -1    0    0  502    0 -0.00000000000E+00 -0.00000000000E+00 -0.35797409360E+04  0.35797409360E+04  0.00000000000E+00 0.  1.
         25    1    1    2    0    0 -0.19334428163E+03 -0.48707024805E+03 -0.13366345098E+03  0.55507689188E+03  0.12500000000E+03 0.  0.
         21    1    1    2  503  501 -0.19287625801E+02 -0.10975524208E+02  0.33145084377E+00  0.22194244757E+02  0.00000000000E+00 0.  1.
          2    1    1    2  501    0  0.21263190743E+03  0.49804577226E+03 -0.32017019328E+04  0.32471768024E+04  0.00000000000E+00 0.  1.
<mgrwt>
<rscale>  4 0.55410094E+03</rscale>
<asrwt>0</asrwt>
<pdfrwt beam="1">  1       21 0.37647234E-01 0.55410094E+03</pdfrwt>
<pdfrwt beam="2">  1        2 0.55072933E+00 0.55410094E+03</pdfrwt>
<totfact> 0.64561976E+01</totfact>
</mgrwt>
</event>
<event>
 5    0  0.3040647E+000  0.3564513E+03  0.7546771E-02  0.1059998E+00
          2   -1    0    0  502    0 -0.00000000000E+00  0.00000000000E+00  0.12179536801E+04  0.12179536801E+04  0.00000000000E+00 0.  1.
         21   -1    0    0  503  502  0.00000000000E+00 -0.00000000000E+00 -0.74442649128E+03  0.74442649128E+03  0.00000000000E+00 0.  1.
         25    1    1    2    0    0 -0.18951942683E+03 -0.33109054075E+03 -0.59975965559E+03  0.72171684461E+03  0.12500000000E+03 0.  0.
         21    1    1    2  503  501  0.27611239753E+02  0.41153496905E+02 -0.49351297585E+02  0.69939555629E+02  0.00000000000E+00 0.  1.
          2    1    1    2  501    0  0.16190818707E+03  0.28993704385E+03  0.11226381420E+04  0.11707237712E+04  0.00000000000E+00 0.  1.
<mgrwt>
<rscale>  4 0.35645135E+03</rscale>
<asrwt>0</asrwt>
<pdfrwt beam="1">  1       21 0.11452715E+00 0.35645135E+03</pdfrwt>
<pdfrwt beam="2">  1        2 0.18737749E+00 0.35645135E+03</pdfrwt>
<totfact> 0.13278722E+02</totfact>
</mgrwt>
</event>
<event>
 5    0  0.3040647E+000  0.2127519E+03  0.7546771E-02  0.1139405E+00
         21   -1    0    0  503  502  0.00000000000E+00  0.00000000000E+00  0.18356851412E+04  0.18356851412E+04  0.00000000000E+00 0.  1.
          3   -1    0    0  502    0 -0.00000000000E+00 -0.00000000000E+00 -0.32904061951E+03  0.32904061951E+03  0.00000000000E+00 0. -1.
         25    1    1    2    0    0 -0.97049170758E+02 -0.28810784111E+03  0.11536388932E+04  0.11995550698E+04  0.12500000000E+03 0.  0.
         21    1    1    2  503  501 -0.13361462471E+02  0.15901773315E+03  0.62469185292E+03  0.64475195171E+03  0.00000000000E+00 0.  1.
          3    1    1    2  501    0  0.11041063323E+03  0.12909010795E+03 -0.27168622440E+03  0.32041873920E+03  0.00000000000E+00 0. -1.
<mgrwt>
<rscale>  4 0.21275185E+03</rscale>
<asrwt>0</asrwt>
<pdfrwt beam="1">  1       21 0.28241309E+00 0.21275185E+03</pdfrwt>
<pdfrwt beam="2">  1        3 0.50621635E-01 0.21275185E+03</pdfrwt>
<totfact> 0.81308054E+00</totfact>
</mgrwt>
</event>
<event>
 5    0  0.3040647E+000  0.4053721E+03  0.7546771E-02  0.1041935E+00
         21   -1    0    0  503  502  0.00000000000E+00  0.00000000000E+00  0.17027571761E+03  0.17027571761E+03  0.00000000000E+00 0.  1.
          1   -1    0    0  502    0 -0.00000000000E+00 -0.00000000000E+00 -0.12767586397E+04  0.12767586397E+04  0.00000000000E+00 0.  1.
         25    1    1    2    0    0  0.40127214750E+03  0.19040016409E+02 -0.23766881171E+03  0.48321146783E+03  0.12500000000E+03 0.  0.
         21    1    1    2  503  501 -0.21013389437E+02 -0.10266901524E+02 -0.11802330667E+02  0.26196694671E+02  0.00000000000E+00 0. -1.
          1    1    1    2  501    0 -0.38025875806E+03 -0.87731148851E+01 -0.85701177973E+03  0.93762619483E+03  0.00000000000E+00 0.  1.
<mgrwt>
<rscale>  4 0.40537215E+03</rscale>
<asrwt>0</asrwt>
<pdfrwt beam="1">  1       21 0.26196264E-01 0.40537215E+03</pdfrwt>
<pdfrwt beam="2">  1        1 0.19642441E+00 0.40537215E+03</pdfrwt>
<totfact> 0.14637322E+03</totfact>
</mgrwt>
</event>
<event>
 5    0  0.3040647E+000  0.2931055E+03  0.7546771E-02  0.1088739E+00
         21   -1    0    0  503  502  0.00000000000E+00  0.00000000000E+00  0.45561194198E+02  0.45561194198E+02  0.00000000000E+00 0.  1.
          1   -1    0    0  502    0 -0.00000000000E+00 -0.00000000000E+00 -0.21210934193E+04  0.21210934193E+04  0.00000000000E+00 0. -1.
         25    1    1    2    0    0 -0.25826897376E+03 -0.59857949198E+02 -0.66288097112E+03  0.72479101730E+03  0.12500000000E+03 0.  0.
         21    1    1    2  503  501  0.40742403702E+02  0.53679249080E+02 -0.24458192687E+03  0.25369612570E+03  0.00000000000E+00 0.  1.
          1    1    1    2  501    0  0.21752657006E+03  0.61787001179E+01 -0.11680693271E+04  0.11881674705E+04  0.00000000000E+00 0. -1.
<mgrwt>
<rscale>  4 0.29310550E+03</rscale>
<asrwt>0</asrwt>
<pdfrwt beam="1">  1       21 0.70094141E-02 0.29310550E+03</pdfrwt>
<pdfrwt beam="2">  1        1 0.32632208E+00 0.29310550E+03</pdfrwt>
<totfact> 0.46799009E+03</totfact>
</mgrwt>
</event>
<event>
 5    0  0.3040647E+000  0.3004862E+03  0.7546771E-02  0.1084998E+00
          2   -1    0    0  502    0 -0.00000000000E+00  0.00000000000E+00  0.77464202377E+03  0.77464202377E+03  0.00000000000E+00 0. -1.
         21   -1    0    0  503  502  0.00000000000E+00 -0.00000000000E+00 -0.22390089975E+03  0.22390089975E+03  0.00000000000E+00 0. -1.
         25    1    1    2    0    0 -0.26813923899E+03  0.18028324468E+03  0.24195540041E+03  0.42257320737E+03  0.12500000000E+03 0.  0.
         21    1    1    2  503  501  0.10216529468E+03  0.13166921624E+02 -0.66278331801E+02  0.12249054057E+03  0.00000000000E+00 0. -1.
          2    1    1    2  501    0  0.16597394431E+03 -0.19345016631E+03  0.37506405541E+03  0.45347917559E+03  0.00000000000E+00 0. -1.
<mgrwt>
<rscale>  4 0.30048623E+03</rscale>
<asrwt>0</asrwt>
<pdfrwt beam="1">  1       21 0.34446293E-01 0.30048623E+03</pdfrwt>
<pdfrwt beam="2">  1        2 0.11917569E+00 0.30048623E+03</pdfrwt>
<totfact> 0.36614063E+03</totfact>
</mgrwt>
</event>
<event>
 5    0  0.3040647E+000  0.2539548E+03  0.7546771E-02  0.1110831E+00
         -4   -1    0    0    0  501 -0.00000000000E+00  0.00000000000E+00  0.23777892199E+03  0.23777892199E+03  0.00000000000E+00 0.  1.
         21   -1    0    0  501  502  0.00000000000E+00 -0.00000000000E+00 -0.34589491211E+03  0.34589491211E+03  0.00000000000E+00 0. -1.
         25    1    1    2    0    0 -0.17454384080E+03 -0.11676537425E+03 -0.19031744762E+03  0.30975060267E+03  0.12500000000E+03 0.  0.
         21    1    1    2  503  502 -0.32106350704E+01 -0.20156671341E+02 -0.18904209581E+02  0.27820293258E+02  0.00000000000E+00 0. -1.
         -4    1    1    2    0  503  0.17775447587E+03  0.13692204559E+03  0.10110566708E+03  0.24610293817E+03  0.00000000000E+00 0.  1.
<mgrwt>
<rscale>  4 0.25395482E+03</rscale>
<asrwt>0</asrwt>
<pdfrwt beam="1">  1       21 0.53214602E-01 0.25395482E+03</pdfrwt>
<pdfrwt beam="2">  1       -4 0.36581373E-01 0.25395482E+03</pdfrwt>
<totfact> 0.10186838E+03</totfact>
</mgrwt>
</event>
<event>
 5    0  0.3040647E+000  0.4073844E+03  0.7546771E-02  0.1041252E+00
          2   -1    0    0  502    0 -0.00000000000E+00  0.00000000000E+00  0.89940030426E+03  0.89940030426E+03  0.00000000000E+00 0. -1.
         21   -1    0    0  503  502  0.00000000000E+00 -0.00000000000E+00 -0.20014332381E+03  0.20014332381E+03  0.00000000000E+00 0. -1.
         25    1    1    2    0    0  0.36235393566E+03  0.13188782588E+03  0.44132174458E+03  0.59923672746E+03  0.12500000000E+03 0.  0.
         21    1    1    2  503  501 -0.57217599906E+01  0.28775712266E+02 -0.39165362394E+01  0.29599314349E+02  0.00000000000E+00 0. -1.
          2    1    1    2  501    0 -0.35663217567E+03 -0.16066353815E+03  0.26185177211E+03  0.47070758626E+03  0.00000000000E+00 0. -1.
<mgrwt>
<rscale>  4 0.40738441E+03</rscale>
<asrwt>0</asrwt>
<pdfrwt beam="1">  1       21 0.30791281E-01 0.40738441E+03</pdfrwt>
<pdfrwt beam="2">  1        2 0.13836927E+00 0.40738441E+03</pdfrwt>
<totfact> 0.36709382E+03</totfact>
</mgrwt>
</event>
<event>
 5    0  0.3040647E+000  0.2611981E+03  0.7546771E-02  0.1106426E+00
         21   -1    0    0  503  502  0.00000000000E+00  0.00000000000E+00  0.42378611944E+03  0.42378611944E+03  0.00000000000E+00 0. -1.
          2   -1    0    0  502    0 -0.00000000000E+00 -0.00000000000E+00 -0.21255716929E+04  0.21255716929E+04  0.00000000000E+00 0. -1.
         25    1    1    2    0    0  0.20423163941E+03 -0.49203425108E+02 -0.32741081082E+02  0.24663438116E+03  0.12500000000E+03 0.  0.
         21    1    1    2  503  501  0.20280143253E+02 -0.32239654485E+01  0.30980692163E+03  0.31048672572E+03  0.00000000000E+00 0. -1.
          2    1    1    2  501    0 -0.22451178267E+03  0.52427390557E+02 -0.19788514140E+04  0.19922367054E+04  0.00000000000E+00 0. -1.
<mgrwt>
<rscale>  4 0.26119805E+03</rscale>
<asrwt>0</asrwt>
<pdfrwt beam="1">  1       21 0.65197864E-01 0.26119805E+03</pdfrwt>
<pdfrwt beam="2">  1        2 0.32701103E+00 0.26119805E+03</pdfrwt>
<totfact> 0.16969168E+02</totfact>
</mgrwt>
</event>
<event>
 5    0  0.3040647E+000  0.3354992E+03  0.7546771E-02  0.1068729E+00
          1   -1    0    0  502    0 -0.00000000000E+00  0.00000000000E+00  0.41954958974E+03  0.41954958974E+03  0.00000000000E+00 0. -1.
         21   -1    0    0  503  502  0.00000000000E+00 -0.00000000000E+00 -0.83475903053E+03  0.83475903053E+03  0.00000000000E+00 0. -1.
         25    1    1    2    0    0  0.12020505038E+03  0.29558096651E+03 -0.66144068814E+03  0.74494707586E+03  0.12500000000E+03 0.  0.
         21    1    1    2  503  501  0.38072371242E+02 -0.27964485558E+02 -0.57698784821E+02  0.74569884500E+02  0.00000000000E+00 0.  1.
          1    1    1    2  501    0 -0.15827742163E+03 -0.26761648096E+03  0.30393003217E+03  0.43479165992E+03  0.00000000000E+00 0. -1.
<mgrwt>
<rscale>  4 0.33549916E+03</rscale>
<asrwt>0</asrwt>
<pdfrwt beam="1">  1       21 0.12842447E+00 0.33549916E+03</pdfrwt>
<pdfrwt beam="2">  1        1 0.64546091E-01 0.33549916E+03</pdfrwt>
<totfact> 0.25848690E+02</totfact>
</mgrwt>
</event>
<event>
 5    0  0.3040647E+000  0.2643558E+03  0.7546771E-02  0.1104554E+00
          1   -1    0    0  502    0 -0.00000000000E+00  0.00000000000E+00  0.21235104765E+04  0.21235104765E+04  0.00000000000E+00 0.  1.
         21   -1    0    0  503  502  0.00000000000E+00 -0.00000000000E+00 -0.47894718528E+03  0.47894718528E+03  0.00000000000E+00 0. -1.
         25    1    1    2    0    0 -0.14193122058E+03 -0.33366605716E+03  0.59168897617E+02  0.38807662584E+03  0.12500000000E+03 0.  0.
         21    1    1    2  503  501  0.24300979594E+02  0.13875783246E+03 -0.29148780259E+03  0.32374281882E+03  0.00000000000E+00 0. -1.
          1    1    1    2  501    0  0.11763024099E+03  0.19490822470E+03  0.18768821962E+04  0.18906382171E+04  0.00000000000E+00 0.  1.
<mgrwt>
<rscale>  4 0.26435580E+03</rscale>
<asrwt>0</asrwt>
<pdfrwt beam="1">  1       21 0.73684183E-01 0.26435580E+03</pdfrwt>
<pdfrwt beam="2">  1        1 0.32669392E+00 0.26435580E+03</pdfrwt>
<totfact> 0.49885403E+01</totfact>
</mgrwt>
</event>
<event>
 5    0  0.3040647E+000  0.2145919E+03  0.7546771E-02  0.1137980E+00
         21   -1    0    0  503  502  0.00000000000E+00  0.00000000000E+00  0.13324660766E+03  0.13324660766E+03  0.00000000000E+00 0.  1.
          2   -1    0    0  502    0 -0.00000000000E+00 -0.00000000000E+00 -0.20231502071E+04  0.20231502071E+04  0.00000000000E+00 0.  1.
         25    1    1    2    0    0  0.14941434649E+03  0.16373712031E+03 -0.26209443157E+02  0.25582499177E+03  0.12500000000E+03 0.  0.
         21    1    1    2  503  501 -0.28202283748E+02 -0.40632430805E+02 -0.28140137904E+02  0.56905453191E+02  0.00000000000E+00 0.  1.
          2    1    1    2  501    0 -0.12121206274E+03 -0.12310468951E+03 -0.18355540184E+04  0.18436663698E+04  0.00000000000E+00 0.  1.
<mgrwt>
<rscale>  4 0.21459187E+03</rscale>
<asrwt>0</asrwt>
<pdfrwt beam="1">  1       21 0.20499480E-01 0.21459187E+03</pdfrwt>
<pdfrwt beam="2">  1        2 0.31125385E+00 0.21459187E+03</pdfrwt>
<totfact> 0.20388727E+03</totfact>
</mgrwt>
</event>
<event>
 5    0  0.3040647E+000  0.2925101E+03  0.7546771E-02  0.1089046E+00
         21   -1    0    0  503  502  0.00000000000E+00  0.00000000000E+00  0.16212319054E+03  0.16212319054E+03  0.00000000000E+00 0. -1.
          2   -1    0    0  502    0 -0.00000000000E+00 -0.00000000000E+00 -0.66994467185E+03  0.66994467185E+03  0.00000000000E+00 0. -1.
         25    1    1    2    0    0  0.65501085657E+02  0.22306200992E+03 -0.11146292386E+03  0.28652405813E+03  0.12500000000E+03 0.  0.
         21    1    1    2  503  501  0.25574001243E+02  0.42194106241E+02  0.11407716200E+02  0.50640972837E+02  0.00000000000E+00 0. -1.
          2    1    1    2  501    0 -0.91075086900E+02 -0.26525611616E+03 -0.40776627365E+03  0.49490283142E+03  0.00000000000E+00 0. -1.
<mgrwt>
<rscale>  4 0.29251011E+03</rscale>
<asrwt>0</asrwt>
<pdfrwt beam="1">  1       21 0.24942030E-01 0.29251011E+03</pdfrwt>
<pdfrwt beam="2">  1        2 0.10306841E+00 0.29251011E+03</pdfrwt>
<totfact> 0.82748787E+03</totfact>
</mgrwt>
</event>
<event>
 5    0  0.3040647E+000  0.3078838E+03  0.7546771E-02  0.1081365E+00
          2   -1    0    0  502    0 -0.00000000000E+00  0.00000000000E+00  0.63992294232E+03  0.63992294232E+03  0.00000000000E+00 0.  1.
         21   -1    0    0  503  502  0.00000000000E+00 -0.00000000000E+00 -0.60301193463E+03  0.60301193463E+03  0.00000000000E+00 0. -1.
         25    1    1    2    0    0  0.32806146595E+02  0.25267826429E+03 -0.37523267669E+03  0.47047540866E+03  0.12500000000E+03 0.  0.
         21    1    1    2  503  501 -0.26421049145E+02  0.30869160932E+02 -0.14321666369E+03  0.14886903537E+03  0.00000000000E+00 0. -1.
          2    1    1    2  501    0 -0.63850974498E+01 -0.28354742523E+03  0.55536034806E+03  0.62359043291E+03  0.00000000000E+00 0.  1.
<mgrwt>
<rscale>  4 0.30788376E+03</rscale>
<asrwt>0</asrwt>
<pdfrwt beam="1">  1       21 0.92771066E-01 0.30788376E+03</pdfrwt>
<pdfrwt beam="2">  1        2 0.98449684E-01 0.30788376E+03</pdfrwt>
<totfact> 0.54328540E+02</totfact>
</mgrwt>
</event>
<event>
 5    0  0.3040647E+000  0.1996003E+03  0.7546771E-02  0.1150077E+00
         21   -1    0    0  501  502  0.00000000000E+00  0.00000000000E+00  0.82461494234E+02  0.82461494234E+02  0.00000000000E+00 0. -1.
         -1   -1    0    0    0  501 -0.00000000000E+00 -0.00000000000E+00 -0.20544341914E+04  0.20544341914E+04  0.00000000000E+00 0. -1.
         25    1    1    2    0    0 -0.15904763711E+03  0.13229563253E+03 -0.12749699262E+03  0.27327416340E+03  0.12500000000E+03 0.  0.
         21    1    1    2  503  502  0.38286488721E+02 -0.37960771085E+02 -0.11116032535E+03  0.12354551102E+03  0.00000000000E+00 0.  1.
         -1    1    1    2    0  503  0.12076114839E+03 -0.94334861446E+02 -0.17333153792E+04  0.17400760113E+04  0.00000000000E+00 0. -1.
<mgrwt>
<rscale>  4 0.19960035E+03</rscale>
<asrwt>0</asrwt>
<pdfrwt beam="1">  1       21 0.12686385E-01 0.19960035E+03</pdfrwt>
<pdfrwt beam="2">  1       -1 0.31606676E+00 0.19960035E+03</pdfrwt>
<totfact> 0.15651122E+02</totfact>
</mgrwt>
</event>
<event>
 5    0  0.3040647E+000  0.2647284E+03  0.7546771E-02  0.1104335E+00
          2   -1    0    0  502    0 -0.00000000000E+00  0.00000000000E+00  0.15415941778E+04  0.15415941778E+04  0.00000000000E+00 0. -1.
         21   -1    0    0  503  502  0.00000000000E+00 -0.00000000000E+00 -0.10572697912E+03  0.10572697912E+03  0.00000000000E+00 0.  1.
         25    1    1    2    0    0 -0.17469000298E+03  0.13460300081E+03  0.20223837935E+03  0.32428371382E+03  0.12500000000E+03 0.  0.
         21    1    1    2  503  501 -0.27492641634E+02 -0.13099874991E+02 -0.26896858271E+02  0.40631183267E+02  0.00000000000E+00 0.  1.
          2    1    1    2  501    0  0.20218264461E+03 -0.12150312582E+03  0.12605256776E+04  0.12824062598E+04  0.00000000000E+00 0. -1.
<mgrwt>
<rscale>  4 0.26472841E+03</rscale>
<asrwt>0</asrwt>
<pdfrwt beam="1">  1       21 0.16265690E-01 0.26472841E+03</pdfrwt>
<pdfrwt beam="2">  1        2 0.23716832E+00 0.26472841E+03</pdfrwt>
<totfact> 0.54874398E+03</totfact>
</mgrwt>
</event>
<event>
 5    0  0.3040647E+000  0.3486996E+03  0.7546771E-02  0.1063150E+00
         21   -1    0    0  503  502  0.00000000000E+00  0.00000000000E+00  0.88411953609E+03  0.88411953609E+03  0.00000000000E+00 0. -1.
          2   -1    0    0  502    0 -0.00000000000E+00 -0.00000000000E+00 -0.10506939630E+04  0.10506939630E+04  0.00000000000E+00 0.  1.
         25    1    1    2    0    0  0.10308238232E+03  0.33143714752E+03 -0.72887074142E+03  0.81691744871E+03  0.12500000000E+03 0.  0.
         21    1    1    2  503  501 -0.25051853749E+02 -0.53487730878E+02  0.76364244149E+03  0.76592317577E+03  0.00000000000E+00 0. -1.
          2    1    1    2  501    0 -0.78030528574E+02 -0.27794941665E+03 -0.20134612695E+03  0.35197287458E+03  0.00000000000E+00 0.  1.
<mgrwt>
<rscale>  4 0.34869960E+03</rscale>
<asrwt>0</asrwt>
<pdfrwt beam="1">  1       21 0.13601839E+00 0.34869960E+03</pdfrwt>
<pdfrwt beam="2">  1        2 0.16164523E+00 0.34869960E+03</pdfrwt>
<totfact> 0.10789612E+02</totfact>
</mgrwt>
</event>
<event>
 5    0  0.3040647E+000  0.2434418E+03  0.7546771E-02  0.1117521E+00
          1   -1    0    0  502    0 -0.00000000000E+00  0.00000000000E+00  0.25049012373E+04  0.25049012373E+04  0.00000000000E+00 0.  1.
         21   -1    0    0  503  502  0.00000000000E+00 -0.00000000000E+00 -0.27056796059E+03  0.27056796059E+03  0.00000000000E+00 0. -1.
         25    1    1    2    0    0 -0.21359618997E+03 -0.15878742817E+03  0.54577251542E+03  0.61994307667E+03  0.12500000000E+03 0.  0.
         21    1    1    2  503  501  0.17898518973E+03  0.99221467804E+02 -0.18788547746E+03  0.27781567713E+03  0.00000000000E+00 0. -1.
          1    1    1    2  501    0  0.34611000241E+02  0.59565960364E+02  0.18764462388E+04  0.18777104441E+04  0.00000000000E+00 0.  1.
<mgrwt>
<rscale>  4 0.24344176E+03</rscale>
<asrwt>0</asrwt>
<pdfrwt beam="1">  1       21 0.41625842E-01 0.24344176E+03</pdfrwt>
<pdfrwt beam="2">  1        1 0.38536941E+00 0.24344176E+03</pdfrwt>
<totfact> 0.96500442E+01</totfact>
</mgrwt>
</event>
<event>
 5    0  0.3040647E+000  0.3704449E+03  0.7546771E-02  0.1054523E+00
         21   -1    0    0  503  502  0.00000000000E+00  0.00000000000E+00  0.71119492512E+03  0.71119492512E+03  0.00000000000E+00 0. -1.
          1   -1    0    0  502    0 -0.00000000000E+00 -0.00000000000E+00 -0.29763026350E+03  0.29763026350E+03  0.00000000000E+00 0. -1.
         25    1    1    2    0    0  0.30973037275E+03 -0.11753656894E+03 -0.10011882143E+03  0.36796267100E+03  0.12500000000E+03 0.  0.
         21    1    1    2  503  501  0.17781487343E+02 -0.13780298923E+02  0.72719562036E+01  0.23642319632E+02  0.00000000000E+00 0.  1.
          1    1    1    2  501    0 -0.32751186010E+03  0.13131686786E+03  0.50641152685E+03  0.61722019800E+03  0.00000000000E+00 0. -1.
<mgrwt>
<rscale>  4 0.37044492E+03</rscale>
<asrwt>0</asrwt>
<pdfrwt beam="1">  1       21 0.10941460E+00 0.37044492E+03</pdfrwt>
<pdfrwt beam="2">  1        1 0.45789272E-01 0.37044492E+03</pdfrwt>
<totfact> 0.59384391E+02</totfact>
</mgrwt>
</event>
<event>
 5    0  0.3040647E+000  0.2273350E+03  0.7546771E-02  0.1128530E+00
         -4   -1    0    0    0  501 -0.00000000000E+00  0.00000000000E+00  0.13931728324E+04  0.13931728324E+04  0.00000000000E+00 0.  1.
         21   -1    0    0  501  502  0.00000000000E+00 -0.00000000000E+00 -0.81967484901E+02  0.81967484901E+02  0.00000000000E+00 0.  1.
         25    1    1    2    0    0 -0.49226153136E+02 -0.19645173036E+03  0.13497606723E+03  0.27360561990E+03  0.12500000000E+03 0.  0.
         21    1    1    2  503  502  0.71641475054E+01  0.15813379767E+03  0.53882679091E+03  0.56159766166E+03  0.00000000000E+00 0.  1.
         -4    1    1    2    0  503  0.42062005631E+02  0.38317932686E+02  0.63740248932E+03  0.63993703571E+03  0.00000000000E+00 0.  1.
<mgrwt>
<rscale>  4 0.22733499E+03</rscale>
<asrwt>0</asrwt>
<pdfrwt beam="1">  1       21 0.12610383E-01 0.22733499E+03</pdfrwt>
<pdfrwt beam="2">  1       -4 0.21433426E+00 0.22733499E+03</pdfrwt>
<totfact> 0.26565091E+02</totfact>
</mgrwt>
</event>
<event>
 5    0  0.3040647E+000  0.4685993E+03  0.7546771E-02  0.1022925E+00
         21   -1    0    0  503  502  0.00000000000E+00  0.00000000000E+00  0.12216247570E+03  0.12216247570E+03  0.00000000000E+00 0.  1.
          2   -1    0    0  502    0 -0.00000000000E+00 -0.00000000000E+00 -0.17996490638E+04  0.17996490638E+04  0.00000000000E+00 0.  1.
         25    1    1    2    0    0  0.42150955691E+03 -0.13559706073E+03 -0.69785888795E+03  0.83587612535E+03  0.12500000000E+03 0.  0.
         21    1    1    2  503  501 -0.34754585902E+03  0.13957754644E+03 -0.67002940457E+03  0.76759977760E+03  0.00000000000E+00 0.  1.
          2    1    1    2  501    0 -0.73963697887E+02 -0.39804857086E+01 -0.30959829552E+03  0.31833563650E+03  0.00000000000E+00 0.  1.
<mgrwt>
<rscale>  4 0.46645707E+03</rscale>
<asrwt>0</asrwt>
<pdfrwt beam="1">  1       21 0.18794229E-01 0.46859929E+03</pdfrwt>
<pdfrwt beam="2">  1        2 0.27686906E+00 0.46859929E+03</pdfrwt>
<totfact> 0.28831879E+03</totfact>
</mgrwt>
</event>
<event>
 5    0  0.3040647E+000  0.2647235E+03  0.7546771E-02  0.1104338E+00
         21   -1    0    0  503  502  0.00000000000E+00  0.00000000000E+00  0.25904354556E+02  0.25904354556E+02  0.00000000000E+00 0. -1.
          2   -1    0    0  502    0 -0.00000000000E+00 -0.00000000000E+00 -0.40082543859E+04  0.40082543859E+04  0.00000000000E+00 0. -1.
         25    1    1    2    0    0  0.40947540139E+01  0.20503510918E+03 -0.10807196906E+04  0.11070845554E+04  0.12500000000E+03 0.  0.
         21    1    1    2  503  501  0.14927952319E+02  0.88322442922E+02 -0.57254282990E+03  0.57950754072E+03  0.00000000000E+00 0. -1.
          2    1    1    2  501    0 -0.19022706333E+02 -0.29335755210E+03 -0.23290875108E+04  0.23475666443E+04  0.00000000000E+00 0. -1.
<mgrwt>
<rscale>  4 0.26472345E+03</rscale>
<asrwt>0</asrwt>
<pdfrwt beam="1">  1       21 0.39852884E-02 0.26472345E+03</pdfrwt>
<pdfrwt beam="2">  1        2 0.61665404E+00 0.26472345E+03</pdfrwt>
<totfact> 0.22211717E+03</totfact>
</mgrwt>
</event>
<event>
 5    0  0.3040647E+000  0.3277866E+03  0.7546771E-02  0.1072120E+00
          2   -1    0    0  502    0 -0.00000000000E+00  0.00000000000E+00  0.14126432132E+04  0.14126432132E+04  0.00000000000E+00 0. -1.
         21   -1    0    0  503  502  0.00000000000E+00 -0.00000000000E+00 -0.81200018541E+02  0.81200018541E+02  0.00000000000E+00 0. -1.
         25    1    1    2    0    0  0.72132383795E+02  0.29251468978E+03  0.50899539390E+03  0.60454051605E+03  0.12500000000E+03 0.  0.
         21    1    1    2  503  501  0.24539240698E+02 -0.38667561792E+01  0.22972862817E+02  0.33836054193E+02  0.00000000000E+00 0. -1.
          2    1    1    2  501    0 -0.96671624492E+02 -0.28864793360E+03  0.79947493797E+03  0.85546666153E+03  0.00000000000E+00 0. -1.
<mgrwt>
<rscale>  4 0.32778657E+03</rscale>
<asrwt>0</asrwt>
<pdfrwt beam="1">  1       21 0.12492312E-01 0.32778657E+03</pdfrwt>
<pdfrwt beam="2">  1        2 0.21732971E+00 0.32778657E+03</pdfrwt>
<totfact> 0.10265634E+04</totfact>
</mgrwt>
</event>
<event>
 5    0  0.3040647E+000  0.2872618E+03  0.7546771E-02  0.1091787E+00
         21   -1    0    0  503  502  0.00000000000E+00  0.00000000000E+00  0.32765519665E+03  0.32765519665E+03  0.00000000000E+00 0.  1.
          1   -1    0    0  502    0 -0.00000000000E+00 -0.00000000000E+00 -0.76089063822E+03  0.76089063822E+03  0.00000000000E+00 0.  1.
         25    1    1    2    0    0 -0.23276967126E+03  0.65257042375E+02 -0.24472628866E+03  0.36600021557E+03  0.12500000000E+03 0.  0.
         21    1    1    2  503  501 -0.25716262077E+02  0.12082953291E+02  0.22609918459E+03  0.22787752229E+03  0.00000000000E+00 0.  1.
          1    1    1    2  501    0  0.25848593334E+03 -0.77339995667E+02 -0.41460833751E+03  0.49466809700E+03  0.00000000000E+00 0.  1.
<mgrwt>
<rscale>  4 0.28726183E+03</rscale>
<asrwt>0</asrwt>
<pdfrwt beam="1">  1       21 0.50408492E-01 0.28726183E+03</pdfrwt>
<pdfrwt beam="2">  1        1 0.11706010E+00 0.28726183E+03</pdfrwt>
<totfact> 0.99634207E+02</totfact>
</mgrwt>
</event>
<event>
 5    0  0.3040647E+000  0.2767915E+03  0.7546771E-02  0.1097454E+00
         21   -1    0    0  503  502  0.00000000000E+00  0.00000000000E+00  0.16939668237E+03  0.16939668237E+03  0.00000000000E+00 0.  1.
          4   -1    0    0  502    0 -0.00000000000E+00 -0.00000000000E+00 -0.54642351416E+03  0.54642351416E+03  0.00000000000E+00 0.  1.
         25    1    1    2    0    0 -0.14024889284E+03  0.21558434997E+03 -0.22532394490E+03  0.36406351649E+03  0.12500000000E+03 0.  0.
         21    1    1    2  503  501 -0.27495571452E+02 -0.43736971120E+02  0.21200262943E+02  0.55842459124E+02  0.00000000000E+00 0.  1.
          4    1    1    2  501    0  0.16774446429E+03 -0.17184737885E+03 -0.17290314983E+03  0.29591422092E+03  0.00000000000E+00 0.  1.
<mgrwt>
<rscale>  4 0.27679152E+03</rscale>
<asrwt>0</asrwt>
<pdfrwt beam="1">  1       21 0.26061029E-01 0.27679152E+03</pdfrwt>
<pdfrwt beam="2">  1        4 0.84065154E-01 0.27679152E+03</pdfrwt>
<totfact> 0.74694498E+02</totfact>
</mgrwt>
</event>
<event>
 5    0  0.3040647E+000  0.2898505E+03  0.7546771E-02  0.1090427E+00
          1   -1    0    0  502    0 -0.00000000000E+00  0.00000000000E+00  0.20878669707E+04  0.20878669707E+04  0.00000000000E+00 0.  1.
         21   -1    0    0  503  502  0.00000000000E+00 -0.00000000000E+00 -0.14652303330E+03  0.14652303330E+03  0.00000000000E+00 0.  1.
         25    1    1    2    0    0  0.24834768309E+03  0.84782097002E+02  0.19323996449E+04  0.19541386755E+04  0.12500000000E+03 0.  0.
         21    1    1    2  503  501 -0.26304351375E+01 -0.27451585680E+02  0.41590688027E+01  0.27889184259E+02  0.00000000000E+00 0. -1.
          1    1    1    2  501    0 -0.24571724795E+03 -0.57330511323E+02  0.47852237309E+01  0.25236214422E+03  0.00000000000E+00 0.  1.
<mgrwt>
<rscale>  4 0.28985054E+03</rscale>
<asrwt>0</asrwt>
<pdfrwt beam="1">  1       21 0.22542007E-01 0.28985054E+03</pdfrwt>
<pdfrwt beam="2">  1        1 0.32121028E+00 0.28985054E+03</pdfrwt>
<totfact> 0.58997870E+02</totfact>
</mgrwt>
</event>
<event>
 5    0  0.3040647E+000  0.2605266E+03  0.7546771E-02  0.1106827E+00
         21   -1    0    0  501  502  0.00000000000E+00  0.00000000000E+00  0.35693444538E+03  0.35693444538E+03  0.00000000000E+00 0.  1.
         -1   -1    0    0    0  501 -0.00000000000E+00 -0.00000000000E+00 -0.24102144255E+03  0.24102144255E+03  0.00000000000E+00 0.  1.
         25    1    1    2    0    0 -0.65154643180E+02 -0.23663459292E+03  0.16691366592E+03  0.32206556780E+03  0.12500000000E+03 0.  0.
         21    1    1    2  503  502 -0.94178874404E+01  0.26175803419E+02  0.27592627159E+02  0.39181913710E+02  0.00000000000E+00 0. -1.
         -1    1    1    2    0  503  0.74572530620E+02  0.21045878950E+03 -0.78593290246E+02  0.23670840643E+03  0.00000000000E+00 0.  1.
<mgrwt>
<rscale>  4 0.26052663E+03</rscale>
<asrwt>0</asrwt>
<pdfrwt beam="1">  1       21 0.54912992E-01 0.26052663E+03</pdfrwt>
<pdfrwt beam="2">  1       -1 0.37080222E-01 0.26052663E+03</pdfrwt>
<totfact> 0.19906273E+03</totfact>
</mgrwt>
</event>
<event>
 5    0  0.3040647E+000  0.2433221E+03  0.7546771E-02  0.1117599E+00
          2   -1    0    0  502    0 -0.00000000000E+00  0.00000000000E+00  0.27864209594E+03  0.27864209594E+03  0.00000000000E+00 0.  1.
         21   -1    0    0  503  502  0.00000000000E+00 -0.00000000000E+00 -0.32569183477E+03  0.32569183477E+03  0.00000000000E+00 0.  1.
         25    1    1    2    0    0  0.14502104829E+02 -0.21227434736E+03 -0.21046793334E+03  0.32433387205E+03  0.12500000000E+03 0.  0.
         21    1    1    2  503  501  0.16744634916E+02  0.20039132318E+02  0.55533071414E+00  0.26120069195E+02  0.00000000000E+00 0. -1.
          2    1    1    2  501    0 -0.31246739745E+02  0.19223521504E+03  0.16286286380E+03  0.25387998947E+03  0.00000000000E+00 0.  1.
<mgrwt>
<rscale>  4 0.24332211E+03</rscale>
<asrwt>0</asrwt>
<pdfrwt beam="1">  1       21 0.50106436E-01 0.24332211E+03</pdfrwt>
<pdfrwt beam="2">  1        2 0.42868015E-01 0.24332211E+03</pdfrwt>
<totfact> 0.54911589E+03</totfact>
</mgrwt>
</event>
<event>
 5    0  0.3040647E+000  0.2417185E+03  0.7546771E-02  0.1118653E+00
          2   -1    0    0  502    0 -0.00000000000E+00  0.00000000000E+00  0.14414142235E+04  0.14414142235E+04  0.00000000000E+00 0.  1.
         21   -1    0    0  503  502  0.00000000000E+00 -0.00000000000E+00 -0.14236792370E+03  0.14236792370E+03  0.00000000000E+00 0.  1.
         25    1    1    2    0    0  0.18326336393E+03 -0.14101835496E+03  0.12829599673E+03  0.29250042696E+03  0.12500000000E+03 0.  0.
         21    1    1    2  503  501 -0.33464886899E+02  0.18746780613E+01 -0.46310813672E+02  0.57167338017E+02  0.00000000000E+00 0.  1.
          2    1    1    2  501    0 -0.14979847703E+03  0.13914367690E+03  0.12170611168E+04  0.12341143823E+04  0.00000000000E+00 0.  1.
<mgrwt>
<rscale>  4 0.24171853E+03</rscale>
<asrwt>0</asrwt>
<pdfrwt beam="1">  1       21 0.21902758E-01 0.24171853E+03</pdfrwt>
<pdfrwt beam="2">  1        2 0.22175602E+00 0.24171853E+03</pdfrwt>
<totfact> 0.35900050E+03</totfact>
</mgrwt>
</event>
<event>
 5    0  0.3040647E+000  0.2595224E+03  0.7546771E-02  0.1107431E+00
         21   -1    0    0  503  502  0.00000000000E+00  0.00000000000E+00  0.44059829483E+03  0.44059829483E+03  0.00000000000E+00 0. -1.
          4   -1    0    0  502    0 -0.00000000000E+00 -0.00000000000E+00 -0.33150512518E+03  0.33150512518E+03  0.00000000000E+00 0. -1.
         25    1    1    2    0    0 -0.25172566230E+03  0.15126548342E+03  0.33253620660E+02  0.32090163418E+03  0.12500000000E+03 0.  0.
         21    1    1    2  503  501  0.19185930629E+03 -0.80430463101E+02  0.20508173110E+03  0.29212594756E+03  0.00000000000E+00 0. -1.
          4    1    1    2  501    0  0.59866356008E+02 -0.70835020319E+02 -0.12924218211E+03  0.15907583827E+03  0.00000000000E+00 0. -1.
<mgrwt>
<rscale>  4 0.25952239E+03</rscale>
<asrwt>0</asrwt>
<pdfrwt beam="1">  1       21 0.67784352E-01 0.25952239E+03</pdfrwt>
<pdfrwt beam="2">  1        4 0.51000789E-01 0.25952239E+03</pdfrwt>
<totfact> 0.30861970E+02</totfact>
</mgrwt>
</event>
<event>
 5    0  0.3040647E+000  0.2306602E+03  0.7546771E-02  0.1126176E+00
         21   -1    0    0  503  502  0.00000000000E+00  0.00000000000E+00  0.47021063140E+03  0.47021063140E+03  0.00000000000E+00 0.  1.
          2   -1    0    0  502    0 -0.00000000000E+00 -0.00000000000E+00 -0.20919316041E+03  0.20919316041E+03  0.00000000000E+00 0.  1.
         25    1    1    2    0    0  0.22221210108E+03 -0.56766415708E+02  0.31254037091E+03  0.40731698623E+03  0.12500000000E+03 0.  0.
         21    1    1    2  503  501 -0.44033203022E+02 -0.38828531567E+01  0.42824193503E+02  0.61546007719E+02  0.00000000000E+00 0.  1.
          2    1    1    2  501    0 -0.17817889806E+03  0.60649268865E+02 -0.94347093427E+02  0.21054079787E+03  0.00000000000E+00 0.  1.
<mgrwt>
<rscale>  4 0.23066023E+03</rscale>
<asrwt>0</asrwt>
<pdfrwt beam="1">  1       21 0.72340097E-01 0.23066023E+03</pdfrwt>
<pdfrwt beam="2">  1        2 0.32183563E-01 0.23066023E+03</pdfrwt>
<totfact> 0.34022420E+03</totfact>
</mgrwt>
</event>
<event>
 5    0  0.3040647E+000  0.2303308E+03  0.7546771E-02  0.1126407E+00
         21   -1    0    0  503  502  0.00000000000E+00  0.00000000000E+00  0.86516160443E+02  0.86516160443E+02  0.00000000000E+00 0. -1.
          1   -1    0    0  502    0 -0.00000000000E+00 -0.00000000000E+00 -0.95798861123E+03  0.95798861123E+03  0.00000000000E+00 0. -1.
         25    1    1    2    0    0 -0.21518002881E+03 -0.22977770939E+02 -0.29128399830E+03  0.38379915375E+03  0.12500000000E+03 0.  0.
         21    1    1    2  503  501  0.56170164525E+02 -0.83369929188E+02 -0.91590396660E+02  0.13599423972E+03  0.00000000000E+00 0. -1.
          1    1    1    2  501    0  0.15900986428E+03  0.10634770013E+03 -0.48859805583E+03  0.52471137821E+03  0.00000000000E+00 0. -1.
<mgrwt>
<rscale>  4 0.23033078E+03</rscale>
<asrwt>0</asrwt>
<pdfrwt beam="1">  1       21 0.13310180E-01 0.23033078E+03</pdfrwt>
<pdfrwt beam="2">  1        1 0.14738285E+00 0.23033078E+03</pdfrwt>
<totfact> 0.93128457E+03</totfact>
</mgrwt>
</event>
<event>
 5    0  0.3040647E+000  0.4126608E+03  0.7546771E-02  0.1039482E+00
          1   -1    0    0  502    0 -0.00000000000E+00  0.00000000000E+00  0.20662747051E+04  0.20662747051E+04  0.00000000000E+00 0.  1.
         21   -1    0    0  503  502  0.00000000000E+00 -0.00000000000E+00 -0.90154103848E+02  0.90154103848E+02  0.00000000000E+00 0.  1.
         25    1    1    2    0    0 -0.38511791603E+03  0.13092196378E+03  0.96186333468E+03  0.10517901143E+04  0.12500000000E+03 0.  0.
         21    1    1    2  503  501  0.22548349389E+02 -0.82479725771E+01  0.40487154379E+01  0.24348494995E+02  0.00000000000E+00 0.  1.
          1    1    1    2  501    0  0.36256956664E+03 -0.12267399120E+03  0.10102085511E+04  0.10802901997E+04  0.00000000000E+00 0.  1.
<mgrwt>
<rscale>  4 0.41266075E+03</rscale>
<asrwt>0</asrwt>
<pdfrwt beam="1">  1       21 0.13869864E-01 0.41266075E+03</pdfrwt>
<pdfrwt beam="2">  1        1 0.31788838E+00 0.41266075E+03</pdfrwt>
<totfact> 0.14456273E+03</totfact>
</mgrwt>
</event>
<event>
 5    0  0.3040647E+000  0.1835351E+03  0.7546771E-02  0.1164425E+00
         21   -1    0    0  503  502  0.00000000000E+00  0.00000000000E+00  0.30451674856E+03  0.30451674856E+03  0.00000000000E+00 0.  1.
          2   -1    0    0  502    0 -0.00000000000E+00 -0.00000000000E+00 -0.25841031985E+04  0.25841031985E+04  0.00000000000E+00 0.  1.
         25    1    1    2    0    0 -0.23052706616E+03  0.14453910662E+02 -0.29923334628E+03  0.39814223500E+03  0.12500000000E+03 0.  0.
         21    1    1    2  503  501  0.11797659204E+03 -0.55699241639E+02  0.23665355362E+03  0.27023283706E+03  0.00000000000E+00 0.  1.
          2    1    1    2  501    0  0.11255047412E+03  0.41245330976E+02 -0.22170066572E+04  0.22202448750E+04  0.00000000000E+00 0.  1.
<mgrwt>
<rscale>  4 0.18353505E+03</rscale>
<asrwt>0</asrwt>
<pdfrwt beam="1">  1       21 0.46848730E-01 0.18353505E+03</pdfrwt>
<pdfrwt beam="2">  1        2 0.39755435E+00 0.18353505E+03</pdfrwt>
<totfact> 0.20774154E+02</totfact>
</mgrwt>
</event>
<event>
 5    0  0.3040647E+000  0.2960531E+03  0.7546771E-02  0.1087230E+00
         21   -1    0    0  503  502  0.00000000000E+00  0.00000000000E+00  0.31684956150E+03  0.31684956150E+03  0.00000000000E+00 0.  1.
          2   -1    0    0  502    0 -0.00000000000E+00 -0.00000000000E+00 -0.14901490746E+04  0.14901490746E+04  0.00000000000E+00 0. -1.
         25    1    1    2    0    0 -0.19180600833E+03  0.25871582221E+03 -0.21729525946E+03  0.40812455363E+03  0.12500000000E+03 0.  0.
         21    1    1    2  503  501  0.47280756037E+02 -0.42234640598E+02  0.20213559474E+03  0.21184436131E+03  0.00000000000E+00 0.  1.
          2    1    1    2  501    0  0.14452525229E+03 -0.21648118161E+03 -0.11581398483E+04  0.11870297211E+04  0.00000000000E+00 0. -1.
<mgrwt>
<rscale>  4 0.29605309E+03</rscale>
<asrwt>0</asrwt>
<pdfrwt beam="1">  1       21 0.48746085E-01 0.29605309E+03</pdfrwt>
<pdfrwt beam="2">  1        2 0.22925371E+00 0.29605309E+03</pdfrwt>
<totfact> 0.67274927E+02</totfact>
</mgrwt>
</event>
<event>
 5    0  0.3040647E+000  0.4608060E+03  0.7546771E-02  0.1024548E+00
          2   -1    0    0  502    0 -0.00000000000E+00  0.00000000000E+00  0.81117218672E+03  0.81117218672E+03  0.00000000000E+00 0. -1.
         21   -1    0    0  503  502  0.00000000000E+00 -0.00000000000E+00 -0.11505688279E+04  0.11505688279E+04  0.00000000000E+00 0. -1.
         25    1    1    2    0    0 -0.46112804667E+03 -0.57469474270E+02 -0.99559534493E+03  0.11057924338E+04  0.12500000000E+03 0.  0.
         21    1    1    2  503  501  0.21668580600E+02  0.81284086288E+01 -0.31043611824E+02  0.38720850290E+02  0.00000000000E+00 0. -1.
          2    1    1    2  501    0  0.43945946607E+03  0.49341065641E+02  0.68724231560E+03  0.81722773046E+03  0.00000000000E+00 0. -1.
<mgrwt>
<rscale>  4 0.46080597E+03</rscale>
<asrwt>0</asrwt>
<pdfrwt beam="1">  1       21 0.17701059E+00 0.46080597E+03</pdfrwt>
<pdfrwt beam="2">  1        2 0.12479572E+00 0.46080597E+03</pdfrwt>
<totfact> 0.71236921E+01</totfact>
</mgrwt>
</event>
<event>
 5    0  0.3040647E+000  0.2000169E+03  0.7546771E-02  0.1149725E+00
          1   -1    0    0  502    0 -0.00000000000E+00  0.00000000000E+00  0.22622224431E+04  0.22622224431E+04  0.00000000000E+00 0.  1.
         21   -1    0    0  503  502  0.00000000000E+00 -0.00000000000E+00 -0.68957143767E+02  0.68957143767E+02  0.00000000000E+00 0.  1.
         25    1    1    2    0    0 -0.19573291265E+03  0.10457471885E+03  0.49003551280E+03  0.55227443244E+03  0.12500000000E+03 0.  0.
         21    1    1    2  503  501  0.11897317404E+03 -0.72865020757E+02  0.95585062075E+02  0.16911662096E+03  0.00000000000E+00 0.  1.
          1    1    1    2  501    0  0.76759738606E+02 -0.31709698095E+02  0.16076447244E+04  0.16097885335E+04  0.00000000000E+00 0.  1.
<mgrwt>
<rscale>  4 0.20001690E+03</rscale>
<asrwt>0</asrwt>
<pdfrwt beam="1">  1       21 0.10608793E-01 0.20001690E+03</pdfrwt>
<pdfrwt beam="2">  1        1 0.34803416E+00 0.20001690E+03</pdfrwt>
<totfact> 0.19034677E+03</totfact>
</mgrwt>
</event>
<event>
 5    0  0.3040647E+000  0.1821734E+03  0.7546771E-02  0.1165716E+00
         21   -1    0    0  503  502  0.00000000000E+00  0.00000000000E+00  0.28950661736E+03  0.28950661736E+03  0.00000000000E+00 0.  1.
          2   -1    0    0  502    0 -0.00000000000E+00 -0.00000000000E+00 -0.13671947891E+04  0.13671947891E+04  0.00000000000E+00 0. -1.
         25    1    1    2    0    0 -0.82053745051E+02 -0.23128277441E+03 -0.71241505274E+03  0.76379627269E+03  0.12500000000E+03 0.  0.
         21    1    1    2  503  501  0.22503727912E+02  0.12812631286E+03  0.24163071468E+03  0.27442334466E+03  0.00000000000E+00 0.  1.
          2    1    1    2  501    0  0.59550017139E+02  0.10315646155E+03 -0.60690383367E+03  0.61848178908E+03  0.00000000000E+00 0. -1.
<mgrwt>
<rscale>  4 0.18217344E+03</rscale>
<asrwt>0</asrwt>
<pdfrwt beam="1">  1       21 0.44539480E-01 0.18217344E+03</pdfrwt>
<pdfrwt beam="2">  1        2 0.21033766E+00 0.18217344E+03</pdfrwt>
<totfact> 0.10069848E+03</totfact>
</mgrwt>
</event>
<event>
 5    0  0.3040647E+000  0.3893023E+03  0.7546771E-02  0.1047548E+00
         21   -1    0    0  503  502  0.00000000000E+00  0.00000000000E+00  0.30672540820E+03  0.30672540820E+03  0.00000000000E+00 0.  1.
          1   -1    0    0  502    0 -0.00000000000E+00 -0.00000000000E+00 -0.21001784116E+04  0.21001784116E+04  0.00000000000E+00 0.  1.
         25    1    1    2    0    0 -0.16535006627E+03  0.31878633895E+03  0.51740977535E+02  0.38375448281E+03  0.12500000000E+03 0.  0.
         21    1    1    2  503  501  0.17336562948E+02  0.19799853052E+02  0.68877764032E+02  0.73734232035E+02  0.00000000000E+00 0.  1.
          1    1    1    2  501    0  0.14801350333E+03 -0.33858619200E+03 -0.19140717449E+04  0.19494151049E+04  0.00000000000E+00 0.  1.
<mgrwt>
<rscale>  4 0.38930231E+03</rscale>
<asrwt>0</asrwt>
<pdfrwt beam="1">  1       21 0.47188524E-01 0.38930231E+03</pdfrwt>
<pdfrwt beam="2">  1        1 0.32310437E+00 0.38930231E+03</pdfrwt>
<totfact> 0.12647180E+02</totfact>
</mgrwt>
</event>
<event>
 5    0  0.3040647E+000  0.3139024E+03  0.7546771E-02  0.1078490E+00
          2   -1    0    0  502    0 -0.00000000000E+00  0.00000000000E+00  0.11367496309E+04  0.11367496309E+04  0.00000000000E+00 0. -1.
         21   -1    0    0  503  502  0.00000000000E+00 -0.00000000000E+00 -0.24986781354E+03  0.24986781354E+03  0.00000000000E+00 0. -1.
         25    1    1    2    0    0  0.35651619700E+02  0.32041459022E+03 -0.44412863496E+02  0.34861734044E+03  0.12500000000E+03 0.  0.
         21    1    1    2  503  501  0.17014967382E+02 -0.40962479343E+02 -0.17366150172E+02  0.47634199906E+02  0.00000000000E+00 0. -1.
          2    1    1    2  501    0 -0.52666587081E+02 -0.27945211087E+03  0.94866083105E+03  0.99036590412E+03  0.00000000000E+00 0. -1.
<mgrwt>
<rscale>  4 0.31390238E+03</rscale>
<asrwt>0</asrwt>
<pdfrwt beam="1">  1       21 0.38441203E-01 0.31390238E+03</pdfrwt>
<pdfrwt beam="2">  1        2 0.17488456E+00 0.31390238E+03</pdfrwt>
<totfact> 0.17181736E+03</totfact>
</mgrwt>
</event>
<event>
 5    0  0.3040647E+000  0.3591715E+03  0.7546771E-02  0.1058912E+00
         21   -1    0    0  503  502  0.00000000000E+00  0.00000000000E+00  0.34027819665E+03  0.34027819665E+03  0.00000000000E+00 0.  1.
          2   -1    0    0  502    0 -0.00000000000E+00 -0.00000000000E+00 -0.36828625976E+04  0.36828625976E+04  0.00000000000E+00 0. -1.
         25    1    1    2    0    0  0.24926004709E+03 -0.15690731257E+03  0.19096036604E+03  0.37261419351E+03  0.12500000000E+03 0.  0.
         21    1    1    2  503  501  0.31762294143E+02 -0.30742244168E+02  0.40853664905E+02  0.60190953156E+02  0.00000000000E+00 0. -1.
          2    1    1    2  501    0 -0.28102234123E+03  0.18764955674E+03 -0.35743984319E+04  0.35903356476E+04  0.00000000000E+00 0. -1.
<mgrwt>
<rscale>  4 0.35917148E+03</rscale>
<asrwt>0</asrwt>
<pdfrwt beam="1">  1       21 0.52350493E-01 0.35917148E+03</pdfrwt>
<pdfrwt beam="2">  1        2 0.56659423E+00 0.35917148E+03</pdfrwt>
<totfact> 0.30245686E+01</totfact>
</mgrwt>
</event>
<event>
 5    0  0.3040647E+000  0.2842203E+03  0.7546771E-02  0.1093406E+00
         21   -1    0    0  503  502  0.00000000000E+00  0.00000000000E+00  0.31763414987E+03  0.31763414987E+03  0.00000000000E+00 0.  1.
          2   -1    0    0  502    0 -0.00000000000E+00 -0.00000000000E+00 -0.63701547942E+03  0.63701547942E+03  0.00000000000E+00 0.  1.
         25    1    1    2    0    0 -0.88611849391E+02 -0.24200380467E+03 -0.50763569503E+03  0.58286953960E+03  0.12500000000E+03 0.  0.
         21    1    1    2  503  501  0.24112124348E+02  0.55238112664E+01  0.11255158074E+03  0.11523786425E+03  0.00000000000E+00 0. -1.
          2    1    1    2  501    0  0.64499725043E+02  0.23647999340E+03  0.75702784747E+02  0.25654222543E+03  0.00000000000E+00 0.  1.
<mgrwt>
<rscale>  4 0.28422026E+03</rscale>
<asrwt>0</asrwt>
<pdfrwt beam="1">  1       21 0.48866793E-01 0.28422026E+03</pdfrwt>
<pdfrwt beam="2">  1        2 0.98002380E-01 0.28422026E+03</pdfrwt>
<totfact> 0.22841809E+03</totfact>
</mgrwt>
</event>
<event>
 5    0  0.3040647E+000  0.2625297E+03  0.7546771E-02  0.1105633E+00
          2   -1    0    0  502    0 -0.00000000000E+00  0.00000000000E+00  0.59306209214E+03  0.59306209214E+03  0.00000000000E+00 0. -1.
         21   -1    0    0  503  502  0.00000000000E+00 -0.00000000000E+00 -0.88449813212E+03  0.88449813212E+03  0.00000000000E+00 0.  1.
         25    1    1    2    0    0 -0.90424090307E+02 -0.18068160261E+03 -0.85555836978E+02  0.25252160080E+03  0.12500000000E+03 0.  0.
         21    1    1    2  503  501 -0.53910556631E+02 -0.61253410103E+01 -0.68699142392E+03  0.68913067299E+03  0.00000000000E+00 0.  1.
          2    1    1    2  501    0  0.14433464694E+03  0.18680694362E+03  0.48111122091E+03  0.53590795047E+03  0.00000000000E+00 0. -1.
<mgrwt>
<rscale>  4 0.26252966E+03</rscale>
<asrwt>0</asrwt>
<pdfrwt beam="1">  1       21 0.13607663E+00 0.26252966E+03</pdfrwt>
<pdfrwt beam="2">  1        2 0.91240322E-01 0.26252966E+03</pdfrwt>
<totfact> 0.23607454E+02</totfact>
</mgrwt>
</event>
<event>
 5    0  0.3040647E+000  0.2553055E+03  0.7546771E-02  0.1109997E+00
         21   -1    0    0  501  502  0.00000000000E+00  0.00000000000E+00  0.13189891285E+04  0.13189891285E+04  0.00000000000E+00 0.  1.
         -1   -1    0    0    0  501 -0.00000000000E+00 -0.00000000000E+00 -0.12091536559E+04  0.12091536559E+04  0.00000000000E+00 0. -1.
         25    1    1    2    0    0  0.15805379589E+03 -0.14616517454E+03  0.98003314179E+03  0.10111553885E+04  0.12500000000E+03 0.  0.
         21    1    1    2  503  502  0.25701917527E+02  0.20330522946E+02  0.31214071117E+03  0.31385624464E+03  0.00000000000E+00 0.  1.
         -1    1    1    2    0  503 -0.18375571342E+03  0.12583465159E+03 -0.11823383803E+04  0.12031311513E+04  0.00000000000E+00 0. -1.
<mgrwt>
<rscale>  4 0.25530550E+03</rscale>
<asrwt>0</asrwt>
<pdfrwt beam="1">  1       21 0.20292140E+00 0.25530550E+03</pdfrwt>
<pdfrwt beam="2">  1       -1 0.18602364E+00 0.25530550E+03</pdfrwt>
<totfact> 0.23674090E+00</totfact>
</mgrwt>
</event>
<event>
 5    0  0.3040647E+000  0.2720339E+03  0.7546771E-02  0.1100121E+00
         21   -1    0    0  503  502  0.00000000000E+00  0.00000000000E+00  0.43935650556E+03  0.43935650556E+03  0.00000000000E+00 0. -1.
          3   -1    0    0  502    0 -0.00000000000E+00 -0.00000000000E+00 -0.73826663832E+03  0.73826663832E+03  0.00000000000E+00 0. -1.
         25    1    1    2    0    0  0.13456759726E+03  0.21854193422E+03  0.17492428702E+03  0.33480221241E+03  0.12500000000E+03 0.  0.
         21    1    1    2  503  501 -0.11386114490E+03 -0.19793698400E+03  0.11333321600E+03  0.25492710292E+03  0.00000000000E+00 0. -1.
          3    1    1    2  501    0 -0.20706452362E+02 -0.20604950219E+02 -0.58716763578E+03  0.58789382855E+03  0.00000000000E+00 0. -1.
<mgrwt>
<rscale>  4 0.27203390E+03</rscale>
<asrwt>0</asrwt>
<pdfrwt beam="1">  1       21 0.67593308E-01 0.27203390E+03</pdfrwt>
<pdfrwt beam="2">  1        3 0.11357948E+00 0.27203390E+03</pdfrwt>
<totfact> 0.64854584E+01</totfact>
</mgrwt>
</event>
<event>
 5    0  0.3040647E+000  0.2673317E+03  0.7546771E-02  0.1102817E+00
          2   -1    0    0  502    0 -0.00000000000E+00  0.00000000000E+00  0.21135496520E+04  0.21135496520E+04  0.00000000000E+00 0. -1.
         21   -1    0    0  503  502  0.00000000000E+00 -0.00000000000E+00 -0.31125213987E+03  0.31125213987E+03  0.00000000000E+00 0.  1.
         25    1    1    2    0    0  0.59643776351E+02  0.33723103070E+03  0.16450558503E+03  0.39996154269E+03  0.12500000000E+03 0.  0.
         21    1    1    2  503  501 -0.16330749960E+03 -0.12812422532E+03 -0.12788650238E+03  0.24380343318E+03  0.00000000000E+00 0.  1.
          2    1    1    2  501    0  0.10366372325E+03 -0.20910680539E+03  0.17656784294E+04  0.17810368160E+04  0.00000000000E+00 0. -1.
<mgrwt>
<rscale>  4 0.26733168E+03</rscale>
<asrwt>0</asrwt>
<pdfrwt beam="1">  1       21 0.47884946E-01 0.26733168E+03</pdfrwt>
<pdfrwt beam="2">  1        2 0.32516148E+00 0.26733168E+03</pdfrwt>
<totfact> 0.33191301E+02</totfact>
</mgrwt>
</event>
<event>
 5    0  0.3040647E+000  0.3298438E+03  0.7546771E-02  0.1071206E+00
          4   -1    0    0  502    0 -0.00000000000E+00  0.00000000000E+00  0.94969684685E+03  0.94969684685E+03  0.00000000000E+00 0. -1.
         21   -1    0    0  503  502  0.00000000000E+00 -0.00000000000E+00 -0.15899238317E+04  0.15899238317E+04  0.00000000000E+00 0.  1.
         25    1    1    2    0    0  0.12608411844E+03 -0.30910313073E+03 -0.93402429282E+03  0.99973412962E+03  0.12500000000E+03 0.  0.
         21    1    1    2  503  501  0.71762373356E+01  0.35299134186E+02 -0.59720263611E+03  0.59828798737E+03  0.00000000000E+00 0.  1.
          4    1    1    2  501    0 -0.13326035577E+03  0.27380399654E+03  0.89099994404E+03  0.94159856161E+03  0.00000000000E+00 0. -1.
<mgrwt>
<rscale>  4 0.32984378E+03</rscale>
<asrwt>0</asrwt>
<pdfrwt beam="1">  1       21 0.24460366E+00 0.32984378E+03</pdfrwt>
<pdfrwt beam="2">  1        4 0.14610721E+00 0.32984378E+03</pdfrwt>
<totfact> 0.91384149E-01</totfact>
</mgrwt>
</event>
<event>
 5    0  0.3040647E+000  0.2574045E+03  0.7546771E-02  0.1108713E+00
         21   -1    0    0  503  502  0.00000000000E+00  0.00000000000E+00  0.62484471221E+03  0.62484471221E+03  0.00000000000E+00 0. -1.
          2   -1    0    0  502    0 -0.00000000000E+00 -0.00000000000E+00 -0.27659542789E+04  0.27659542789E+04  0.00000000000E+00 0.  1.
         25    1    1    2    0    0 -0.23263546325E+01  0.24872506391E+03 -0.98731527370E+02  0.29536838666E+03  0.12500000000E+03 0.  0.
         21    1    1    2  503  501  0.21506664498E+02 -0.25656638767E+02  0.52110983094E+03  0.52218412043E+03  0.00000000000E+00 0. -1.
          2    1    1    2  501    0 -0.19180309865E+02 -0.22306842514E+03 -0.25634878703E+04  0.25732464841E+04  0.00000000000E+00 0.  1.
<mgrwt>
<rscale>  4 0.25740455E+03</rscale>
<asrwt>0</asrwt>
<pdfrwt beam="1">  1       21 0.96129954E-01 0.25740455E+03</pdfrwt>
<pdfrwt beam="2">  1        2 0.42553143E+00 0.25740455E+03</pdfrwt>
<totfact> 0.31473805E+01</totfact>
</mgrwt>
</event>
<event>
 5    0  0.3040647E+000  0.3551041E+03  0.7546771E-02  0.1060539E+00
          2   -1    0    0  502    0 -0.00000000000E+00  0.00000000000E+00  0.55662287232E+03  0.55662287232E+03  0.00000000000E+00 0.  1.
         21   -1    0    0  503  502  0.00000000000E+00 -0.00000000000E+00 -0.39746269551E+03  0.39746269551E+03  0.00000000000E+00 0.  1.
         25    1    1    2    0    0  0.34411514436E+03 -0.27339761766E+01  0.19584048062E+01  0.36613049935E+03  0.12500000000E+03 0.  0.
         21    1    1    2  503  501 -0.16765480512E+02  0.22055218948E+02 -0.14162028417E+03  0.14430460460E+03  0.00000000000E+00 0.  1.
          2    1    1    2  501    0 -0.32734966385E+03 -0.19321242772E+02  0.29882205618E+03  0.44365046388E+03  0.00000000000E+00 0.  1.
<mgrwt>
<rscale>  4 0.35510408E+03</rscale>
<asrwt>0</asrwt>
<pdfrwt beam="1">  1       21 0.61148107E-01 0.35510408E+03</pdfrwt>
<pdfrwt beam="2">  1        2 0.85634289E-01 0.35510408E+03</pdfrwt>
<totfact> 0.16223909E+03</totfact>
</mgrwt>
</event>
<event>
 5    0  0.3040647E+000  0.2846415E+03  0.7546771E-02  0.1093181E+00
         21   -1    0    0  503  502  0.00000000000E+00  0.00000000000E+00  0.22238791796E+03  0.22238791796E+03  0.00000000000E+00 0. -1.
          1   -1    0    0  502    0 -0.00000000000E+00 -0.00000000000E+00 -0.11879660284E+04  0.11879660284E+04  0.00000000000E+00 0. -1.
         25    1    1    2    0    0  0.10016895504E+03  0.27081094769E+03  0.57206278760E+02  0.31979672805E+03  0.12500000000E+03 0.  0.
         21    1    1    2  503  501 -0.12969762810E+02 -0.33282247677E+02  0.12336371413E+01  0.35741357254E+02  0.00000000000E+00 0. -1.
          1    1    1    2  501    0 -0.87199192227E+02 -0.23752870001E+03 -0.10240180264E+04  0.10548158611E+04  0.00000000000E+00 0. -1.
<mgrwt>
<rscale>  4 0.28464145E+03</rscale>
<asrwt>0</asrwt>
<pdfrwt beam="1">  1       21 0.34213526E-01 0.28464145E+03</pdfrwt>
<pdfrwt beam="2">  1        1 0.18276400E+00 0.28464145E+03</pdfrwt>
<totfact> 0.10370402E+03</totfact>
</mgrwt>
</event>
<event>
 5    0  0.3040647E+000  0.2261565E+03  0.7546771E-02  0.1129375E+00
         21   -1    0    0  503  502  0.00000000000E+00  0.00000000000E+00  0.14819515501E+04  0.14819515501E+04  0.00000000000E+00 0. -1.
          2   -1    0    0  502    0 -0.00000000000E+00 -0.00000000000E+00 -0.13944198187E+04  0.13944198187E+04  0.00000000000E+00 0. -1.
         25    1    1    2    0    0 -0.22623289353E+03 -0.47078981118E+02  0.11497484041E+04  0.11793829511E+04  0.12500000000E+03 0.  0.
         21    1    1    2  503  501  0.14356716665E+03 -0.37080048688E+02  0.29737284501E+03  0.33229064130E+03  0.00000000000E+00 0. -1.
          2    1    1    2  501    0  0.82665726889E+02  0.84159029806E+02 -0.13595895177E+04  0.13646977765E+04  0.00000000000E+00 0. -1.
<mgrwt>
<rscale>  4 0.22615645E+03</rscale>
<asrwt>0</asrwt>
<pdfrwt beam="1">  1       21 0.22799255E+00 0.22615645E+03</pdfrwt>
<pdfrwt beam="2">  1        2 0.21452613E+00 0.22615645E+03</pdfrwt>
<totfact> 0.17218526E+01</totfact>
</mgrwt>
</event>
<event>
 5    0  0.3040647E+000  0.2580929E+03  0.7546771E-02  0.1108294E+00
          1   -1    0    0  502    0 -0.00000000000E+00  0.00000000000E+00  0.14285755613E+04  0.14285755613E+04  0.00000000000E+00 0. -1.
         21   -1    0    0  503  502  0.00000000000E+00 -0.00000000000E+00 -0.16414717441E+03  0.16414717441E+03  0.00000000000E+00 0.  1.
         25    1    1    2    0    0  0.17169439530E+03 -0.11210040949E+03 -0.45813100772E+02  0.24447762144E+03  0.12500000000E+03 0.  0.
         21    1    1    2  503  501  0.18317067376E+01 -0.34759348086E+02  0.24510185889E+02  0.42571312421E+02  0.00000000000E+00 0.  1.
          1    1    1    2  501    0 -0.17352610204E+03  0.14685975757E+03  0.12857313018E+04  0.13056738018E+04  0.00000000000E+00 0. -1.
<mgrwt>
<rscale>  4 0.25809291E+03</rscale>
<asrwt>0</asrwt>
<pdfrwt beam="1">  1       21 0.25253412E-01 0.25809291E+03</pdfrwt>
<pdfrwt beam="2">  1        1 0.21978085E+00 0.25809291E+03</pdfrwt>
<totfact> 0.13014977E+03</totfact>
</mgrwt>
</event>
<event>
 5    0  0.3040647E+000  0.2690430E+03  0.7546771E-02  0.1101829E+00
         21   -1    0    0  503  502  0.00000000000E+00  0.00000000000E+00  0.21428323767E+03  0.21428323767E+03  0.00000000000E+00 0.  1.
          2   -1    0    0  502    0 -0.00000000000E+00 -0.00000000000E+00 -0.17854281043E+04  0.17854281043E+04  0.00000000000E+00 0.  1.
         25    1    1    2    0    0 -0.35506678530E+02  0.20501760910E+03 -0.26680083545E+03  0.36069464934E+03  0.12500000000E+03 0.  0.
         21    1    1    2  503  501 -0.25732137858E+02  0.32132443945E+02  0.15443054796E+03  0.15982312416E+03  0.00000000000E+00 0.  1.
          2    1    1    2  501    0  0.61238816389E+02 -0.23715005305E+03 -0.14587745791E+04  0.14791935684E+04  0.00000000000E+00 0.  1.
<mgrwt>
<rscale>  4 0.26904304E+03</rscale>
<asrwt>0</asrwt>
<pdfrwt beam="1">  1       21 0.32966652E-01 0.26904304E+03</pdfrwt>
<pdfrwt beam="2">  1        2 0.27468125E+00 0.26904304E+03</pdfrwt>
<totfact> 0.10549847E+03</totfact>
</mgrwt>
</event>
<event>
 5    0  0.3040647E+000  0.2957286E+03  0.7546771E-02  0.1087396E+00
         -4   -1    0    0    0  501 -0.00000000000E+00  0.00000000000E+00  0.18416470188E+03  0.18416470188E+03  0.00000000000E+00 0.  1.
         21   -1    0    0  501  502  0.00000000000E+00 -0.00000000000E+00 -0.70440642208E+03  0.70440642208E+03  0.00000000000E+00 0.  1.
         25    1    1    2    0    0 -0.12332704996E+03  0.21070668419E+03 -0.29843599858E+03  0.40533432283E+03  0.12500000000E+03 0.  0.
         21    1    1    2  503  502 -0.15253853808E+02  0.30477249640E+02 -0.20146961134E+03  0.20433195319E+03  0.00000000000E+00 0.  1.
         -4    1    1    2    0  503  0.13858090376E+03 -0.24118393383E+03 -0.20336110287E+02  0.27890484794E+03  0.00000000000E+00 0.  1.
<mgrwt>
<rscale>  4 0.29572861E+03</rscale>
<asrwt>0</asrwt>
<pdfrwt beam="1">  1       21 0.10837022E+00 0.29572861E+03</pdfrwt>
<pdfrwt beam="2">  1       -4 0.28333031E-01 0.29572861E+03</pdfrwt>
<totfact> 0.33174263E+02</totfact>
</mgrwt>
</event>
<event>
 5    0  0.3040647E+000  0.2426026E+03  0.7546771E-02  0.1118071E+00
          2   -1    0    0  502    0 -0.00000000000E+00  0.00000000000E+00  0.15678733225E+04  0.15678733225E+04  0.00000000000E+00 0. -1.
         21   -1    0    0  503  502  0.00000000000E+00 -0.00000000000E+00 -0.38723550406E+02  0.38723550406E+02  0.00000000000E+00 0. -1.
         25    1    1    2    0    0 -0.20722735336E+03 -0.16966672621E+02  0.11147281323E+04  0.11408220075E+04  0.12500000000E+03 0.  0.
         21    1    1    2  503  501  0.18016883244E+03  0.11984926774E+02  0.32003530653E+03  0.36746026191E+03  0.00000000000E+00 0. -1.
          2    1    1    2  501    0  0.27058520921E+02  0.49817458470E+01  0.94386333271E+02  0.98314603465E+02  0.00000000000E+00 0. -1.
<mgrwt>
<rscale>  4 0.24260265E+03</rscale>
<asrwt>0</asrwt>
<pdfrwt beam="1">  1       21 0.59574705E-02 0.24260265E+03</pdfrwt>
<pdfrwt beam="2">  1        2 0.24121123E+00 0.24260265E+03</pdfrwt>
<totfact> 0.31891638E+04</totfact>
</mgrwt>
</event>
<event>
 5    0  0.3040647E+000  0.2272166E+03  0.7546771E-02  0.1128614E+00
         21   -1    0    0  501  502  0.00000000000E+00  0.00000000000E+00  0.92064983398E+02  0.92064983398E+02  0.00000000000E+00 0.  1.
         -1   -1    0    0    0  501 -0.00000000000E+00 -0.00000000000E+00 -0.23132946761E+04  0.23132946761E+04  0.00000000000E+00 0. -1.
         25    1    1    2    0    0  0.16315458212E+03 -0.17202774976E+03 -0.18860088215E+03  0.32773198975E+03  0.12500000000E+03 0.  0.
         21    1    1    2  503  502 -0.54430282287E+02  0.19988212096E+02 -0.28155815447E+02  0.64458779046E+02  0.00000000000E+00 0.  1.
         -1    1    1    2    0  503 -0.10872429984E+03  0.15203953767E+03 -0.20044729951E+04  0.20131688907E+04  0.00000000000E+00 0. -1.
<mgrwt>
<rscale>  4 0.22721665E+03</rscale>
<asrwt>0</asrwt>
<pdfrwt beam="1">  1       21 0.14163845E-01 0.22721665E+03</pdfrwt>
<pdfrwt beam="2">  1       -1 0.35589144E+00 0.22721665E+03</pdfrwt>
<totfact> 0.70581488E+01</totfact>
</mgrwt>
</event>
<event>
 5    0  0.3040647E+000  0.1884696E+03  0.7546771E-02  0.1159849E+00
         21   -1    0    0  503  502  0.00000000000E+00  0.00000000000E+00  0.13652162010E+03  0.13652162010E+03  0.00000000000E+00 0.  1.
          2   -1    0    0  502    0 -0.00000000000E+00 -0.00000000000E+00 -0.25616452968E+04  0.25616452968E+04  0.00000000000E+00 0. -1.
         25    1    1    2    0    0  0.18660582471E+03 -0.14098886782E+03 -0.25827664680E+03  0.37017755327E+03  0.12500000000E+03 0.  0.
         21    1    1    2  503  501 -0.10088439329E+03  0.33148594591E+02  0.42479431275E+02  0.11437216538E+03  0.00000000000E+00 0.  1.
          2    1    1    2  501    0 -0.85721431425E+02  0.10784027323E+03 -0.22093264612E+04  0.22136171982E+04  0.00000000000E+00 0. -1.
<mgrwt>
<rscale>  4 0.18846960E+03</rscale>
<asrwt>0</asrwt>
<pdfrwt beam="1">  1       21 0.21003327E-01 0.18846960E+03</pdfrwt>
<pdfrwt beam="2">  1        2 0.39409925E+00 0.18846960E+03</pdfrwt>
<totfact> 0.10258962E+03</totfact>
</mgrwt>
</event>
<event>
 5    0  0.3040647E+000  0.3033217E+03  0.7546771E-02  0.1083592E+00
         21   -1    0    0  501  502  0.00000000000E+00  0.00000000000E+00  0.18361656020E+03  0.18361656020E+03  0.00000000000E+00 0. -1.
         -3   -1    0    0    0  501 -0.00000000000E+00 -0.00000000000E+00 -0.25049821965E+04  0.25049821965E+04  0.00000000000E+00 0. -1.
         25    1    1    2    0    0 -0.73629154561E+02  0.23612042667E+03 -0.10646683812E+03  0.29687420890E+03  0.12500000000E+03 0.  0.
         21    1    1    2  503  502  0.14656388545E+02  0.36608061828E+02  0.75081634054E+02  0.84806908257E+02  0.00000000000E+00 0. -1.
         -3    1    1    2    0  503  0.58972766016E+02 -0.27272848850E+03 -0.22899804322E+04  0.23069176395E+04  0.00000000000E+00 0. -1.
<mgrwt>
<rscale>  4 0.30332174E+03</rscale>
<asrwt>0</asrwt>
<pdfrwt beam="1">  1       21 0.28248703E-01 0.30332174E+03</pdfrwt>
<pdfrwt beam="2">  1       -3 0.38538186E+00 0.30332174E+03</pdfrwt>
<totfact> 0.87121607E+00</totfact>
</mgrwt>
</event>
<event>
 5    0  0.3040647E+000  0.3382348E+03  0.7546771E-02  0.1068925E+00
          1   -1    0    0  502    0 -0.00000000000E+00  0.00000000000E+00  0.70165491174E+03  0.70165491174E+03  0.00000000000E+00 0. -1.
         21   -1    0    0  503  502  0.00000000000E+00 -0.00000000000E+00 -0.16181071505E+03  0.16181071505E+03  0.00000000000E+00 0. -1.
         25    1    1    2    0    0 -0.27990398547E+03  0.10993472047E+03  0.19086988853E+03  0.37747608957E+03  0.12500000000E+03 0.  0.
         21    1    1    2  503  501  0.18164768539E+03 -0.15947816032E+02  0.11562256287E+03  0.21591385201E+03  0.00000000000E+00 0. -1.
          1    1    1    2  501    0  0.98256300073E+02 -0.93986904440E+02  0.23335174529E+03  0.27007568521E+03  0.00000000000E+00 0. -1.
<mgrwt>
<rscale>  4 0.33504724E+03</rscale>
<asrwt>0</asrwt>
<pdfrwt beam="1">  1       21 0.24893957E-01 0.33823477E+03</pdfrwt>
<pdfrwt beam="2">  1        1 0.10794691E+00 0.33823477E+03</pdfrwt>
<totfact> 0.45913111E+03</totfact>
</mgrwt>
</event>
<event>
 5    0  0.3040647E+000  0.2913173E+03  0.7546771E-02  0.1089663E+00
         -4   -1    0    0    0  501 -0.00000000000E+00  0.00000000000E+00  0.45763205065E+03  0.45763205065E+03  0.00000000000E+00 0. -1.
         21   -1    0    0  501  502  0.00000000000E+00 -0.00000000000E+00 -0.28767582064E+03  0.28767582064E+03  0.00000000000E+00 0. -1.
         25    1    1    2    0    0  0.14514447823E+03 -0.28826818437E+03  0.20302351189E+02  0.34670253986E+03  0.12500000000E+03 0.  0.
         21    1    1    2  503  502 -0.63906483786E+02  0.60450474228E+02 -0.34622466322E+02  0.94535779885E+02  0.00000000000E+00 0. -1.
         -4    1    1    2    0  503 -0.81237994445E+02  0.22781771014E+03  0.18427634514E+03  0.30406955154E+03  0.00000000000E+00 0. -1.
<mgrwt>
<rscale>  4 0.29131732E+03</rscale>
<asrwt>0</asrwt>
<pdfrwt beam="1">  1       21 0.44257818E-01 0.29131732E+03</pdfrwt>
<pdfrwt beam="2">  1       -4 0.70404931E-01 0.29131732E+03</pdfrwt>
<totfact> 0.38462594E+02</totfact>
</mgrwt>
</event>
<event>
 5    0  0.3088666E+000  0.2293351E+03  0.7546771E-02  0.1127109E+00
         21   -1    0    0  503  502  0.00000000000E+00  0.00000000000E+00  0.19228927280E+04  0.19228927280E+04  0.00000000000E+00 0. -1.
          1   -1    0    0  502    0 -0.00000000000E+00 -0.00000000000E+00 -0.38616587288E+03  0.38616587288E+03  0.00000000000E+00 0.  1.
         25    1    1    2    0    0 -0.24569119471E+03  0.59624710781E+02 -0.58264878717E+02  0.28799143283E+03  0.12500000000E+03 0.  0.
         21    1    1    2  503  501  0.18631479847E+03 -0.39796893559E+02  0.17982876372E+04  0.18083515761E+04  0.00000000000E+00 0. -1.
          1    1    1    2  501    0  0.59376396242E+02 -0.19827817222E+02 -0.20329590329E+03  0.21271559196E+03  0.00000000000E+00 0.  1.
<mgrwt>
<rscale>  4 0.22933514E+03</rscale>
<asrwt>0</asrwt>
<pdfrwt beam="1">  1       21 0.29582965E+00 0.22933514E+03</pdfrwt>
<pdfrwt beam="2">  1        1 0.59410135E-01 0.22933514E+03</pdfrwt>
<totfact> 0.24026388E+01</totfact>
</mgrwt>
</event>
<event>
 5    0  0.3040647E+000  0.2140139E+03  0.7546771E-02  0.1138426E+00
         21   -1    0    0  503  502  0.00000000000E+00  0.00000000000E+00  0.27376797237E+03  0.27376797237E+03  0.00000000000E+00 0. -1.
          2   -1    0    0  502    0 -0.00000000000E+00 -0.00000000000E+00 -0.30024623663E+04  0.30024623663E+04  0.00000000000E+00 0.  1.
         25    1    1    2    0    0  0.18783558096E+03 -0.11902098163E+03  0.17470828022E+03  0.30918632363E+03  0.12500000000E+03 0.  0.
         21    1    1    2  503  501 -0.30179728999E+02  0.47262289455E+02  0.23572325224E+01  0.56125721306E+02  0.00000000000E+00 0.  1.
          2    1    1    2  501    0 -0.15765585196E+03  0.71758692176E+02 -0.29057599066E+04  0.29109182937E+04  0.00000000000E+00 0.  1.
<mgrwt>
<rscale>  4 0.21401389E+03</rscale>
<asrwt>0</asrwt>
<pdfrwt beam="1">  1       21 0.42118151E-01 0.21401389E+03</pdfrwt>
<pdfrwt beam="2">  1        2 0.46191728E+00 0.21401389E+03</pdfrwt>
<totfact> 0.14540740E+02</totfact>
</mgrwt>
</event>
<event>
 5    0  0.3040647E+000  0.3083762E+03  0.7546771E-02  0.1081127E+00
         -1   -1    0    0    0  501 -0.00000000000E+00  0.00000000000E+00  0.92840345825E+03  0.92840345825E+03  0.00000000000E+00 0. -1.
         21   -1    0    0  501  502  0.00000000000E+00 -0.00000000000E+00 -0.59107181735E+03  0.59107181735E+03  0.00000000000E+00 0.  1.
         25    1    1    2    0    0  0.27594120208E+03 -0.87585064292E+02 -0.48355848307E+03  0.57729411658E+03  0.12500000000E+03 0.  0.
         21    1    1    2  503  502 -0.12055807287E+03  0.69238194851E+02  0.38441866468E+02  0.14424269014E+03  0.00000000000E+00 0.  1.
         -1    1    1    2    0  503 -0.15538312921E+03  0.18346869441E+02  0.78244825750E+03  0.79793846888E+03  0.00000000000E+00 0. -1.
<mgrwt>
<rscale>  4 0.30837624E+03</rscale>
<asrwt>0</asrwt>
<pdfrwt beam="1">  1       21 0.90934126E-01 0.30837624E+03</pdfrwt>
<pdfrwt beam="2">  1       -1 0.14283130E+00 0.30837624E+03</pdfrwt>
<totfact> 0.38668031E+01</totfact>
</mgrwt>
</event>
<event>
 5    0  0.3040647E+000  0.2845807E+03  0.7546771E-02  0.1093213E+00
          1   -1    0    0  502    0 -0.00000000000E+00  0.00000000000E+00  0.48966895817E+03  0.48966895817E+03  0.00000000000E+00 0. -1.
         21   -1    0    0  503  502  0.00000000000E+00 -0.00000000000E+00 -0.43403685560E+03  0.43403685560E+03  0.00000000000E+00 0. -1.
         25    1    1    2    0    0 -0.45641223514E+02 -0.23698199284E+03  0.16145530564E+03  0.31612719265E+03  0.12500000000E+03 0.  0.
         21    1    1    2  503  501 -0.21677912590E+02 -0.23801662478E+02 -0.28323912959E+03  0.28506289756E+03  0.00000000000E+00 0. -1.
          1    1    1    2  501    0  0.67319136104E+02  0.26078365531E+03  0.17741592652E+03  0.32251572357E+03  0.00000000000E+00 0. -1.
<mgrwt>
<rscale>  4 0.28458072E+03</rscale>
<asrwt>0</asrwt>
<pdfrwt beam="1">  1       21 0.66774901E-01 0.28458072E+03</pdfrwt>
<pdfrwt beam="2">  1        1 0.75333685E-01 0.28458072E+03</pdfrwt>
<totfact> 0.10126674E+03</totfact>
</mgrwt>
</event>
<event>
 5    0  0.3040647E+000  0.2656603E+03  0.7546771E-02  0.1103789E+00
          1   -1    0    0  502    0 -0.00000000000E+00  0.00000000000E+00  0.49714506430E+04  0.49714506430E+04  0.00000000000E+00 0. -1.
         21   -1    0    0  503  502  0.00000000000E+00 -0.00000000000E+00 -0.38713325802E+02  0.38713325802E+02  0.00000000000E+00 0. -1.
         25    1    1    2    0    0  0.22059669280E+03 -0.51511337494E+02  0.11136041347E+04  0.11432652744E+04  0.12500000000E+03 0.  0.
         21    1    1    2  503  501  0.16314075818E+02  0.40931739086E+02  0.38264440431E+01  0.44228927281E+02  0.00000000000E+00 0. -1.
          1    1    1    2  501    0 -0.23691076862E+03  0.10579598408E+02  0.38153067384E+04  0.38226697671E+04  0.00000000000E+00 0. -1.
<mgrwt>
<rscale>  4 0.26566031E+03</rscale>
<asrwt>0</asrwt>
<pdfrwt beam="1">  1       21 0.59559002E-02 0.26566031E+03</pdfrwt>
<pdfrwt beam="2">  1        1 0.76483805E+00 0.26566031E+03</pdfrwt>
<totfact> 0.30430366E+01</totfact>
</mgrwt>
</event>
<event>
 5    0  0.3040647E+000  0.2420834E+03  0.7546771E-02  0.1118413E+00
         -1   -1    0    0    0  501 -0.00000000000E+00  0.00000000000E+00  0.86601137049E+03  0.86601137049E+03  0.00000000000E+00 0.  1.
         21   -1    0    0  501  502  0.00000000000E+00 -0.00000000000E+00 -0.18917604816E+03  0.18917604816E+03  0.00000000000E+00 0.  1.
         25    1    1    2    0    0  0.23488249104E+03  0.11180948340E+03  0.75027624026E+02  0.29820343650E+03  0.12500000000E+03 0.  0.
         21    1    1    2  503  502 -0.47190061027E+02 -0.41938661189E+02 -0.46524019039E+02  0.78423449998E+02  0.00000000000E+00 0.  1.
         -1    1    1    2    0  503 -0.18769243001E+03 -0.69870822216E+02  0.64833171734E+03  0.67856053215E+03  0.00000000000E+00 0.  1.
<mgrwt>
<rscale>  4 0.24208341E+03</rscale>
<asrwt>0</asrwt>
<pdfrwt beam="1">  1       21 0.29104008E-01 0.24208341E+03</pdfrwt>
<pdfrwt beam="2">  1       -1 0.13323252E+00 0.24208341E+03</pdfrwt>
<totfact> 0.53510786E+02</totfact>
</mgrwt>
</event>
<event>
 5    0  0.3040647E+000  0.2462356E+03  0.7546771E-02  0.1115707E+00
          2   -1    0    0  502    0 -0.00000000000E+00  0.00000000000E+00  0.25400874604E+04  0.25400874604E+04  0.00000000000E+00 0.  1.
         21   -1    0    0  503  502  0.00000000000E+00 -0.00000000000E+00 -0.11918735669E+03  0.11918735669E+03  0.00000000000E+00 0.  1.
         25    1    1    2    0    0 -0.19310686635E+03  0.12629941305E+03  0.58784512377E+03  0.64376136348E+03  0.12500000000E+03 0.  0.
         21    1    1    2  503  501  0.14676045307E+02 -0.18595651313E+02 -0.83941736277E+02  0.87220408408E+02  0.00000000000E+00 0.  1.
          2    1    1    2  501    0  0.17843082104E+03 -0.10770376174E+03  0.19169967162E+04  0.19282930452E+04  0.00000000000E+00 0.  1.
<mgrwt>
<rscale>  4 0.24623558E+03</rscale>
<asrwt>0</asrwt>
<pdfrwt beam="1">  1       21 0.18336518E-01 0.24623558E+03</pdfrwt>
<pdfrwt beam="2">  1        2 0.39078265E+00 0.24623558E+03</pdfrwt>
<totfact> 0.13069924E+03</totfact>
</mgrwt>
</event>
<event>
 5    0  0.3040647E+000  0.6036906E+03  0.7546771E-02  0.9897779E-01
         21   -1    0    0  503  502  0.00000000000E+00  0.00000000000E+00  0.73883261002E+03  0.73883261002E+03  0.00000000000E+00 0. -1.
          2   -1    0    0  502    0 -0.00000000000E+00 -0.00000000000E+00 -0.44397054454E+04  0.44397054454E+04  0.00000000000E+00 0. -1.
         25    1    1    2    0    0 -0.35342853136E+03 -0.44099246756E+03 -0.65634649964E+03  0.87510102891E+03  0.12500000000E+03 0.  0.
         21    1    1    2  503  501  0.18151629433E+03 -0.13838911156E+03  0.58290760219E+03  0.62600398081E+03  0.00000000000E+00 0. -1.
          2    1    1    2  501    0  0.17191223702E+03  0.57938157912E+03 -0.36274339379E+04  0.36774330457E+04  0.00000000000E+00 0. -1.
<mgrwt>
<rscale>  4 0.60369056E+03</rscale>
<asrwt>0</asrwt>
<pdfrwt beam="1">  1       21 0.11366655E+00 0.60369056E+03</pdfrwt>
<pdfrwt beam="2">  1        2 0.68303161E+00 0.60369056E+03</pdfrwt>
<totfact> 0.10892495E+00</totfact>
</mgrwt>
</event>
<event>
 5    0  0.3040647E+000  0.2863400E+03  0.7546771E-02  0.1092276E+00
          2   -1    0    0  502    0 -0.00000000000E+00  0.00000000000E+00  0.86218435629E+03  0.86218435629E+03  0.00000000000E+00 0. -1.
         21   -1    0    0  503  502  0.00000000000E+00 -0.00000000000E+00 -0.14669350489E+03  0.14669350489E+03  0.00000000000E+00 0.  1.
         25    1    1    2    0    0 -0.25067894799E+03 -0.44175181079E+02  0.60824184668E+02  0.29002752116E+03  0.12500000000E+03 0.  0.
         21    1    1    2  503  501 -0.17717504625E+02  0.19228310623E+02  0.41496432649E+02  0.49046832947E+02  0.00000000000E+00 0. -1.
          2    1    1    2  501    0  0.26839645261E+03  0.24946870456E+02  0.61317023408E+03  0.66980350707E+03  0.00000000000E+00 0. -1.
<mgrwt>
<rscale>  4 0.28634003E+03</rscale>
<asrwt>0</asrwt>
<pdfrwt beam="1">  1       21 0.22568232E-01 0.28634003E+03</pdfrwt>
<pdfrwt beam="2">  1        2 0.13264374E+00 0.28634003E+03</pdfrwt>
<totfact> 0.73047339E+03</totfact>
</mgrwt>
</event>
<event>
 5    0  0.3040647E+000  0.2532752E+03  0.7546771E-02  0.1111252E+00
          2   -1    0    0  502    0 -0.00000000000E+00  0.00000000000E+00  0.29265081044E+04  0.29265081044E+04  0.00000000000E+00 0.  1.
         21   -1    0    0  503  502  0.00000000000E+00 -0.00000000000E+00 -0.25458923738E+03  0.25458923738E+03  0.00000000000E+00 0.  1.
         25    1    1    2    0    0  0.14920557659E+03  0.18349901724E+03  0.11027499829E+04  0.11347320028E+04  0.12500000000E+03 0.  0.
         21    1    1    2  503  501 -0.18393893415E+02 -0.14286987489E+02 -0.23168623066E+03  0.23285395166E+03  0.00000000000E+00 0.  1.
          2    1    1    2  501    0 -0.13081168317E+03 -0.16921202975E+03  0.18008551148E+04  0.18135113873E+04  0.00000000000E+00 0.  1.
<mgrwt>
<rscale>  4 0.25327518E+03</rscale>
<asrwt>0</asrwt>
<pdfrwt beam="1">  1       21 0.39167577E-01 0.25327518E+03</pdfrwt>
<pdfrwt beam="2">  1        2 0.45023199E+00 0.25327518E+03</pdfrwt>
<totfact> 0.18061563E+02</totfact>
</mgrwt>
</event>
<event>
 5    0  0.3040647E+000  0.2770974E+03  0.7546771E-02  0.1097285E+00
         21   -1    0    0  503  502  0.00000000000E+00  0.00000000000E+00  0.23933290240E+03  0.23933290240E+03  0.00000000000E+00 0. -1.
          2   -1    0    0  502    0 -0.00000000000E+00 -0.00000000000E+00 -0.11253483579E+04  0.11253483579E+04  0.00000000000E+00 0. -1.
         25    1    1    2    0    0 -0.18808012904E+03 -0.13940793382E+03  0.13317247216E+03  0.29693200281E+03  0.12500000000E+03 0.  0.
         21    1    1    2  503  501  0.40456949351E+01 -0.27277402387E+02 -0.11426290162E+02  0.29849362394E+02  0.00000000000E+00 0.  1.
          2    1    1    2  501    0  0.18403443411E+03  0.16668533621E+03 -0.10077616375E+04  0.10378998951E+04  0.00000000000E+00 0. -1.
<mgrwt>
<rscale>  4 0.27709741E+03</rscale>
<asrwt>0</asrwt>
<pdfrwt beam="1">  1       21 0.36820446E-01 0.27709741E+03</pdfrwt>
<pdfrwt beam="2">  1        2 0.17313052E+00 0.27709741E+03</pdfrwt>
<totfact> 0.19286907E+03</totfact>
</mgrwt>
</event>
<event>
 5    0  0.3040647E+000  0.3163710E+03  0.7546771E-02  0.1077332E+00
          2   -1    0    0  502    0 -0.00000000000E+00  0.00000000000E+00  0.10362090080E+03  0.10362090080E+03  0.00000000000E+00 0. -1.
         21   -1    0    0  503  502  0.00000000000E+00 -0.00000000000E+00 -0.12668927317E+04  0.12668927317E+04  0.00000000000E+00 0.  1.
         25    1    1    2    0    0 -0.32335639379E+03  0.32458621612E+02 -0.69690962319E+03  0.77905130923E+03  0.12500000000E+03 0.  0.
         21    1    1    2  503  501  0.51606593513E+02  0.15114209660E+02 -0.20319681737E+03  0.21019188000E+03  0.00000000000E+00 0.  1.
          2    1    1    2  501    0  0.27174980027E+03 -0.47572831272E+02 -0.26316539030E+03  0.38127044322E+03  0.00000000000E+00 0. -1.
<mgrwt>
<rscale>  4 0.31637104E+03</rscale>
<asrwt>0</asrwt>
<pdfrwt beam="1">  1       21 0.19490658E+00 0.31637104E+03</pdfrwt>
<pdfrwt beam="2">  1        2 0.15941677E-01 0.31637104E+03</pdfrwt>
<totfact> 0.59834893E+02</totfact>
</mgrwt>
</event>
<event>
 5    0  0.3040647E+000  0.2893948E+03  0.7546771E-02  0.1090666E+00
         21   -1    0    0  501  502  0.00000000000E+00  0.00000000000E+00  0.13651150779E+04  0.13651150779E+04  0.00000000000E+00 0.  1.
         -1   -1    0    0    0  501 -0.00000000000E+00 -0.00000000000E+00 -0.11916742228E+03  0.11916742228E+03  0.00000000000E+00 0.  1.
         25    1    1    2    0    0  0.32881031723E+03  0.77518176013E+01  0.60573039076E+03  0.70050740302E+03  0.12500000000E+03 0.  0.
         21    1    1    2  503  502 -0.22734199963E+03 -0.50713016443E+02  0.63167865861E+03  0.67325635725E+03  0.00000000000E+00 0.  1.
         -1    1    1    2    0  503 -0.10146831761E+03  0.42961198842E+02  0.85386062946E+01  0.11051873995E+03  0.00000000000E+00 0.  1.
<mgrwt>
<rscale>  4 0.28939481E+03</rscale>
<asrwt>0</asrwt>
<pdfrwt beam="1">  1       21 0.21001769E+00 0.28939481E+03</pdfrwt>
<pdfrwt beam="2">  1       -1 0.18333451E-01 0.28939481E+03</pdfrwt>
<totfact> 0.22938632E+02</totfact>
</mgrwt>
</event>
<event>
 5    0  0.3040647E+000  0.3155226E+03  0.7546771E-02  0.1077729E+00
         21   -1    0    0  503  502  0.00000000000E+00  0.00000000000E+00  0.15264357534E+03  0.15264357534E+03  0.00000000000E+00 0. -1.
          2   -1    0    0  502    0 -0.00000000000E+00 -0.00000000000E+00 -0.75920715868E+03  0.75920715868E+03  0.00000000000E+00 0. -1.
         25    1    1    2    0    0 -0.93728250426E+02 -0.28629110707E+03 -0.32471584928E+03  0.46023142623E+03  0.12500000000E+03 0.  0.
         21    1    1    2  503  501  0.15103314738E+02  0.17002412260E+02  0.26388892525E+02  0.34836271147E+02  0.00000000000E+00 0. -1.
          2    1    1    2  501    0  0.78624935689E+02  0.26928869481E+03 -0.30823662659E+03  0.41678303664E+03  0.00000000000E+00 0. -1.
<mgrwt>
<rscale>  4 0.31552255E+03</rscale>
<asrwt>0</asrwt>
<pdfrwt beam="1">  1       21 0.23483627E-01 0.31552255E+03</pdfrwt>
<pdfrwt beam="2">  1        2 0.11680110E+00 0.31552255E+03</pdfrwt>
<totfact> 0.79267376E+03</totfact>
</mgrwt>
</event>
<event>
 5    0  0.3040647E+000  0.3009456E+03  0.7546771E-02  0.1084769E+00
         21   -1    0    0  503  502  0.00000000000E+00  0.00000000000E+00  0.19115614108E+03  0.19115614108E+03  0.00000000000E+00 0.  1.
          3   -1    0    0  502    0 -0.00000000000E+00 -0.00000000000E+00 -0.19747371096E+04  0.19747371096E+04  0.00000000000E+00 0.  1.
         25    1    1    2    0    0 -0.17349847383E+03  0.20936739471E+03  0.25244698565E+02  0.30033101937E+03  0.12500000000E+03 0.  0.
         21    1    1    2  503  501  0.29193743563E+02  0.23586060710E+02 -0.14794347274E+01  0.37560160412E+02  0.00000000000E+00 0.  1.
          3    1    1    2  501    0  0.14430473026E+03 -0.23295345542E+03 -0.18073462324E+04  0.18280020709E+04  0.00000000000E+00 0.  1.
<mgrwt>
<rscale>  4 0.30094560E+03</rscale>
<asrwt>0</asrwt>
<pdfrwt beam="1">  1       21 0.29408638E-01 0.30094560E+03</pdfrwt>
<pdfrwt beam="2">  1        3 0.30380570E+00 0.30094560E+03</pdfrwt>
<totfact> 0.22420614E+01</totfact>
</mgrwt>
</event>
<event>
 5    0  0.3040647E+000  0.2660433E+03  0.7546771E-02  0.1103566E+00
         21   -1    0    0  503  502  0.00000000000E+00  0.00000000000E+00  0.14477346371E+03  0.14477346371E+03  0.00000000000E+00 0. -1.
          2   -1    0    0  502    0 -0.00000000000E+00 -0.00000000000E+00 -0.81224637582E+03  0.81224637582E+03  0.00000000000E+00 0. -1.
         25    1    1    2    0    0 -0.89945104405E+02 -0.18225363061E+03 -0.31426125906E+03  0.39457780808E+03  0.12500000000E+03 0.  0.
         21    1    1    2  503  501 -0.37228293878E+02 -0.52033972336E+02  0.48528211003E+02  0.80302349936E+02  0.00000000000E+00 0. -1.
          2    1    1    2  501    0  0.12717339828E+03  0.23428760295E+03 -0.40173986405E+03  0.48213968152E+03  0.00000000000E+00 0. -1.
<mgrwt>
<rscale>  4 0.26604333E+03</rscale>
<asrwt>0</asrwt>
<pdfrwt beam="1">  1       21 0.22272840E-01 0.26604333E+03</pdfrwt>
<pdfrwt beam="2">  1        2 0.12496098E+00 0.26604333E+03</pdfrwt>
<totfact> 0.81351142E+03</totfact>
</mgrwt>
</event>
<event>
 5    0  0.3040647E+000  0.6960792E+03  0.7546771E-02  0.9723961E-01
         21   -1    0    0  503  502  0.00000000000E+00  0.00000000000E+00  0.58500118711E+03  0.58500118711E+03  0.00000000000E+00 0. -1.
          2   -1    0    0  502    0 -0.00000000000E+00 -0.00000000000E+00 -0.13473991286E+04  0.13473991286E+04  0.00000000000E+00 0.  1.
         25    1    1    2    0    0 -0.66025841724E+03  0.24477650339E+03  0.17420368495E+03  0.73609010182E+03  0.12500000000E+03 0.  0.
         21    1    1    2  503  501  0.30801949308E+02  0.12895719186E+02  0.60112606656E+01  0.33929263318E+02  0.00000000000E+00 0.  1.
          2    1    1    2  501    0  0.62945646793E+03 -0.25767222258E+03 -0.94261288712E+03  0.11623809506E+04  0.00000000000E+00 0.  1.
<mgrwt>
<rscale>  4 0.69607923E+03</rscale>
<asrwt>0</asrwt>
<pdfrwt beam="1">  1       21 0.90000183E-01 0.69607923E+03</pdfrwt>
<pdfrwt beam="2">  1        2 0.20729217E+00 0.69607923E+03</pdfrwt>
<totfact> 0.18120746E+02</totfact>
</mgrwt>
</event>
<event>
 5    0  0.3040647E+000  0.3091754E+03  0.7546771E-02  0.1080742E+00
         21   -1    0    0  503  502  0.00000000000E+00  0.00000000000E+00  0.18763897834E+04  0.18763897834E+04  0.00000000000E+00 0. -1.
          3   -1    0    0  502    0 -0.00000000000E+00 -0.00000000000E+00 -0.56990896904E+02  0.56990896904E+02  0.00000000000E+00 0.  1.
         25    1    1    2    0    0 -0.28675104067E+02  0.28555929513E+03  0.93419713161E+03  0.98524903112E+03  0.12500000000E+03 0.  0.
         21    1    1    2  503  501  0.22657779336E+02 -0.52797785546E+01  0.28209009331E+03  0.28304782594E+03  0.00000000000E+00 0.  1.
          3    1    1    2  501    0  0.60173247313E+01 -0.28027951657E+03  0.60311166162E+03  0.66508382328E+03  0.00000000000E+00 0.  1.
<mgrwt>
<rscale>  4 0.30917544E+03</rscale>
<asrwt>0</asrwt>
<pdfrwt beam="1">  1       21 0.28867530E+00 0.30917544E+03</pdfrwt>
<pdfrwt beam="2">  1        3 0.87678317E-02 0.30917544E+03</pdfrwt>
<totfact> 0.16739443E+02</totfact>
</mgrwt>
</event>
<event>
 5    0  0.3040647E+000  0.2702473E+03  0.7546771E-02  0.1101138E+00
          2   -1    0    0  502    0 -0.00000000000E+00  0.00000000000E+00  0.25902850410E+04  0.25902850410E+04  0.00000000000E+00 0. -1.
         21   -1    0    0  503  502  0.00000000000E+00 -0.00000000000E+00 -0.13344928561E+03  0.13344928561E+03  0.00000000000E+00 0.  1.
         25    1    1    2    0    0 -0.24190255816E+02  0.26800837709E+03  0.77336758097E+03  0.82833331091E+03  0.12500000000E+03 0.  0.
         21    1    1    2  503  501 -0.20448388230E+02 -0.40526784888E+02 -0.93203153071E+02  0.10366959350E+03  0.00000000000E+00 0.  1.
          2    1    1    2  501    0  0.44638644046E+02 -0.22748159220E+03  0.17766713275E+04  0.17917314222E+04  0.00000000000E+00 0. -1.
<mgrwt>
<rscale>  4 0.27024726E+03</rscale>
<asrwt>0</asrwt>
<pdfrwt beam="1">  1       21 0.20530661E-01 0.27024726E+03</pdfrwt>
<pdfrwt beam="2">  1        2 0.39850535E+00 0.27024726E+03</pdfrwt>
<totfact> 0.97874502E+02</totfact>
</mgrwt>
</event>
<event>
 5    0  0.3040647E+000  0.1996281E+03  0.7546771E-02  0.1150053E+00
         21   -1    0    0  503  502  0.00000000000E+00  0.00000000000E+00  0.48520470997E+03  0.48520470997E+03  0.00000000000E+00 0. -1.
          1   -1    0    0  502    0 -0.00000000000E+00 -0.00000000000E+00 -0.13787220110E+04  0.13787220110E+04  0.00000000000E+00 0. -1.
         25    1    1    2    0    0 -0.33768329761E+02 -0.24771286239E+03 -0.49837595878E+02  0.28392032025E+03  0.12500000000E+03 0.  0.
         21    1    1    2  503  501  0.28432098019E+02  0.95966617207E+02  0.35648765520E+03  0.37027209471E+03  0.00000000000E+00 0. -1.
          1    1    1    2  501    0  0.53362317421E+01  0.15174624518E+03 -0.12001673603E+04  0.12097343060E+04  0.00000000000E+00 0. -1.
<mgrwt>
<rscale>  4 0.19962806E+03</rscale>
<asrwt>0</asrwt>
<pdfrwt beam="1">  1       21 0.74646879E-01 0.19962806E+03</pdfrwt>
<pdfrwt beam="2">  1        1 0.21211108E+00 0.19962806E+03</pdfrwt>
<totfact> 0.15618232E+02</totfact>
</mgrwt>
</event>
<event>
 5    0  0.3040647E+000  0.2511595E+03  0.7546771E-02  0.1112574E+00
          2   -1    0    0  502    0 -0.00000000000E+00  0.00000000000E+00  0.12887150068E+04  0.12887150068E+04  0.00000000000E+00 0. -1.
         21   -1    0    0  503  502  0.00000000000E+00 -0.00000000000E+00 -0.28556596833E+03  0.28556596833E+03  0.00000000000E+00 0.  1.
         25    1    1    2    0    0  0.24294072689E+03 -0.76919109638E+02 -0.17841804964E+03  0.33525325747E+03  0.12500000000E+03 0.  0.
         21    1    1    2  503  501 -0.34494220180E+02  0.18669040591E+02  0.14722259846E+01  0.39249863080E+02  0.00000000000E+00 0.  1.
          2    1    1    2  501    0 -0.20844650671E+03  0.58250069046E+02  0.11800948622E+04  0.11997778546E+04  0.00000000000E+00 0. -1.
<mgrwt>
<rscale>  4 0.25115946E+03</rscale>
<asrwt>0</asrwt>
<pdfrwt beam="1">  1       21 0.43933227E-01 0.25115946E+03</pdfrwt>
<pdfrwt beam="2">  1        2 0.19826384E+00 0.25115946E+03</pdfrwt>
<totfact> 0.10987782E+03</totfact>
</mgrwt>
</event>
<event>
 5    0  0.3040647E+000  0.2796681E+03  0.7546771E-02  0.1095870E+00
         21   -1    0    0  503  502  0.00000000000E+00  0.00000000000E+00  0.69749510702E+02  0.69749510702E+02  0.00000000000E+00 0.  1.
          2   -1    0    0  502    0 -0.00000000000E+00 -0.00000000000E+00 -0.17722495356E+04  0.17722495356E+04  0.00000000000E+00 0. -1.
         25    1    1    2    0    0 -0.14630039845E+03 -0.17478611628E+03 -0.71279445872E+03  0.75871927180E+03  0.12500000000E+03 0.  0.
         21    1    1    2  503  501 -0.23604147685E+02 -0.31253862983E+02  0.16306080818E+02  0.42424615625E+02  0.00000000000E+00 0.  1.
          2    1    1    2  501    0  0.16990454613E+03  0.20603997926E+03 -0.10060116470E+04  0.10408551589E+04  0.00000000000E+00 0. -1.
<mgrwt>
<rscale>  4 0.27966808E+03</rscale>
<asrwt>0</asrwt>
<pdfrwt beam="1">  1       21 0.10730695E-01 0.27966808E+03</pdfrwt>
<pdfrwt beam="2">  1        2 0.27265374E+00 0.27966808E+03</pdfrwt>
<totfact> 0.87804469E+03</totfact>
</mgrwt>
</event>
<event>
 5    0  0.3040647E+000  0.2494157E+03  0.7546771E-02  0.1113675E+00
         21   -1    0    0  503  502  0.00000000000E+00  0.00000000000E+00  0.12915892013E+03  0.12915892013E+03  0.00000000000E+00 0.  1.
          1   -1    0    0  502    0 -0.00000000000E+00 -0.00000000000E+00 -0.55244303115E+03  0.55244303115E+03  0.00000000000E+00 0.  1.
         25    1    1    2    0    0  0.21164497773E+03 -0.42303761082E+02 -0.37553286903E+03  0.45081386461E+03  0.12500000000E+03 0.  0.
         21    1    1    2  503  501 -0.27147782788E+02  0.86257036704E+01  0.16039371498E+02  0.32690462097E+02  0.00000000000E+00 0.  1.
          1    1    1    2  501    0 -0.18449719494E+03  0.33678057411E+02 -0.63790613487E+02  0.19809762457E+03  0.00000000000E+00 0.  1.
<mgrwt>
<rscale>  4 0.24941573E+03</rscale>
<asrwt>0</asrwt>
<pdfrwt beam="1">  1       21 0.19870603E-01 0.24941573E+03</pdfrwt>
<pdfrwt beam="2">  1        1 0.84991235E-01 0.24941573E+03</pdfrwt>
<totfact> 0.10078979E+04</totfact>
</mgrwt>
</event>
<event>
 5    0  0.3040647E+000  0.2288443E+03  0.7546771E-02  0.1127456E+00
         21   -1    0    0  501  502  0.00000000000E+00  0.00000000000E+00  0.29612902096E+03  0.29612902096E+03  0.00000000000E+00 0.  1.
         -4   -1    0    0    0  501 -0.00000000000E+00 -0.00000000000E+00 -0.14300804975E+04  0.14300804975E+04  0.00000000000E+00 0.  1.
         25    1    1    2    0    0  0.32661205932E+02  0.21690737431E+03  0.16720534256E+03  0.30281708998E+03  0.12500000000E+03 0.  0.
         21    1    1    2  503  502  0.66270390893E+01 -0.30084343552E+02  0.50047284974E+02  0.58768325715E+02  0.00000000000E+00 0.  1.
         -4    1    1    2    0  503 -0.39288245021E+02 -0.18682303076E+03 -0.13512041040E+04  0.13646241028E+04  0.00000000000E+00 0.  1.
<mgrwt>
<rscale>  4 0.22884433E+03</rscale>
<asrwt>0</asrwt>
<pdfrwt beam="1">  1       21 0.45558311E-01 0.22884433E+03</pdfrwt>
<pdfrwt beam="2">  1       -4 0.22001239E+00 0.22884433E+03</pdfrwt>
<totfact> 0.20885509E+01</totfact>
</mgrwt>
</event>
<event>
 5    0  0.3040647E+000  0.2831674E+03  0.7546771E-02  0.1093971E+00
         -3   -1    0    0    0  501 -0.00000000000E+00  0.00000000000E+00  0.38197130009E+04  0.38197130009E+04  0.00000000000E+00 0.  1.
         21   -1    0    0  501  502  0.00000000000E+00 -0.00000000000E+00 -0.67827083826E+03  0.67827083826E+03  0.00000000000E+00 0.  1.
         25    1    1    2    0    0 -0.21621327934E+03  0.18866921413E+03  0.11009024971E+03  0.33179680168E+03  0.12500000000E+03 0.  0.
         21    1    1    2  503  502  0.25002631793E+02 -0.23351050720E+02 -0.56245874985E+03  0.56349822400E+03  0.00000000000E+00 0.  1.
         -3    1    1    2    0  503  0.19121064755E+03 -0.16531816341E+03  0.35938106628E+04  0.36026888135E+04  0.00000000000E+00 0.  1.
<mgrwt>
<rscale>  4 0.28316736E+03</rscale>
<asrwt>0</asrwt>
<pdfrwt beam="1">  1       21 0.10434936E+00 0.28316736E+03</pdfrwt>
<pdfrwt beam="2">  1       -3 0.58764814E+00 0.28316736E+03</pdfrwt>
<totfact> 0.47255653E-02</totfact>
</mgrwt>
</event>
<event>
 5    0  0.3040647E+000  0.2829343E+03  0.7546771E-02  0.1094097E+00
         21   -1    0    0  503  502  0.00000000000E+00  0.00000000000E+00  0.95228535397E+02  0.95228535397E+02  0.00000000000E+00 0. -1.
          2   -1    0    0  502    0 -0.00000000000E+00 -0.00000000000E+00 -0.98497289065E+03  0.98497289065E+03  0.00000000000E+00 0.  1.
         25    1    1    2    0    0 -0.20577644143E+03 -0.10606713684E+03 -0.32572571648E+03  0.41870804117E+03  0.12500000000E+03 0.  0.
         21    1    1    2  503  501 -0.16502594471E+02 -0.46767683103E+02 -0.18515233601E+02  0.52937375099E+02  0.00000000000E+00 0. -1.
          2    1    1    2  501    0  0.22227903590E+03  0.15283481994E+03 -0.54550340517E+03  0.60855600978E+03  0.00000000000E+00 0.  1.
<mgrwt>
<rscale>  4 0.28293428E+03</rscale>
<asrwt>0</asrwt>
<pdfrwt beam="1">  1       21 0.14650544E-01 0.28293428E+03</pdfrwt>
<pdfrwt beam="2">  1        2 0.15153429E+00 0.28293428E+03</pdfrwt>
<totfact> 0.13670050E+04</totfact>
</mgrwt>
</event>
<event>
 5    0  0.3040647E+000  0.2641889E+03  0.7546771E-02  0.1104652E+00
          3   -1    0    0  502    0 -0.00000000000E+00  0.00000000000E+00  0.14451582070E+04  0.14451582070E+04  0.00000000000E+00 0. -1.
         21   -1    0    0  503  502  0.00000000000E+00 -0.00000000000E+00 -0.90666726741E+02  0.90666726741E+02  0.00000000000E+00 0. -1.
         25    1    1    2    0    0  0.36700421925E+02 -0.21997738615E+03  0.11892264158E+04  0.12163969087E+04  0.12500000000E+03 0.  0.
         21    1    1    2  503  501 -0.28624737442E+01  0.23471107246E+03  0.12971959801E+03  0.26818772418E+03  0.00000000000E+00 0. -1.
          3    1    1    2  501    0 -0.33837948180E+02 -0.14733686312E+02  0.35545466410E+02  0.51240300855E+02  0.00000000000E+00 0. -1.
<mgrwt>
<rscale>  4 0.26418890E+03</rscale>
<asrwt>0</asrwt>
<pdfrwt beam="1">  1       21 0.13948728E-01 0.26418890E+03</pdfrwt>
<pdfrwt beam="2">  1        3 0.22233201E+00 0.26418890E+03</pdfrwt>
<totfact> 0.25935828E+02</totfact>
</mgrwt>
</event>
<event>
 5    0  0.3040647E+000  0.2761990E+03  0.7546771E-02  0.1097783E+00
         21   -1    0    0  503  502  0.00000000000E+00  0.00000000000E+00  0.11695353096E+03  0.11695353096E+03  0.00000000000E+00 0.  1.
          2   -1    0    0  502    0 -0.00000000000E+00 -0.00000000000E+00 -0.16511019839E+04  0.16511019839E+04  0.00000000000E+00 0.  1.
         25    1    1    2    0    0  0.23515936063E+03  0.55939858390E+02 -0.18028800711E+03  0.32643216471E+03  0.12500000000E+03 0.  0.
         21    1    1    2  503  501 -0.61507808338E+01  0.37563706026E+02  0.21824143440E+02  0.43876615095E+02  0.00000000000E+00 0.  1.
          2    1    1    2  501    0 -0.22900857980E+03 -0.93503564416E+02 -0.13756845892E+04  0.13977467350E+04  0.00000000000E+00 0.  1.
<mgrwt>
<rscale>  4 0.27619904E+03</rscale>
<asrwt>0</asrwt>
<pdfrwt beam="1">  1       21 0.17992852E-01 0.27619904E+03</pdfrwt>
<pdfrwt beam="2">  1        2 0.25401568E+00 0.27619904E+03</pdfrwt>
<totfact> 0.39642040E+03</totfact>
</mgrwt>
</event>
<event>
 5    0  0.3040647E+000  0.2542144E+03  0.7546771E-02  0.1110670E+00
         21   -1    0    0  503  502  0.00000000000E+00  0.00000000000E+00  0.93305542764E+02  0.93305542764E+02  0.00000000000E+00 0.  1.
          2   -1    0    0  502    0 -0.00000000000E+00 -0.00000000000E+00 -0.67477400328E+03  0.67477400328E+03  0.00000000000E+00 0.  1.
         25    1    1    2    0    0  0.21826979573E+02  0.22028058829E+03 -0.38969626874E+03  0.46528285642E+03  0.12500000000E+03 0.  0.
         21    1    1    2  503  501 -0.43643032750E+02 -0.84090649975E+02 -0.60661671392E+02  0.11249795597E+03  0.00000000000E+00 0.  1.
          2    1    1    2  501    0  0.21816053177E+02 -0.13618993831E+03 -0.13111052038E+03  0.19029873365E+03  0.00000000000E+00 0.  1.
<mgrwt>
<rscale>  4 0.25421439E+03</rscale>
<asrwt>0</asrwt>
<pdfrwt beam="1">  1       21 0.14354699E-01 0.25421439E+03</pdfrwt>
<pdfrwt beam="2">  1        2 0.10381139E+00 0.25421439E+03</pdfrwt>
<totfact> 0.23260198E+04</totfact>
</mgrwt>
</event>
<event>
 5    0  0.3040647E+000  0.3687065E+03  0.7546771E-02  0.1055189E+00
         21   -1    0    0  503  502  0.00000000000E+00  0.00000000000E+00  0.80264749156E+03  0.80264749156E+03  0.00000000000E+00 0. -1.
          1   -1    0    0  502    0 -0.00000000000E+00 -0.00000000000E+00 -0.93373623395E+03  0.93373623395E+03  0.00000000000E+00 0. -1.
         25    1    1    2    0    0 -0.33069975990E+03 -0.11173735888E+02 -0.38372687972E+02  0.35578736171E+03  0.12500000000E+03 0.  0.
         21    1    1    2  503  501 -0.20235784414E+02  0.92289303090E+00  0.60192890484E+03  0.60226966152E+03  0.00000000000E+00 0. -1.
          1    1    1    2  501    0  0.35093554432E+03  0.10250842857E+02 -0.69464495926E+03  0.77832670227E+03  0.00000000000E+00 0. -1.
<mgrwt>
<rscale>  4 0.36870646E+03</rscale>
<asrwt>0</asrwt>
<pdfrwt beam="1">  1       21 0.12348423E+00 0.36870646E+03</pdfrwt>
<pdfrwt beam="2">  1        1 0.14365173E+00 0.36870646E+03</pdfrwt>
<totfact> 0.88526739E+01</totfact>
</mgrwt>
</event>
<event>
 5    0  0.4177899E+000  0.2468904E+03  0.7546771E-02  0.1115286E+00
          2   -1    0    0  502    0 -0.00000000000E+00  0.00000000000E+00  0.10110850162E+04  0.10110850162E+04  0.00000000000E+00 0.  1.
         21   -1    0    0  503  502  0.00000000000E+00 -0.00000000000E+00 -0.11687585664E+04  0.11687585664E+04  0.00000000000E+00 0.  1.
         25    1    1    2    0    0 -0.10723318750E+03 -0.24085340981E+03  0.66485637046E+03  0.72606357494E+03  0.12500000000E+03 0.  0.
         21    1    1    2  503  501  0.97095881872E+02  0.18867273287E+03 -0.11259342941E+04  0.11457543564E+04  0.00000000000E+00 0.  1.
          2    1    1    2  501    0  0.10137305624E+02  0.52180676945E+02  0.30340437353E+03  0.30802565134E+03  0.00000000000E+00 0.  1.
<mgrwt>
<rscale>  4 0.24689038E+03</rscale>
<asrwt>0</asrwt>
<pdfrwt beam="1">  1       21 0.17980901E+00 0.24689038E+03</pdfrwt>
<pdfrwt beam="2">  1        2 0.15555154E+00 0.24689038E+03</pdfrwt>
<totfact> 0.56978894E+01</totfact>
</mgrwt>
</event>
<event>
 5    0  0.3040647E+000  0.2848925E+03  0.7546771E-02  0.1093046E+00
          1   -1    0    0  502    0 -0.00000000000E+00  0.00000000000E+00  0.43872112200E+03  0.43872112200E+03  0.00000000000E+00 0.  1.
         21   -1    0    0  503  502  0.00000000000E+00 -0.00000000000E+00 -0.35002281719E+03  0.35002281719E+03  0.00000000000E+00 0. -1.
         25    1    1    2    0    0  0.14211400173E+03 -0.19663445724E+03 -0.17205185992E+03  0.32262724895E+03  0.12500000000E+03 0.  0.
         21    1    1    2  503  501 -0.23463217847E+02 -0.33585943041E+02 -0.48008467018E+02  0.63113794587E+02  0.00000000000E+00 0. -1.
          1    1    1    2  501    0 -0.11865078389E+03  0.23022040029E+03  0.30875863175E+03  0.40300289565E+03  0.00000000000E+00 0.  1.
<mgrwt>
<rscale>  4 0.28489246E+03</rscale>
<asrwt>0</asrwt>
<pdfrwt beam="1">  1       21 0.53849664E-01 0.28489246E+03</pdfrwt>
<pdfrwt beam="2">  1        1 0.67495558E-01 0.28489246E+03</pdfrwt>
<totfact> 0.18660154E+03</totfact>
</mgrwt>
</event>
<event>
 5    0  0.3040647E+000  0.2286895E+03  0.7546771E-02  0.1127566E+00
         21   -1    0    0  503  502  0.00000000000E+00  0.00000000000E+00  0.44662629520E+02  0.44662629520E+02  0.00000000000E+00 0. -1.
          1   -1    0    0  502    0 -0.00000000000E+00 -0.00000000000E+00 -0.14200754217E+04  0.14200754217E+04  0.00000000000E+00 0. -1.
         25    1    1    2    0    0 -0.20661632651E+03 -0.45248335015E+02 -0.50272805062E+03  0.55955179481E+03  0.12500000000E+03 0.  0.
         21    1    1    2  503  501  0.27045170277E+02  0.27181465366E+01 -0.22741276387E+02  0.35440022681E+02  0.00000000000E+00 0. -1.
          1    1    1    2  501    0  0.17957115624E+03  0.42530188478E+02 -0.84994346514E+03  0.86974623369E+03  0.00000000000E+00 0. -1.
<mgrwt>
<rscale>  4 0.22868949E+03</rscale>
<asrwt>0</asrwt>
<pdfrwt beam="1">  1       21 0.68711737E-02 0.22868949E+03</pdfrwt>
<pdfrwt beam="2">  1        1 0.21847314E+00 0.22868949E+03</pdfrwt>
<totfact> 0.14188383E+04</totfact>
</mgrwt>
</event>
<event>
 5    0  0.3040647E+000  0.4291052E+03  0.7546771E-02  0.1034143E+00
          2   -1    0    0  502    0 -0.00000000000E+00  0.00000000000E+00  0.14020640305E+04  0.14020640305E+04  0.00000000000E+00 0.  1.
         21   -1    0    0  503  502  0.00000000000E+00 -0.00000000000E+00 -0.59164368868E+03  0.59164368868E+03  0.00000000000E+00 0.  1.
         25    1    1    2    0    0 -0.25140814287E+03 -0.27539289120E+03  0.28188119634E+03  0.48386910180E+03  0.12500000000E+03 0.  0.
         21    1    1    2  503  501 -0.39984948381E+02 -0.36997483292E+02 -0.44414693719E+03  0.44747526376E+03  0.00000000000E+00 0.  1.
          2    1    1    2  501    0  0.29139309125E+03  0.31239037449E+03  0.97268608271E+03  0.10623633537E+04  0.00000000000E+00 0.  1.
<mgrwt>
<rscale>  4 0.42910517E+03</rscale>
<asrwt>0</asrwt>
<pdfrwt beam="1">  1       21 0.91022106E-01 0.42910517E+03</pdfrwt>
<pdfrwt beam="2">  1        2 0.21570216E+00 0.42910517E+03</pdfrwt>
<totfact> 0.17732982E+02</totfact>
</mgrwt>
</event>
<event>
 5    0  0.3040647E+000  0.2380706E+03  0.7546771E-02  0.1121085E+00
          2   -1    0    0  502    0 -0.00000000000E+00  0.00000000000E+00  0.18075580183E+03  0.18075580183E+03  0.00000000000E+00 0.  1.
         21   -1    0    0  503  502  0.00000000000E+00 -0.00000000000E+00 -0.20163590421E+04  0.20163590421E+04  0.00000000000E+00 0.  1.
         25    1    1    2    0    0  0.12341589432E+03 -0.16126380478E+03 -0.15115999841E+04  0.15302931123E+04  0.12500000000E+03 0.  0.
         21    1    1    2  503  501 -0.28376230021E+02 -0.17776460066E+02 -0.43461581570E+03  0.43590379697E+03  0.00000000000E+00 0. -1.
          2    1    1    2  501    0 -0.95039664302E+02  0.17904026484E+03  0.11061255950E+03  0.23091793465E+03  0.00000000000E+00 0.  1.
<mgrwt>
<rscale>  4 0.23807060E+03</rscale>
<asrwt>0</asrwt>
<pdfrwt beam="1">  1       21 0.31020909E+00 0.23807060E+03</pdfrwt>
<pdfrwt beam="2">  1        2 0.27808584E-01 0.23807060E+03</pdfrwt>
<totfact> 0.66521088E+01</totfact>
</mgrwt>
</event>
<event>
 5    0  0.3040647E+000  0.2945813E+03  0.7546771E-02  0.1087981E+00
         21   -1    0    0  503  502  0.00000000000E+00  0.00000000000E+00  0.74603083640E+02  0.74603083640E+02  0.00000000000E+00 0.  1.
          2   -1    0    0  502    0 -0.00000000000E+00 -0.00000000000E+00 -0.23267975355E+04  0.23267975355E+04  0.00000000000E+00 0.  1.
         25    1    1    2    0    0 -0.57256421748E+02 -0.27773405899E+03 -0.34269528756E+03  0.46203848916E+03  0.12500000000E+03 0.  0.
         21    1    1    2  503  501 -0.99382368058E+01  0.22214001054E+02 -0.20054359984E+02  0.31534231368E+02  0.00000000000E+00 0.  1.
          2    1    1    2  501    0  0.67194658554E+02  0.25552005793E+03 -0.18894448043E+04  0.19078278986E+04  0.00000000000E+00 0.  1.
<mgrwt>
<rscale>  4 0.29458132E+03</rscale>
<asrwt>0</asrwt>
<pdfrwt beam="1">  1       21 0.11477399E-01 0.29458132E+03</pdfrwt>
<pdfrwt beam="2">  1        2 0.35796880E+00 0.29458132E+03</pdfrwt>
<totfact> 0.39343781E+03</totfact>
</mgrwt>
</event>
<event>
 5    0  0.3040647E+000  0.2207380E+03  0.7546771E-02  0.1133334E+00
          2   -1    0    0  502    0 -0.00000000000E+00  0.00000000000E+00  0.39783599798E+03  0.39783599798E+03  0.00000000000E+00 0. -1.
         21   -1    0    0  503  502  0.00000000000E+00 -0.00000000000E+00 -0.28311053053E+03  0.28311053053E+03  0.00000000000E+00 0.  1.
         25    1    1    2    0    0  0.22953326701E+03  0.33376851977E+02  0.18128655574E+03  0.31982706296E+03  0.12500000000E+03 0.  0.
         21    1    1    2  503  501 -0.77490564453E+02 -0.30299944894E+02 -0.16162012824E+03  0.18177992214E+03  0.00000000000E+00 0.  1.
          2    1    1    2  501    0 -0.15204270255E+03 -0.30769070834E+01  0.95059039947E+02  0.17933954342E+03  0.00000000000E+00 0. -1.
<mgrwt>
<rscale>  4 0.22073795E+03</rscale>
<asrwt>0</asrwt>
<pdfrwt beam="1">  1       21 0.43555466E-01 0.22073795E+03</pdfrwt>
<pdfrwt beam="2">  1        2 0.61205538E-01 0.22073795E+03</pdfrwt>
<totfact> 0.50284734E+03</totfact>
</mgrwt>
</event>
<event>
 5    0  0.3040647E+000  0.2299732E+03  0.7546771E-02  0.1126659E+00
          1   -1    0    0  502    0 -0.00000000000E+00  0.00000000000E+00  0.10643114331E+04  0.10643114331E+04  0.00000000000E+00 0. -1.
         21   -1    0    0  503  502  0.00000000000E+00 -0.00000000000E+00 -0.17070185517E+03  0.17070185517E+03  0.00000000000E+00 0.  1.
         25    1    1    2    0    0 -0.21173505119E+03  0.88716961762E+02 -0.84444029955E+01  0.26153152611E+03  0.12500000000E+03 0.  0.
         21    1    1    2  503  501  0.64193496700E+02  0.32464369181E+02  0.25416844507E+02  0.76293880944E+02  0.00000000000E+00 0.  1.
          1    1    1    2  501    0  0.14754155449E+03 -0.12118133094E+03  0.87663713641E+03  0.89718788122E+03  0.00000000000E+00 0. -1.
<mgrwt>
<rscale>  4 0.22997319E+03</rscale>
<asrwt>0</asrwt>
<pdfrwt beam="1">  1       21 0.26261825E-01 0.22997319E+03</pdfrwt>
<pdfrwt beam="2">  1        1 0.16374022E+00 0.22997319E+03</pdfrwt>
<totfact> 0.21853041E+03</totfact>
</mgrwt>
</event>
<event>
 5    0  0.3040647E+000  0.2292392E+03  0.7546771E-02  0.1127176E+00
         21   -1    0    0  501  502  0.00000000000E+00  0.00000000000E+00  0.12066742882E+04  0.12066742882E+04  0.00000000000E+00 0. -1.
         -1   -1    0    0    0  501 -0.00000000000E+00 -0.00000000000E+00 -0.11150782283E+03  0.11150782283E+03  0.00000000000E+00 0. -1.
         25    1    1    2    0    0  0.25318245392E+03  0.56991129263E+02  0.93126177571E+03  0.97479374161E+03  0.12500000000E+03 0.  0.
         21    1    1    2  503  502 -0.79786623335E+02  0.66829820956E+01  0.13424021111E+03  0.15630419633E+03  0.00000000000E+00 0. -1.
         -1    1    1    2    0  503 -0.17339583058E+03 -0.63674111359E+02  0.29664478522E+02  0.18708417305E+03  0.00000000000E+00 0. -1.
<mgrwt>
<rscale>  4 0.22923921E+03</rscale>
<asrwt>0</asrwt>
<pdfrwt beam="1">  1       21 0.18564219E+00 0.22923921E+03</pdfrwt>
<pdfrwt beam="2">  1       -1 0.17155051E-01 0.22923921E+03</pdfrwt>
<totfact> 0.38104591E+02</totfact>
</mgrwt>
</event>
<event>
 5    0  0.3040647E+000  0.3047498E+03  0.7546771E-02  0.1082890E+00
          3   -1    0    0  502    0 -0.00000000000E+00  0.00000000000E+00  0.13907363758E+03  0.13907363758E+03  0.00000000000E+00 0. -1.
         21   -1    0    0  503  502  0.00000000000E+00 -0.00000000000E+00 -0.88896073354E+03  0.88896073354E+03  0.00000000000E+00 0. -1.
         25    1    1    2    0    0  0.27094846128E+03  0.13308803537E+03 -0.55033977668E+03  0.64001903380E+03  0.12500000000E+03 0.  0.
         21    1    1    2  503  501 -0.28831027743E+02 -0.13746671750E+02 -0.92105602996E+02  0.97486620867E+02  0.00000000000E+00 0. -1.
          3    1    1    2  501    0 -0.24211743353E+03 -0.11934136362E+03 -0.10744171628E+03  0.29052871646E+03  0.00000000000E+00 0. -1.
<mgrwt>
<rscale>  4 0.30474977E+03</rscale>
<asrwt>0</asrwt>
<pdfrwt beam="1">  1       21 0.13676319E+00 0.30474977E+03</pdfrwt>
<pdfrwt beam="2">  1        3 0.21395944E-01 0.30474977E+03</pdfrwt>
<totfact> 0.36155963E+02</totfact>
</mgrwt>
</event>
<event>
 5    0  0.3040647E+000  0.3562007E+03  0.7546771E-02  0.1060098E+00
         -2   -1    0    0    0  501 -0.00000000000E+00  0.00000000000E+00  0.52872095428E+03  0.52872095428E+03  0.00000000000E+00 0. -1.
         21   -1    0    0  501  502  0.00000000000E+00 -0.00000000000E+00 -0.34771559652E+03  0.34771559652E+03  0.00000000000E+00 0. -1.
         25    1    1    2    0    0  0.34062388444E+03 -0.12409142054E+03 -0.94842169895E+02  0.39502322525E+03  0.12500000000E+03 0.  0.
         21    1    1    2  503  502 -0.32497148305E+02  0.20579095928E+02 -0.18692833280E+02  0.42766644165E+02  0.00000000000E+00 0.  1.
         -2    1    1    2    0  503 -0.30812673613E+03  0.10351232462E+03  0.29454036093E+03  0.43864668138E+03  0.00000000000E+00 0. -1.
<mgrwt>
<rscale>  4 0.35620066E+03</rscale>
<asrwt>0</asrwt>
<pdfrwt beam="1">  1       21 0.53494707E-01 0.35620066E+03</pdfrwt>
<pdfrwt beam="2">  1       -2 0.81341685E-01 0.35620066E+03</pdfrwt>
<totfact> 0.35147086E+02</totfact>
</mgrwt>
</event>
<event>
 5    0  0.3040647E+000  0.3677793E+03  0.7546771E-02  0.1055545E+00
         21   -1    0    0  503  502  0.00000000000E+00  0.00000000000E+00  0.12194118877E+03  0.12194118877E+03  0.00000000000E+00 0.  1.
          2   -1    0    0  502    0 -0.00000000000E+00 -0.00000000000E+00 -0.13489927118E+04  0.13489927118E+04  0.00000000000E+00 0.  1.
         25    1    1    2    0    0  0.30061107512E+03 -0.17108349554E+03 -0.29306365760E+03  0.47026363706E+03  0.12500000000E+03 0.  0.
         21    1    1    2  503  501 -0.52660205442E+02 -0.65689885105E+01 -0.11271915902E+03  0.12458674752E+03  0.00000000000E+00 0.  1.
          2    1    1    2  501    0 -0.24795086968E+03  0.17765248405E+03 -0.82126870645E+03  0.87608351603E+03  0.00000000000E+00 0.  1.
<mgrwt>
<rscale>  4 0.36777926E+03</rscale>
<asrwt>0</asrwt>
<pdfrwt beam="1">  1       21 0.18760182E-01 0.36777926E+03</pdfrwt>
<pdfrwt beam="2">  1        2 0.20753735E+00 0.36777926E+03</pdfrwt>
<totfact> 0.52008296E+03</totfact>
</mgrwt>
</event>
<event>
 5    0  0.3040647E+000  0.3074608E+03  0.7546771E-02  0.1081569E+00
          2   -1    0    0  502    0 -0.00000000000E+00  0.00000000000E+00  0.14073749223E+04  0.14073749223E+04  0.00000000000E+00 0.  1.
         21   -1    0    0  503  502  0.00000000000E+00 -0.00000000000E+00 -0.10782470096E+04  0.10782470096E+04  0.00000000000E+00 0.  1.
         25    1    1    2    0    0 -0.32628289316E+03 -0.38329754543E+02 -0.38010192033E+03  0.51771823060E+03  0.12500000000E+03 0.  0.
         21    1    1    2  503  501  0.25877065601E+03  0.41465273667E+02 -0.60114492341E+03  0.65578719130E+03  0.00000000000E+00 0.  1.
          2    1    1    2  501    0  0.67512237153E+02 -0.31355191241E+01  0.13103747564E+04  0.13121165100E+04  0.00000000000E+00 0.  1.
<mgrwt>
<rscale>  4 0.30746084E+03</rscale>
<asrwt>0</asrwt>
<pdfrwt beam="1">  1       21 0.16588415E+00 0.30746084E+03</pdfrwt>
<pdfrwt beam="2">  1        2 0.21651922E+00 0.30746084E+03</pdfrwt>
<totfact> 0.40506764E+01</totfact>
</mgrwt>
</event>
<event>
 5    0  0.3040647E+000  0.2240297E+03  0.7546771E-02  0.1130914E+00
         21   -1    0    0  503  502  0.00000000000E+00  0.00000000000E+00  0.58459766931E+02  0.58459766931E+02  0.00000000000E+00 0. -1.
          2   -1    0    0  502    0 -0.00000000000E+00 -0.00000000000E+00 -0.26996701503E+04  0.26996701503E+04  0.00000000000E+00 0. -1.
         25    1    1    2    0    0 -0.16461790968E+03  0.16796077171E+03 -0.44419153640E+03  0.51791987607E+03  0.12500000000E+03 0.  0.
         21    1    1    2  503  501  0.15684336280E+03 -0.42899572312E+02 -0.31933976583E+03  0.35835471226E+03  0.00000000000E+00 0. -1.
          2    1    1    2  501    0  0.77745468817E+01 -0.12506119939E+03 -0.18776790811E+04  0.18818553289E+04  0.00000000000E+00 0. -1.
<mgrwt>
<rscale>  4 0.22402965E+03</rscale>
<asrwt>0</asrwt>
<pdfrwt beam="1">  1       21 0.89938093E-02 0.22402965E+03</pdfrwt>
<pdfrwt beam="2">  1        2 0.41533392E+00 0.22402965E+03</pdfrwt>
<totfact> 0.39144211E+03</totfact>
</mgrwt>
</event>
<event>
 5    0  0.3040647E+000  0.3790718E+03  0.7546771E-02  0.1051277E+00
         21   -1    0    0  503  502  0.00000000000E+00  0.00000000000E+00  0.67636634813E+02  0.67636634813E+02  0.00000000000E+00 0. -1.
          2   -1    0    0  502    0 -0.00000000000E+00 -0.00000000000E+00 -0.20818709110E+04  0.20818709110E+04  0.00000000000E+00 0. -1.
         25    1    1    2    0    0 -0.31839000558E+03 -0.16339601601E+03 -0.90130661674E+03  0.97777761842E+03  0.12500000000E+03 0.  0.
         21    1    1    2  503  501  0.35724646015E+01  0.20396776924E+02 -0.67405539519E+02  0.70514521696E+02  0.00000000000E+00 0. -1.
          2    1    1    2  501    0  0.31481754098E+03  0.14299923908E+03 -0.10455221199E+04  0.11012154057E+04  0.00000000000E+00 0. -1.
<mgrwt>
<rscale>  4 0.37907183E+03</rscale>
<asrwt>0</asrwt>
<pdfrwt beam="1">  1       21 0.10405637E-01 0.37907183E+03</pdfrwt>
<pdfrwt beam="2">  1        2 0.32028780E+00 0.37907183E+03</pdfrwt>
<totfact> 0.61871834E+03</totfact>
</mgrwt>
</event>
<event>
 5    0  0.3040647E+000  0.2597046E+03  0.7546771E-02  0.1107321E+00
          2   -1    0    0  502    0 -0.00000000000E+00  0.00000000000E+00  0.13880585373E+04  0.13880585373E+04  0.00000000000E+00 0. -1.
         21   -1    0    0  503  502  0.00000000000E+00 -0.00000000000E+00 -0.44632184955E+03  0.44632184955E+03  0.00000000000E+00 0. -1.
         25    1    1    2    0    0  0.21178121350E+03 -0.10046840643E+02 -0.21057132091E+03  0.32390971364E+03  0.12500000000E+03 0.  0.
         21    1    1    2  503  501  0.13284322668E+02 -0.28069324160E+02 -0.16786230926E+03  0.17071061788E+03  0.00000000000E+00 0. -1.
          2    1    1    2  501    0 -0.22506553617E+03  0.38116164803E+02  0.13201703179E+04  0.13397600554E+04  0.00000000000E+00 0. -1.
<mgrwt>
<rscale>  4 0.25970458E+03</rscale>
<asrwt>0</asrwt>
<pdfrwt beam="1">  1       21 0.68664901E-01 0.25970458E+03</pdfrwt>
<pdfrwt beam="2">  1        2 0.21354747E+00 0.25970458E+03</pdfrwt>
<totfact> 0.37211785E+02</totfact>
</mgrwt>
</event>
<event>
 5    0  0.3040647E+000  0.2651701E+03  0.7546771E-02  0.1104076E+00
          1   -1    0    0  502    0 -0.00000000000E+00  0.00000000000E+00  0.12603265328E+04  0.12603265328E+04  0.00000000000E+00 0. -1.
         21   -1    0    0  503  502  0.00000000000E+00 -0.00000000000E+00 -0.64156779913E+02  0.64156779913E+02  0.00000000000E+00 0. -1.
         25    1    1    2    0    0  0.22746389294E+03  0.54317377655E+02  0.87570075821E+03  0.91496831532E+03  0.12500000000E+03 0.  0.
         21    1    1    2  503  501 -0.12150960742E+03  0.64131055591E+01  0.10007169619E+03  0.15754382564E+03  0.00000000000E+00 0. -1.
          1    1    1    2  501    0 -0.10595428552E+03 -0.60730483214E+02  0.22039729844E+03  0.25197117171E+03  0.00000000000E+00 0. -1.
<mgrwt>
<rscale>  4 0.26517013E+03</rscale>
<asrwt>0</asrwt>
<pdfrwt beam="1">  1       21 0.98702748E-02 0.26517013E+03</pdfrwt>
<pdfrwt beam="2">  1        1 0.19389637E+00 0.26517013E+03</pdfrwt>
<totfact> 0.95547962E+03</totfact>
</mgrwt>
</event>
<event>
 5    0  0.3040647E+000  0.2175083E+03  0.7546771E-02  0.1135754E+00
         21   -1    0    0  503  502  0.00000000000E+00  0.00000000000E+00  0.12989138748E+03  0.12989138748E+03  0.00000000000E+00 0.  1.
          2   -1    0    0  502    0 -0.00000000000E+00 -0.00000000000E+00 -0.22207407580E+04  0.22207407580E+04  0.00000000000E+00 0.  1.
         25    1    1    2    0    0 -0.13973610644E+03 -0.23841334603E+03 -0.75177595947E+03  0.81065356117E+03  0.12500000000E+03 0.  0.
         21    1    1    2  503  501  0.11955335482E+03  0.12012500252E+03  0.24407736807E+02  0.17122721307E+03  0.00000000000E+00 0.  1.
          2    1    1    2  501    0  0.20182751622E+02  0.11828834350E+03 -0.13634811479E+04  0.13687513712E+04  0.00000000000E+00 0.  1.
<mgrwt>
<rscale>  4 0.21750834E+03</rscale>
<asrwt>0</asrwt>
<pdfrwt beam="1">  1       21 0.19983291E-01 0.21750834E+03</pdfrwt>
<pdfrwt beam="2">  1        2 0.34165242E+00 0.21750834E+03</pdfrwt>
<totfact> 0.16813947E+03</totfact>
</mgrwt>
</event>
<event>
 5    0  0.3040647E+000  0.2562888E+03  0.7546771E-02  0.1109394E+00
         21   -1    0    0  503  502  0.00000000000E+00  0.00000000000E+00  0.19542981634E+03  0.19542981634E+03  0.00000000000E+00 0.  1.
          2   -1    0    0  502    0 -0.00000000000E+00 -0.00000000000E+00 -0.83067243827E+03  0.83067243827E+03  0.00000000000E+00 0.  1.
         25    1    1    2    0    0  0.20854209204E+03 -0.14404649750E+03 -0.48605745543E+03  0.56224198311E+03  0.12500000000E+03 0.  0.
         21    1    1    2  503  501 -0.50296555170E+02  0.24557857697E+02  0.11831150014E+03  0.13088331789E+03  0.00000000000E+00 0.  1.
          2    1    1    2  501    0 -0.15824553687E+03  0.11948863981E+03 -0.26749666664E+03  0.33297695362E+03  0.00000000000E+00 0.  1.
<mgrwt>
<rscale>  4 0.25628885E+03</rscale>
<asrwt>0</asrwt>
<pdfrwt beam="1">  1       21 0.30066125E-01 0.25628885E+03</pdfrwt>
<pdfrwt beam="2">  1        2 0.12779576E+00 0.25628885E+03</pdfrwt>
<totfact> 0.44395842E+03</totfact>
</mgrwt>
</event>
<event>
 5    0  0.3040647E+000  0.2519888E+03  0.7546771E-02  0.1112054E+00
         21   -1    0    0  503  502  0.00000000000E+00  0.00000000000E+00  0.38455126506E+03  0.38455126506E+03  0.00000000000E+00 0. -1.
          2   -1    0    0  502    0 -0.00000000000E+00 -0.00000000000E+00 -0.15771087238E+04  0.15771087238E+04  0.00000000000E+00 0. -1.
         25    1    1    2    0    0 -0.23332812599E+03  0.78581686801E+02 -0.14027421517E+03  0.30970784834E+03  0.12500000000E+03 0.  0.
         21    1    1    2  503  501  0.29423664128E+02 -0.72881836304E+01  0.29041338425E+03  0.29199110155E+03  0.00000000000E+00 0. -1.
          2    1    1    2  501    0  0.20390446187E+03 -0.71293503171E+02 -0.13426966279E+04  0.13599610390E+04  0.00000000000E+00 0. -1.
<mgrwt>
<rscale>  4 0.25198878E+03</rscale>
<asrwt>0</asrwt>
<pdfrwt beam="1">  1       21 0.59161733E-01 0.25198878E+03</pdfrwt>
<pdfrwt beam="2">  1        2 0.24263211E+00 0.25198878E+03</pdfrwt>
<totfact> 0.40978275E+02</totfact>
</mgrwt>
</event>
<event>
 5    0  0.3040647E+000  0.2664365E+03  0.7546771E-02  0.1103337E+00
         21   -1    0    0  503  502  0.00000000000E+00  0.00000000000E+00  0.12733151510E+03  0.12733151510E+03  0.00000000000E+00 0.  1.
          2   -1    0    0  502    0 -0.00000000000E+00 -0.00000000000E+00 -0.75181405645E+03  0.75181405645E+03  0.00000000000E+00 0.  1.
         25    1    1    2    0    0  0.23196801131E+03 -0.64883672328E+02 -0.20677491442E+03  0.34117431679E+03  0.12500000000E+03 0.  0.
         21    1    1    2  503  501  0.11385075686E+00  0.37222055472E+02  0.19641622974E+02  0.42086669251E+02  0.00000000000E+00 0.  1.
          2    1    1    2  501    0 -0.23208186206E+03  0.27661616856E+02 -0.43734924991E+03  0.49588458550E+03  0.00000000000E+00 0.  1.
<mgrwt>
<rscale>  4 0.26643652E+03</rscale>
<asrwt>0</asrwt>
<pdfrwt beam="1">  1       21 0.19589464E-01 0.26643652E+03</pdfrwt>
<pdfrwt beam="2">  1        2 0.11566370E+00 0.26643652E+03</pdfrwt>
<totfact> 0.11434719E+04</totfact>
</mgrwt>
</event>
<event>
 5    0  0.3040647E+000  0.2260836E+03  0.7546771E-02  0.1129427E+00
         21   -1    0    0  503  502  0.00000000000E+00  0.00000000000E+00  0.30010729777E+03  0.30010729777E+03  0.00000000000E+00 0. -1.
          3   -1    0    0  502    0 -0.00000000000E+00 -0.00000000000E+00 -0.19572614712E+04  0.19572614712E+04  0.00000000000E+00 0.  1.
         25    1    1    2    0    0  0.20276406310E+03  0.42147613881E+01  0.95780910150E+02  0.25676840196E+03  0.12500000000E+03 0.  0.
         21    1    1    2  503  501 -0.16230044531E+02 -0.28096589191E+02  0.11690648269E+03  0.12132583552E+03  0.00000000000E+00 0. -1.
          3    1    1    2  501    0 -0.18653401857E+03  0.23881827803E+02 -0.18698415662E+04  0.18792745315E+04  0.00000000000E+00 0.  1.
<mgrwt>
<rscale>  4 0.22608364E+03</rscale>
<asrwt>0</asrwt>
<pdfrwt beam="1">  1       21 0.46170352E-01 0.22608364E+03</pdfrwt>
<pdfrwt beam="2">  1        3 0.30111716E+00 0.22608364E+03</pdfrwt>
<totfact> 0.97063583E+00</totfact>
</mgrwt>
</event>
<event>
 5    0  0.3040647E+000  0.2986161E+03  0.7546771E-02  0.1085934E+00
         21   -1    0    0  501  502  0.00000000000E+00  0.00000000000E+00  0.32641119682E+03  0.32641119682E+03  0.00000000000E+00 0.  1.
         -4   -1    0    0    0  501 -0.00000000000E+00 -0.00000000000E+00 -0.56970674380E+03  0.56970674380E+03  0.00000000000E+00 0.  1.
         25    1    1    2    0    0  0.26390709013E+03  0.66499392723E+02 -0.26157795189E+03  0.39763946782E+03  0.12500000000E+03 0.  0.
         21    1    1    2  503  502  0.11155949749E+02 -0.70218602763E+02  0.17004051407E+03  0.18430649422E+03  0.00000000000E+00 0.  1.
         -4    1    1    2    0  503 -0.27506303988E+03  0.37192100393E+01 -0.15175810915E+03  0.31417197858E+03  0.00000000000E+00 0.  1.
<mgrwt>
<rscale>  4 0.29861608E+03</rscale>
<asrwt>0</asrwt>
<pdfrwt beam="1">  1       21 0.50217108E-01 0.29861608E+03</pdfrwt>
<pdfrwt beam="2">  1       -4 0.87647190E-01 0.29861608E+03</pdfrwt>
<totfact> 0.18070394E+02</totfact>
</mgrwt>
</event>
<event>
 5    0  0.3040647E+000  0.2334110E+03  0.7546771E-02  0.1124262E+00
          1   -1    0    0  502    0 -0.00000000000E+00  0.00000000000E+00  0.22116377373E+04  0.22116377373E+04  0.00000000000E+00 0.  1.
         21   -1    0    0  503  502  0.00000000000E+00 -0.00000000000E+00 -0.15079230020E+03  0.15079230020E+03  0.00000000000E+00 0. -1.
         25    1    1    2    0    0  0.19070892293E+03 -0.60720141627E+02  0.42300765946E+02  0.23973148246E+03  0.12500000000E+03 0.  0.
         21    1    1    2  503  501  0.66838623101E+01  0.67461491249E+02 -0.23026620843E+02  0.71595754654E+02  0.00000000000E+00 0.  1.
          1    1    1    2  501    0 -0.19739278524E+03 -0.67413496224E+01  0.20415712920E+04  0.20511028004E+04  0.00000000000E+00 0.  1.
<mgrwt>
<rscale>  4 0.23341099E+03</rscale>
<asrwt>0</asrwt>
<pdfrwt beam="1">  1       21 0.23198817E-01 0.23341099E+03</pdfrwt>
<pdfrwt beam="2">  1        1 0.34025194E+00 0.23341099E+03</pdfrwt>
<totfact> 0.47864883E+02</totfact>
</mgrwt>
</event>
<event>
 5    0  0.3040647E+000  0.2210767E+03  0.7546771E-02  0.1133083E+00
         21   -1    0    0  501  502  0.00000000000E+00  0.00000000000E+00  0.28607585843E+03  0.28607585843E+03  0.00000000000E+00 0.  1.
         -1   -1    0    0    0  501 -0.00000000000E+00 -0.00000000000E+00 -0.57748331139E+03  0.57748331139E+03  0.00000000000E+00 0.  1.
         25    1    1    2    0    0 -0.18351888928E+03 -0.89222066942E+02 -0.33578305728E+03  0.41232877842E+03  0.12500000000E+03 0.  0.
         21    1    1    2  503  502  0.80076439115E+02 -0.46930493591E+02  0.19970606385E+03  0.22022084204E+03  0.00000000000E+00 0.  1.
         -1    1    1    2    0  503  0.10344245017E+03  0.13615256053E+03 -0.15533045953E+03  0.23100954936E+03  0.00000000000E+00 0.  1.
<mgrwt>
<rscale>  4 0.22107668E+03</rscale>
<asrwt>0</asrwt>
<pdfrwt beam="1">  1       21 0.44011671E-01 0.22107668E+03</pdfrwt>
<pdfrwt beam="2">  1       -1 0.88843586E-01 0.22107668E+03</pdfrwt>
<totfact> 0.59889524E+02</totfact>
</mgrwt>
</event>
<event>
 5    0  0.3040647E+000  0.2993614E+03  0.7546771E-02  0.1085560E+00
         21   -1    0    0  501  502  0.00000000000E+00  0.00000000000E+00  0.17416486432E+03  0.17416486432E+03  0.00000000000E+00 0. -1.
         -2   -1    0    0    0  501 -0.00000000000E+00 -0.00000000000E+00 -0.13789586277E+04  0.13789586277E+04  0.00000000000E+00 0. -1.
         25    1    1    2    0    0  0.22167245129E+03 -0.19027064261E+03 -0.61412889401E+02  0.32363271788E+03  0.12500000000E+03 0.  0.
         21    1    1    2  503  502 -0.29747336010E+02  0.75999020348E+00  0.19606772776E+02  0.35635756250E+02  0.00000000000E+00 0.  1.
         -2    1    1    2    0  503 -0.19192511528E+03  0.18951065240E+03 -0.11629876468E+04  0.11938550179E+04  0.00000000000E+00 0. -1.
<mgrwt>
<rscale>  4 0.29936144E+03</rscale>
<asrwt>0</asrwt>
<pdfrwt beam="1">  1       21 0.26794594E-01 0.29936144E+03</pdfrwt>
<pdfrwt beam="2">  1       -2 0.21214748E+00 0.29936144E+03</pdfrwt>
<totfact> 0.12762058E+02</totfact>
</mgrwt>
</event>
<event>
 5    0  0.3040647E+000  0.2546970E+03  0.7546771E-02  0.1110372E+00
          2   -1    0    0  502    0 -0.00000000000E+00  0.00000000000E+00  0.84597188754E+03  0.84597188754E+03  0.00000000000E+00 0.  1.
         21   -1    0    0  503  502  0.00000000000E+00 -0.00000000000E+00 -0.11110966272E+03  0.11110966272E+03  0.00000000000E+00 0.  1.
         25    1    1    2    0    0  0.16189245119E+03 -0.17573319791E+03  0.17045687438E+03  0.31901703501E+03  0.12500000000E+03 0.  0.
         21    1    1    2  503  501 -0.11000673403E+02  0.19270266063E+02 -0.96775684543E+01  0.24207711594E+02  0.00000000000E+00 0.  1.
          2    1    1    2  501    0 -0.15089177778E+03  0.15646293185E+03  0.57408291889E+03  0.61385680367E+03  0.00000000000E+00 0.  1.
<mgrwt>
<rscale>  4 0.25469696E+03</rscale>
<asrwt>0</asrwt>
<pdfrwt beam="1">  1       21 0.17093795E-01 0.25469696E+03</pdfrwt>
<pdfrwt beam="2">  1        2 0.13014952E+00 0.25469696E+03</pdfrwt>
<totfact> 0.12714131E+04</totfact>
</mgrwt>
</event>
<event>
 5    0  0.3040647E+000  0.3127168E+03  0.7546771E-02  0.1079051E+00
          1   -1    0    0  502    0 -0.00000000000E+00  0.00000000000E+00  0.21921487744E+04  0.21921487744E+04  0.00000000000E+00 0.  1.
         21   -1    0    0  503  502  0.00000000000E+00 -0.00000000000E+00 -0.32236687902E+03  0.32236687902E+03  0.00000000000E+00 0. -1.
         25    1    1    2    0    0  0.22600770374E+03 -0.14084585922E+03  0.64423399022E+03  0.70822275618E+03  0.12500000000E+03 0.  0.
         21    1    1    2  503  501  0.19767898574E+02 -0.23895619983E+02 -0.27505512648E+03  0.27679792823E+03  0.00000000000E+00 0. -1.
          1    1    1    2  501    0 -0.24577560231E+03  0.16474147921E+03  0.15006030316E+04  0.15294949690E+04  0.00000000000E+00 0.  1.
<mgrwt>
<rscale>  4 0.31271679E+03</rscale>
<asrwt>0</asrwt>
<pdfrwt beam="1">  1       21 0.49594906E-01 0.31271679E+03</pdfrwt>
<pdfrwt beam="2">  1        1 0.33725365E+00 0.31271679E+03</pdfrwt>
<totfact> 0.10299548E+02</totfact>
</mgrwt>
</event>
<event>
 5    0  0.3040647E+000  0.2646263E+03  0.7546771E-02  0.1104395E+00
         21   -1    0    0  503  502  0.00000000000E+00  0.00000000000E+00  0.10683312201E+03  0.10683312201E+03  0.00000000000E+00 0.  1.
          2   -1    0    0  502    0 -0.00000000000E+00 -0.00000000000E+00 -0.34312052931E+04  0.34312052931E+04  0.00000000000E+00 0.  1.
         25    1    1    2    0    0  0.41017169584E+02 -0.27658865464E+03 -0.20845225571E+03  0.37048756388E+03  0.12500000000E+03 0.  0.
         21    1    1    2  503  501 -0.10504230272E+03  0.15499386893E+03 -0.33930129988E+03  0.38753368482E+03  0.00000000000E+00 0.  1.
          2    1    1    2  501    0  0.64025133135E+02  0.12159478571E+03 -0.27766186155E+04  0.27800171664E+04  0.00000000000E+00 0.  1.
<mgrwt>
<rscale>  4 0.26462633E+03</rscale>
<asrwt>0</asrwt>
<pdfrwt beam="1">  1       21 0.16435867E-01 0.26462633E+03</pdfrwt>
<pdfrwt beam="2">  1        2 0.52787767E+00 0.26462633E+03</pdfrwt>
<totfact> 0.46862755E+02</totfact>
</mgrwt>
</event>
<event>
 5    0  0.3040647E+000  0.2957188E+03  0.7546771E-02  0.1087401E+00
         21   -1    0    0  503  502  0.00000000000E+00  0.00000000000E+00  0.12053291981E+03  0.12053291981E+03  0.00000000000E+00 0. -1.
          1   -1    0    0  502    0 -0.00000000000E+00 -0.00000000000E+00 -0.15272718006E+04  0.15272718006E+04  0.00000000000E+00 0. -1.
         25    1    1    2    0    0  0.17335271089E+03 -0.22614795025E+03 -0.23203712857E+03  0.38814982521E+03  0.12500000000E+03 0.  0.
         21    1    1    2  503  501 -0.25332509977E+02  0.64156950762E+01  0.21886813974E+02  0.34087091853E+02  0.00000000000E+00 0.  1.
          1    1    1    2  501    0 -0.14802020091E+03  0.21973225518E+03 -0.11965885662E+04  0.12255678033E+04  0.00000000000E+00 0. -1.
<mgrwt>
<rscale>  4 0.29571876E+03</rscale>
<asrwt>0</asrwt>
<pdfrwt beam="1">  1       21 0.18543528E-01 0.29571876E+03</pdfrwt>
<pdfrwt beam="2">  1        1 0.23496487E+00 0.29571876E+03</pdfrwt>
<totfact> 0.19803525E+03</totfact>
</mgrwt>
</event>
<event>
 5    0  0.3040647E+000  0.3225190E+03  0.7546771E-02  0.1074496E+00
         21   -1    0    0  503  502  0.00000000000E+00  0.00000000000E+00  0.17131930848E+03  0.17131930848E+03  0.00000000000E+00 0.  1.
          1   -1    0    0  502    0 -0.00000000000E+00 -0.00000000000E+00 -0.18152193273E+04  0.18152193273E+04  0.00000000000E+00 0. -1.
         25    1    1    2    0    0  0.19955201796E+03 -0.17847313394E+03 -0.47064112357E+03  0.55569932032E+03  0.12500000000E+03 0.  0.
         21    1    1    2  503  501  0.25612840868E+02 -0.34960716511E+02  0.10598927925E+03  0.11450762696E+03  0.00000000000E+00 0.  1.
          1    1    1    2  501    0 -0.22516485883E+03  0.21343385045E+03 -0.12792481746E+04  0.13163316885E+04  0.00000000000E+00 0. -1.
<mgrwt>
<rscale>  4 0.32251897E+03</rscale>
<asrwt>0</asrwt>
<pdfrwt beam="1">  1       21 0.26356817E-01 0.32251897E+03</pdfrwt>
<pdfrwt beam="2">  1        1 0.27926450E+00 0.32251897E+03</pdfrwt>
<totfact> 0.64808898E+02</totfact>
</mgrwt>
</event>
<event>
 5    0  0.3040647E+000  0.2552990E+03  0.7546771E-02  0.1110001E+00
         21   -1    0    0  501  502  0.00000000000E+00  0.00000000000E+00  0.82764678061E+03  0.82764678061E+03  0.00000000000E+00 0. -1.
         -1   -1    0    0    0  501 -0.00000000000E+00 -0.00000000000E+00 -0.10888999956E+03  0.10888999956E+03  0.00000000000E+00 0. -1.
         25    1    1    2    0    0 -0.21116869441E+03  0.17983493241E+02  0.60613033769E+03  0.65416711152E+03  0.12500000000E+03 0.  0.
         21    1    1    2  503  502 -0.10490054339E+02  0.23350494062E+02  0.36105282502E+02  0.44259216413E+02  0.00000000000E+00 0.  1.
         -1    1    1    2    0  503  0.22165874875E+03 -0.41333987303E+02  0.76521160850E+02  0.23811045223E+03  0.00000000000E+00 0. -1.
<mgrwt>
<rscale>  4 0.25529900E+03</rscale>
<asrwt>0</asrwt>
<pdfrwt beam="1">  1       21 0.12733027E+00 0.25529900E+03</pdfrwt>
<pdfrwt beam="2">  1       -1 0.16752308E-01 0.25529900E+03</pdfrwt>
<totfact> 0.10783823E+03</totfact>
</mgrwt>
</event>
<event>
 5    0  0.3040647E+000  0.2737425E+03  0.7546771E-02  0.1099157E+00
         21   -1    0    0  503  502  0.00000000000E+00  0.00000000000E+00  0.17317583128E+04  0.17317583128E+04  0.00000000000E+00 0. -1.
          2   -1    0    0  502    0 -0.00000000000E+00 -0.00000000000E+00 -0.13665786997E+04  0.13665786997E+04  0.00000000000E+00 0. -1.
         25    1    1    2    0    0 -0.20327696805E+03 -0.24878606866E+02 -0.42644584321E+03  0.48930719187E+03  0.12500000000E+03 0.  0.
         21    1    1    2  503  501 -0.64143336245E+02  0.66217093487E+01  0.16799292347E+04  0.16811663952E+04  0.00000000000E+00 0. -1.
          2    1    1    2  501    0  0.26742030430E+03  0.18256897517E+02 -0.88830377844E+03  0.92786342543E+03  0.00000000000E+00 0. -1.
<mgrwt>
<rscale>  4 0.27374249E+03</rscale>
<asrwt>0</asrwt>
<pdfrwt beam="1">  1       21 0.26642436E+00 0.27374249E+03</pdfrwt>
<pdfrwt beam="2">  1        2 0.21024288E+00 0.27374249E+03</pdfrwt>
<totfact> 0.99572236E+00</totfact>
</mgrwt>
</event>
<event>
 5    0  0.3040647E+000  0.3088453E+03  0.7546771E-02  0.1080901E+00
         21   -1    0    0  503  502  0.00000000000E+00  0.00000000000E+00  0.30228865458E+03  0.30228865458E+03  0.00000000000E+00 0.  1.
          2   -1    0    0  502    0 -0.00000000000E+00 -0.00000000000E+00 -0.13226936757E+04  0.13226936757E+04  0.00000000000E+00 0.  1.
         25    1    1    2    0    0 -0.24704444971E+01  0.28603995963E+03  0.49073397819E+02  0.31600341766E+03  0.12500000000E+03 0.  0.
         21    1    1    2  503  501 -0.30340666128E+02 -0.57287695607E+01  0.10065873587E+03  0.10528796668E+03  0.00000000000E+00 0.  1.
          2    1    1    2  501    0  0.32811110625E+02 -0.28031119007E+03 -0.11701371548E+04  0.12036909459E+04  0.00000000000E+00 0.  1.
<mgrwt>
<rscale>  4 0.30884532E+03</rscale>
<asrwt>0</asrwt>
<pdfrwt beam="1">  1       21 0.46505946E-01 0.30884532E+03</pdfrwt>
<pdfrwt beam="2">  1        2 0.20349134E+00 0.30884532E+03</pdfrwt>
<totfact> 0.91147038E+02</totfact>
</mgrwt>
</event>
<event>
 5    0  0.3040647E+000  0.2158898E+03  0.7546771E-02  0.1136985E+00
         21   -1    0    0  501  502  0.00000000000E+00  0.00000000000E+00  0.77032025157E+03  0.77032025157E+03  0.00000000000E+00 0. -1.
         -4   -1    0    0    0  501 -0.00000000000E+00 -0.00000000000E+00 -0.20634978757E+04  0.20634978757E+04  0.00000000000E+00 0.  1.
         25    1    1    2    0    0  0.17072960002E+03  0.11570146862E+03  0.50288140089E+03  0.55771868314E+03  0.12500000000E+03 0.  0.
         21    1    1    2  503  502 -0.70321297166E+01 -0.51491367295E+02  0.23336000025E+03  0.23907676900E+03  0.00000000000E+00 0.  1.
         -4    1    1    2    0  503 -0.16369747030E+03 -0.64210101326E+02 -0.20294190253E+04  0.20370226752E+04  0.00000000000E+00 0.  1.
<mgrwt>
<rscale>  4 0.21588977E+03</rscale>
<asrwt>0</asrwt>
<pdfrwt beam="1">  1       21 0.11851081E+00 0.21588977E+03</pdfrwt>
<pdfrwt beam="2">  1       -4 0.31746121E+00 0.21588977E+03</pdfrwt>
<totfact> 0.65418207E-01</totfact>
</mgrwt>
</event>
<event>
 5    0  0.3040647E+000  0.2498183E+03  0.7546771E-02  0.1113420E+00
         21   -1    0    0  503  502  0.00000000000E+00  0.00000000000E+00  0.16507806206E+04  0.16507806206E+04  0.00000000000E+00 0. -1.
          2   -1    0    0  502    0 -0.00000000000E+00 -0.00000000000E+00 -0.14846620752E+04  0.14846620752E+04  0.00000000000E+00 0. -1.
         25    1    1    2    0    0  0.19225724415E+03 -0.55583028903E+02 -0.25184660642E+03  0.34511452331E+03  0.12500000000E+03 0.  0.
         21    1    1    2  503  501  0.25154757215E+02  0.21163247164E+02  0.15937638026E+04  0.15941027894E+04  0.00000000000E+00 0. -1.
          2    1    1    2  501    0 -0.21741200137E+03  0.34419781739E+02 -0.11757986508E+04  0.11962253830E+04  0.00000000000E+00 0. -1.
<mgrwt>
<rscale>  4 0.24981832E+03</rscale>
<asrwt>0</asrwt>
<pdfrwt beam="1">  1       21 0.25396625E+00 0.24981832E+03</pdfrwt>
<pdfrwt beam="2">  1        2 0.22840955E+00 0.24981832E+03</pdfrwt>
<totfact> 0.10457595E+01</totfact>
</mgrwt>
</event>
<event>
 5    0  0.3040647E+000  0.2760409E+03  0.7546771E-02  0.1097871E+00
         21   -1    0    0  501  502  0.00000000000E+00  0.00000000000E+00  0.13236836435E+03  0.13236836435E+03  0.00000000000E+00 0.  1.
         -1   -1    0    0    0  501 -0.00000000000E+00 -0.00000000000E+00 -0.56761956613E+03  0.56761956613E+03  0.00000000000E+00 0.  1.
         25    1    1    2    0    0  0.77756142580E+02  0.23351139379E+03 -0.16493260097E+03  0.32156080545E+03  0.12500000000E+03 0.  0.
         21    1    1    2  503  502 -0.32106925951E+02 -0.20052787673E+03 -0.17679677537E+03  0.26925709614E+03  0.00000000000E+00 0.  1.
         -1    1    1    2    0  503 -0.45649216628E+02 -0.32983517062E+02 -0.93521825443E+02  0.10917002890E+03  0.00000000000E+00 0.  1.
<mgrwt>
<rscale>  4 0.27604092E+03</rscale>
<asrwt>0</asrwt>
<pdfrwt beam="1">  1       21 0.20364364E-01 0.27604092E+03</pdfrwt>
<pdfrwt beam="2">  1       -1 0.87326087E-01 0.27604092E+03</pdfrwt>
<totfact> 0.27742022E+03</totfact>
</mgrwt>
</event>
<event>
 5    0  0.3040647E+000  0.1904236E+03  0.7546771E-02  0.1158080E+00
          3   -1    0    0  502    0 -0.00000000000E+00  0.00000000000E+00  0.13500683355E+03  0.13500683355E+03  0.00000000000E+00 0.  1.
         21   -1    0    0  503  502  0.00000000000E+00 -0.00000000000E+00 -0.22046641239E+04  0.22046641239E+04  0.00000000000E+00 0.  1.
         25    1    1    2    0    0 -0.21740097134E+03 -0.29615519857E+01 -0.51337578367E+03  0.57135947387E+03  0.12500000000E+03 0.  0.
         21    1    1    2  503  501  0.80518611672E+02  0.17265052384E+02 -0.16161353477E+04  0.16182319954E+04  0.00000000000E+00 0.  1.
          3    1    1    2  501    0  0.13688235966E+03 -0.14303500399E+02  0.59853840956E+02  0.15007948823E+03  0.00000000000E+00 0.  1.
<mgrwt>
<rscale>  4 0.19042356E+03</rscale>
<asrwt>0</asrwt>
<pdfrwt beam="1">  1       21 0.33917907E+00 0.19042356E+03</pdfrwt>
<pdfrwt beam="2">  1        3 0.20770284E-01 0.19042356E+03</pdfrwt>
<totfact> 0.20983803E+01</totfact>
</mgrwt>
</event>
<event>
 5    0  0.3040647E+000  0.2275880E+03  0.7546771E-02  0.1128349E+00
         21   -1    0    0  503  502  0.00000000000E+00  0.00000000000E+00  0.29975667632E+03  0.29975667632E+03  0.00000000000E+00 0. -1.
          1   -1    0    0  502    0 -0.00000000000E+00 -0.00000000000E+00 -0.48616724036E+03  0.48616724036E+03  0.00000000000E+00 0. -1.
         25    1    1    2    0    0  0.24199286087E+03 -0.16735674480E+02  0.17271109352E+03  0.32294697605E+03  0.12500000000E+03 0.  0.
         21    1    1    2  503  501 -0.56632947625E+02  0.10827341825E+02  0.12648717597E+01  0.57672541025E+02  0.00000000000E+00 0.  1.
          1    1    1    2  501    0 -0.18535991325E+03  0.59083326551E+01 -0.36038652931E+03  0.40530439961E+03  0.00000000000E+00 0. -1.
<mgrwt>
<rscale>  4 0.22758804E+03</rscale>
<asrwt>0</asrwt>
<pdfrwt beam="1">  1       21 0.46116412E-01 0.22758804E+03</pdfrwt>
<pdfrwt beam="2">  1        1 0.74794959E-01 0.22758804E+03</pdfrwt>
<totfact> 0.23011812E+03</totfact>
</mgrwt>
</event>
<event>
 5    0  0.3040647E+000  0.2223120E+03  0.7546771E-02  0.1132171E+00
          2   -1    0    0  502    0 -0.00000000000E+00  0.00000000000E+00  0.76145119629E+03  0.76145119629E+03  0.00000000000E+00 0.  1.
         21   -1    0    0  503  502  0.00000000000E+00 -0.00000000000E+00 -0.80840653634E+02  0.80840653634E+02  0.00000000000E+00 0.  1.
         25    1    1    2    0    0 -0.10855585874E+03 -0.18123563337E+03  0.33557537750E+03  0.41577224926E+03  0.12500000000E+03 0.  0.
         21    1    1    2  503  501  0.67778833260E+01  0.44540522623E+02  0.39478359184E+01  0.45225913660E+02  0.00000000000E+00 0.  1.
          2    1    1    2  501    0  0.10177797542E+03  0.13669511075E+03  0.34108732924E+03  0.38129368700E+03  0.00000000000E+00 0.  1.
<mgrwt>
<rscale>  4 0.22231200E+03</rscale>
<asrwt>0</asrwt>
<pdfrwt beam="1">  1       21 0.12437024E-01 0.22231200E+03</pdfrwt>
<pdfrwt beam="2">  1        2 0.11714633E+00 0.22231200E+03</pdfrwt>
<totfact> 0.26144100E+04</totfact>
</mgrwt>
</event>
<event>
 5    0  0.3040647E+000  0.2303409E+03  0.7546771E-02  0.1126400E+00
          1   -1    0    0  502    0 -0.00000000000E+00  0.00000000000E+00  0.17094963268E+04  0.17094963268E+04  0.00000000000E+00 0.  1.
         21   -1    0    0  503  502  0.00000000000E+00 -0.00000000000E+00 -0.13320377161E+03  0.13320377161E+03  0.00000000000E+00 0. -1.
         25    1    1    2    0    0  0.15718683632E+03 -0.14281752032E+03  0.64567036529E+01  0.24651822376E+03  0.12500000000E+03 0.  0.
         21    1    1    2  503  501  0.44931855478E+00  0.32143525585E+02  0.28814558928E+02  0.43170440470E+02  0.00000000000E+00 0.  1.
          1    1    1    2  501    0 -0.15763615488E+03  0.11067399474E+03  0.15410212926E+04  0.15530114342E+04  0.00000000000E+00 0.  1.
<mgrwt>
<rscale>  4 0.23034094E+03</rscale>
<asrwt>0</asrwt>
<pdfrwt beam="1">  1       21 0.20492889E-01 0.23034094E+03</pdfrwt>
<pdfrwt beam="2">  1        1 0.26299942E+00 0.23034094E+03</pdfrwt>
<totfact> 0.12822271E+03</totfact>
</mgrwt>
</event>
<event>
 5    0  0.3040647E+000  0.3219243E+03  0.7546771E-02  0.1074767E+00
         -1   -1    0    0    0  501 -0.00000000000E+00  0.00000000000E+00  0.36603131852E+03  0.36603131852E+03  0.00000000000E+00 0. -1.
         21   -1    0    0  501  502  0.00000000000E+00 -0.00000000000E+00 -0.97152176432E+03  0.97152176432E+03  0.00000000000E+00 0. -1.
         25    1    1    2    0    0 -0.19083914614E+03 -0.10796905315E+03 -0.37837100673E+03  0.45482580717E+03  0.12500000000E+03 0.  0.
         21    1    1    2  503  502 -0.94889338923E+02 -0.14239748595E+02 -0.47538332667E+03  0.48497016852E+03  0.00000000000E+00 0. -1.
         -1    1    1    2    0  503  0.28572848506E+03  0.12220880174E+03  0.24826388760E+03  0.39775710714E+03  0.00000000000E+00 0. -1.
<mgrwt>
<rscale>  4 0.32192432E+03</rscale>
<asrwt>0</asrwt>
<pdfrwt beam="1">  1       21 0.14946489E+00 0.32192432E+03</pdfrwt>
<pdfrwt beam="2">  1       -1 0.56312510E-01 0.32192432E+03</pdfrwt>
<totfact> 0.84905835E+01</totfact>
</mgrwt>
</event>
<event>
 5    0  0.3040647E+000  0.2440957E+03  0.7546771E-02  0.1117094E+00
         21   -1    0    0  503  502  0.00000000000E+00  0.00000000000E+00  0.10652496544E+03  0.10652496544E+03  0.00000000000E+00 0.  1.
          2   -1    0    0  502    0 -0.00000000000E+00 -0.00000000000E+00 -0.76209936207E+03  0.76209936207E+03  0.00000000000E+00 0.  1.
         25    1    1    2    0    0 -0.92879211979E+02 -0.21472054678E+03 -0.32430016191E+03  0.41895949237E+03  0.12500000000E+03 0.  0.
         21    1    1    2  503  501 -0.23880341321E+02  0.55061283893E+02  0.42611702196E+01  0.60167875625E+02  0.00000000000E+00 0.  1.
          2    1    1    2  501    0  0.11675955330E+03  0.15965926289E+03 -0.33553540494E+03  0.38949695952E+03  0.00000000000E+00 0.  1.
<mgrwt>
<rscale>  4 0.24409573E+03</rscale>
<asrwt>0</asrwt>
<pdfrwt beam="1">  1       21 0.16388456E-01 0.24409573E+03</pdfrwt>
<pdfrwt beam="2">  1        2 0.11724606E+00 0.24409573E+03</pdfrwt>
<totfact> 0.15738242E+04</totfact>
</mgrwt>
</event>
<event>
 5    0  0.3040647E+000  0.4388769E+03  0.7546771E-02  0.1031092E+00
         21   -1    0    0  503  502  0.00000000000E+00  0.00000000000E+00  0.11454210358E+03  0.11454210358E+03  0.00000000000E+00 0.  1.
          2   -1    0    0  502    0 -0.00000000000E+00 -0.00000000000E+00 -0.28943823672E+04  0.28943823672E+04  0.00000000000E+00 0.  1.
         25    1    1    2    0    0 -0.37297518162E+03  0.21429932125E+03 -0.85577472831E+03  0.96592446434E+03  0.12500000000E+03 0.  0.
         21    1    1    2  503  501  0.94469243470E-01 -0.27351914114E+02  0.32492827793E+02  0.42472579250E+02  0.00000000000E+00 0. -1.
          2    1    1    2  501    0  0.37288071238E+03 -0.18694740713E+03 -0.19565583631E+04  0.20005274272E+04  0.00000000000E+00 0.  1.
<mgrwt>
<rscale>  4 0.43887694E+03</rscale>
<asrwt>0</asrwt>
<pdfrwt beam="1">  1       21 0.17621864E-01 0.43887694E+03</pdfrwt>
<pdfrwt beam="2">  1        2 0.44528954E+00 0.43887694E+03</pdfrwt>
<totfact> 0.81319620E+02</totfact>
</mgrwt>
</event>
<event>
 5    0  0.3040647E+000  0.2906027E+03  0.7546771E-02  0.1090035E+00
          1   -1    0    0  502    0 -0.00000000000E+00  0.00000000000E+00  0.10084564227E+04  0.10084564227E+04  0.00000000000E+00 0.  1.
         21   -1    0    0  503  502  0.00000000000E+00 -0.00000000000E+00 -0.16509287980E+03  0.16509287980E+03  0.00000000000E+00 0. -1.
         25    1    1    2    0    0 -0.61610133048E+02  0.21880812169E+03  0.15470211301E+02  0.25987906812E+03  0.12500000000E+03 0.  0.
         21    1    1    2  503  501 -0.43933853185E+02  0.28413517062E+02  0.10704069105E+02  0.53404948300E+02  0.00000000000E+00 0.  1.
          1    1    1    2  501    0  0.10554398623E+03 -0.24722163875E+03  0.81718926248E+03  0.86026528607E+03  0.00000000000E+00 0.  1.
<mgrwt>
<rscale>  4 0.29060266E+03</rscale>
<asrwt>0</asrwt>
<pdfrwt beam="1">  1       21 0.25398905E-01 0.29060266E+03</pdfrwt>
<pdfrwt beam="2">  1        1 0.15514714E+00 0.29060266E+03</pdfrwt>
<totfact> 0.25070631E+03</totfact>
</mgrwt>
</event>
<event>
 5    0  0.3040647E+000  0.3177937E+03  0.7546771E-02  0.1076669E+00
          2   -1    0    0  502    0 -0.00000000000E+00  0.00000000000E+00  0.43418681908E+03  0.43418681908E+03  0.00000000000E+00 0.  1.
         21   -1    0    0  503  502  0.00000000000E+00 -0.00000000000E+00 -0.35337831446E+03  0.35337831446E+03  0.00000000000E+00 0.  1.
         25    1    1    2    0    0  0.16386790667E+03 -0.23717692024E+03  0.11619063940E+03  0.33500872678E+03  0.12500000000E+03 0.  0.
         21    1    1    2  503  501  0.45286850149E+02  0.24561022085E+02 -0.12985751742E+03  0.13970367723E+03  0.00000000000E+00 0. -1.
          2    1    1    2  501    0 -0.20915475682E+03  0.21261589816E+03  0.94475382632E+02  0.31285272953E+03  0.00000000000E+00 0.  1.
<mgrwt>
<rscale>  4 0.31779367E+03</rscale>
<asrwt>0</asrwt>
<pdfrwt beam="1">  1       21 0.54365895E-01 0.31779367E+03</pdfrwt>
<pdfrwt beam="2">  1        2 0.66797972E-01 0.31779367E+03</pdfrwt>
<totfact> 0.27975738E+03</totfact>
</mgrwt>
</event>
<event>
 5    0  0.3040647E+000  0.2730466E+03  0.7546771E-02  0.1099549E+00
          2   -1    0    0  502    0 -0.00000000000E+00  0.00000000000E+00  0.15064366142E+04  0.15064366142E+04  0.00000000000E+00 0.  1.
         21   -1    0    0  503  502  0.00000000000E+00 -0.00000000000E+00 -0.19892584325E+03  0.19892584325E+03  0.00000000000E+00 0. -1.
         25    1    1    2    0    0  0.14508938210E+03  0.23538457723E+03  0.26163647322E+03  0.40066878106E+03  0.12500000000E+03 0.  0.
         21    1    1    2  503  501 -0.10659892190E+02 -0.40215296765E+02 -0.11374045971E+03  0.12111067488E+03  0.00000000000E+00 0. -1.
          2    1    1    2  501    0 -0.13442948991E+03 -0.19516928047E+03  0.11596147575E+04  0.11835830016E+04  0.00000000000E+00 0.  1.
<mgrwt>
<rscale>  4 0.27304656E+03</rscale>
<asrwt>0</asrwt>
<pdfrwt beam="1">  1       21 0.30603977E-01 0.27304656E+03</pdfrwt>
<pdfrwt beam="2">  1        2 0.23175947E+00 0.27304656E+03</pdfrwt>
<totfact> 0.17143668E+03</totfact>
</mgrwt>
</event>
<event>
 5    0  0.3040647E+000  0.2790252E+03  0.7546771E-02  0.1096223E+00
          1   -1    0    0  502    0 -0.00000000000E+00  0.00000000000E+00  0.65623214450E+03  0.65623214450E+03  0.00000000000E+00 0. -1.
         21   -1    0    0  503  502  0.00000000000E+00 -0.00000000000E+00 -0.42853878784E+03  0.42853878784E+03  0.00000000000E+00 0.  1.
         25    1    1    2    0    0  0.16456177235E+03  0.20426226635E+03 -0.14100315322E+03  0.32297142225E+03  0.12500000000E+03 0.  0.
         21    1    1    2  503  501 -0.21818272712E+02 -0.14500425936E+01 -0.16860726976E+03  0.17001926674E+03  0.00000000000E+00 0.  1.
          1    1    1    2  501    0 -0.14274349964E+03 -0.20281222375E+03  0.53730377964E+03  0.59178024334E+03  0.00000000000E+00 0. -1.
<mgrwt>
<rscale>  4 0.27902524E+03</rscale>
<asrwt>0</asrwt>
<pdfrwt beam="1">  1       21 0.65929044E-01 0.27902524E+03</pdfrwt>
<pdfrwt beam="2">  1        1 0.10095879E+00 0.27902524E+03</pdfrwt>
<totfact> 0.69726984E+02</totfact>
</mgrwt>
</event>
<event>
 5    0  0.3040647E+000  0.3379994E+03  0.7546771E-02  0.1067651E+00
         21   -1    0    0  501  502  0.00000000000E+00  0.00000000000E+00  0.24815725325E+03  0.24815725325E+03  0.00000000000E+00 0.  1.
         -1   -1    0    0    0  501 -0.00000000000E+00 -0.00000000000E+00 -0.20026401754E+04  0.20026401754E+04  0.00000000000E+00 0. -1.
         25    1    1    2    0    0  0.74292225706E+02 -0.33073798480E+03 -0.34443272203E+02  0.36293014257E+03  0.12500000000E+03 0.  0.
         21    1    1    2  503  502  0.40508309543E+02  0.40323915242E+02  0.58695589936E+02  0.81927489650E+02  0.00000000000E+00 0.  1.
         -1    1    1    2    0  503 -0.11480053525E+03  0.29041406956E+03 -0.17787352398E+04  0.18059397964E+04  0.00000000000E+00 0. -1.
<mgrwt>
<rscale>  4 0.33799940E+03</rscale>
<asrwt>0</asrwt>
<pdfrwt beam="1">  1       21 0.38178040E-01 0.33799940E+03</pdfrwt>
<pdfrwt beam="2">  1       -1 0.30809848E+00 0.33799940E+03</pdfrwt>
<totfact> 0.19944384E+01</totfact>
</mgrwt>
</event>
<event>
 5    0  0.3040647E+000  0.4414343E+03  0.7546771E-02  0.1030308E+00
          1   -1    0    0  502    0 -0.00000000000E+00  0.00000000000E+00  0.36634679193E+03  0.36634679193E+03  0.00000000000E+00 0.  1.
         21   -1    0    0  503  502  0.00000000000E+00 -0.00000000000E+00 -0.14870490795E+04  0.14870490795E+04  0.00000000000E+00 0.  1.
         25    1    1    2    0    0  0.82216626409E+02  0.39676800579E+03 -0.10845538723E+04  0.11645026947E+04  0.12500000000E+03 0.  0.
         21    1    1    2  503  501  0.65417029098E+02  0.29974578783E+01 -0.21646956195E+03  0.22615800605E+03  0.00000000000E+00 0. -1.
          1    1    1    2  501    0 -0.14763365551E+03 -0.39976546367E+03  0.18032114671E+03  0.46273517062E+03  0.00000000000E+00 0.  1.
<mgrwt>
<rscale>  4 0.44143433E+03</rscale>
<asrwt>0</asrwt>
<pdfrwt beam="1">  1       21 0.22877678E+00 0.44143433E+03</pdfrwt>
<pdfrwt beam="2">  1        1 0.56361045E-01 0.44143433E+03</pdfrwt>
<totfact> 0.56080935E+01</totfact>
</mgrwt>
</event>
<event>
 5    0  0.3040647E+000  0.2503906E+03  0.7546771E-02  0.1113058E+00
         21   -1    0    0  503  502  0.00000000000E+00  0.00000000000E+00  0.12094578204E+03  0.12094578204E+03  0.00000000000E+00 0.  1.
          2   -1    0    0  502    0 -0.00000000000E+00 -0.00000000000E+00 -0.97620252681E+03  0.97620252681E+03  0.00000000000E+00 0.  1.
         25    1    1    2    0    0 -0.15098465846E+03  0.18017698924E+03 -0.80983898823E+02  0.27828673416E+03  0.12500000000E+03 0.  0.
         21    1    1    2  503  501  0.13603565586E+01 -0.26740165064E+02 -0.16695214217E+02  0.31553401962E+02  0.00000000000E+00 0. -1.
          2    1    1    2  501    0  0.14962430190E+03 -0.15343682418E+03 -0.75757763173E+03  0.78730817272E+03  0.00000000000E+00 0.  1.
<mgrwt>
<rscale>  4 0.25039063E+03</rscale>
<asrwt>0</asrwt>
<pdfrwt beam="1">  1       21 0.18607043E-01 0.25039063E+03</pdfrwt>
<pdfrwt beam="2">  1        2 0.15018501E+00 0.25039063E+03</pdfrwt>
<totfact> 0.89626729E+03</totfact>
</mgrwt>
</event>
<event>
 5    0  0.3040647E+000  0.2243827E+03  0.7546771E-02  0.1130657E+00
         21   -1    0    0  503  502  0.00000000000E+00  0.00000000000E+00  0.13793498856E+03  0.13793498856E+03  0.00000000000E+00 0.  1.
          2   -1    0    0  502    0 -0.00000000000E+00 -0.00000000000E+00 -0.49485440949E+03  0.49485440949E+03  0.00000000000E+00 0.  1.
         25    1    1    2    0    0  0.15520316240E+03  0.12788667382E+03 -0.18091136270E+03  0.29798816102E+03  0.12500000000E+03 0.  0.
         21    1    1    2  503  501 -0.51410108409E+02  0.19541818756E+02  0.28680139464E+02  0.62027673877E+02  0.00000000000E+00 0.  1.
          2    1    1    2  501    0 -0.10379305399E+03 -0.14742849257E+03 -0.20468819769E+03  0.27277356315E+03  0.00000000000E+00 0.  1.
<mgrwt>
<rscale>  4 0.22438267E+03</rscale>
<asrwt>0</asrwt>
<pdfrwt beam="1">  1       21 0.21220768E-01 0.22438267E+03</pdfrwt>
<pdfrwt beam="2">  1        2 0.76131447E-01 0.22438267E+03</pdfrwt>
<totfact> 0.16195519E+04</totfact>
</mgrwt>
</event>
<event>
 5    0  0.3040647E+000  0.2726932E+03  0.7546771E-02  0.1099748E+00
          2   -1    0    0  502    0 -0.00000000000E+00  0.00000000000E+00  0.85421146574E+03  0.85421146574E+03  0.00000000000E+00 0.  1.
         21   -1    0    0  503  502  0.00000000000E+00 -0.00000000000E+00 -0.11418960575E+03  0.11418960575E+03  0.00000000000E+00 0.  1.
         25    1    1    2    0    0 -0.75210119266E+02 -0.22433914717E+03  0.54964316396E+03  0.61132415516E+03  0.12500000000E+03 0.  0.
         21    1    1    2  503  501 -0.32850560564E+02 -0.67234998196E+01 -0.73563644701E+01  0.34329009269E+02  0.00000000000E+00 0.  1.
          2    1    1    2  501    0  0.10806067983E+03  0.23106264699E+03  0.19773506051E+03  0.32274790706E+03  0.00000000000E+00 0.  1.
<mgrwt>
<rscale>  4 0.27269320E+03</rscale>
<asrwt>0</asrwt>
<pdfrwt beam="1">  1       21 0.17567632E-01 0.27269320E+03</pdfrwt>
<pdfrwt beam="2">  1        2 0.13141714E+00 0.27269320E+03</pdfrwt>
<totfact> 0.11887777E+04</totfact>
</mgrwt>
</event>
<event>
 5    0  0.3040647E+000  0.3124178E+03  0.7546771E-02  0.1079193E+00
         21   -1    0    0  503  502  0.00000000000E+00  0.00000000000E+00  0.13697502290E+03  0.13697502290E+03  0.00000000000E+00 0. -1.
          2   -1    0    0  502    0 -0.00000000000E+00 -0.00000000000E+00 -0.10890004607E+04  0.10890004607E+04  0.00000000000E+00 0. -1.
         25    1    1    2    0    0  0.86429248160E+02  0.20425335899E+03 -0.13193847235E+03  0.28674415440E+03  0.12500000000E+03 0.  0.
         21    1    1    2  503  501  0.80311927248E+02  0.60683553386E+02 -0.59952028304E+02  0.11716119241E+03  0.00000000000E+00 0. -1.
          2    1    1    2  501    0 -0.16674117541E+03 -0.26493691238E+03 -0.76013493713E+03  0.82207013676E+03  0.00000000000E+00 0. -1.
<mgrwt>
<rscale>  4 0.31241776E+03</rscale>
<asrwt>0</asrwt>
<pdfrwt beam="1">  1       21 0.21073080E-01 0.31241776E+03</pdfrwt>
<pdfrwt beam="2">  1        2 0.16753853E+00 0.31241776E+03</pdfrwt>
<totfact> 0.59618229E+03</totfact>
</mgrwt>
</event>
<event>
 5    0  0.3040647E+000  0.5793400E+03  0.7546771E-02  0.9949221E-01
         21   -1    0    0  503  502  0.00000000000E+00  0.00000000000E+00  0.95034488702E+03  0.95034488702E+03  0.00000000000E+00 0. -1.
          1   -1    0    0  502    0 -0.00000000000E+00 -0.00000000000E+00 -0.20676392558E+04  0.20676392558E+04  0.00000000000E+00 0.  1.
         25    1    1    2    0    0  0.27623793914E+03 -0.31749733176E+03 -0.69281129829E+02  0.44445115552E+03  0.12500000000E+03 0.  0.
         21    1    1    2  503  501  0.10250138105E+03 -0.15436521955E+03  0.69981867303E+03  0.72393461669E+03  0.00000000000E+00 0. -1.
          1    1    1    2  501    0 -0.37873932019E+03  0.47186255131E+03 -0.17478319120E+04  0.18495983706E+04  0.00000000000E+00 0.  1.
<mgrwt>
<rscale>  4 0.57933998E+03</rscale>
<asrwt>0</asrwt>
<pdfrwt beam="1">  1       21 0.14620691E+00 0.57933998E+03</pdfrwt>
<pdfrwt beam="2">  1        1 0.31809834E+00 0.57933998E+03</pdfrwt>
<totfact> 0.85502837E+00</totfact>
</mgrwt>
</event>
<event>
 5    0  0.3040647E+000  0.2896645E+03  0.7546771E-02  0.1090524E+00
         21   -1    0    0  503  502  0.00000000000E+00  0.00000000000E+00  0.23630070532E+03  0.23630070532E+03  0.00000000000E+00 0.  1.
          2   -1    0    0  502    0 -0.00000000000E+00 -0.00000000000E+00 -0.48083843635E+03  0.48083843635E+03  0.00000000000E+00 0. -1.
         25    1    1    2    0    0  0.25990769527E+03  0.26990501479E+02  0.76313112968E+02  0.29954830736E+03  0.12500000000E+03 0.  0.
         21    1    1    2  503  501 -0.48187227094E+02 -0.26550198108E+01 -0.98008071757E+02  0.10924577848E+03  0.00000000000E+00 0.  1.
          2    1    1    2  501    0 -0.21172046818E+03 -0.24335481668E+02 -0.22284277224E+03  0.30834505583E+03  0.00000000000E+00 0. -1.
<mgrwt>
<rscale>  4 0.28966446E+03</rscale>
<asrwt>0</asrwt>
<pdfrwt beam="1">  1       21 0.36353955E-01 0.28966446E+03</pdfrwt>
<pdfrwt beam="2">  1        2 0.73975144E-01 0.28966446E+03</pdfrwt>
<totfact> 0.57899650E+03</totfact>
</mgrwt>
</event>
<event>
 5    0  0.3040647E+000  0.2570211E+03  0.7546771E-02  0.1108946E+00
         21   -1    0    0  501  502  0.00000000000E+00  0.00000000000E+00  0.43531789020E+03  0.43531789020E+03  0.00000000000E+00 0.  1.
         -1   -1    0    0    0  501 -0.00000000000E+00 -0.00000000000E+00 -0.17758567124E+03  0.17758567124E+03  0.00000000000E+00 0.  1.
         25    1    1    2    0    0 -0.20464341409E+03 -0.55488722039E+01  0.17581614631E+03  0.29739877978E+03  0.12500000000E+03 0.  0.
         21    1    1    2  503  502 -0.29282481923E+02  0.43907501632E+02  0.56148609389E+02  0.77058411504E+02  0.00000000000E+00 0.  1.
         -1    1    1    2    0  503  0.23392589601E+03 -0.38358629428E+02  0.25767463260E+02  0.23844637015E+03  0.00000000000E+00 0.  1.
<mgrwt>
<rscale>  4 0.25702110E+03</rscale>
<asrwt>0</asrwt>
<pdfrwt beam="1">  1       21 0.66971983E-01 0.25702110E+03</pdfrwt>
<pdfrwt beam="2">  1       -1 0.27320873E-01 0.25702110E+03</pdfrwt>
<totfact> 0.21913746E+03</totfact>
</mgrwt>
</event>
<event>
 5    0  0.3040647E+000  0.3334903E+03  0.7546771E-02  0.1069603E+00
          2   -1    0    0  502    0 -0.00000000000E+00  0.00000000000E+00  0.76099011178E+03  0.76099011178E+03  0.00000000000E+00 0. -1.
         21   -1    0    0  503  502  0.00000000000E+00 -0.00000000000E+00 -0.29755849569E+03  0.29755849569E+03  0.00000000000E+00 0. -1.
         25    1    1    2    0    0  0.19132860309E+03 -0.21040540328E+03 -0.35133842321E+02  0.31262830161E+03  0.12500000000E+03 0.  0.
         21    1    1    2  503  501  0.18921504877E+02 -0.24001465743E+02 -0.80870220454E+02  0.86452797878E+02  0.00000000000E+00 0. -1.
          2    1    1    2  501    0 -0.21025010797E+03  0.23440686902E+03  0.57943567886E+03  0.65946750798E+03  0.00000000000E+00 0. -1.
<mgrwt>
<rscale>  4 0.33349034E+03</rscale>
<asrwt>0</asrwt>
<pdfrwt beam="1">  1       21 0.45778230E-01 0.33349034E+03</pdfrwt>
<pdfrwt beam="2">  1        2 0.11707540E+00 0.33349034E+03</pdfrwt>
<totfact> 0.20757808E+03</totfact>
</mgrwt>
</event>
<event>
 5    0  0.3040647E+000  0.2634132E+03  0.7546771E-02  0.1105110E+00
          2   -1    0    0  502    0 -0.00000000000E+00  0.00000000000E+00  0.53330387390E+03  0.53330387390E+03  0.00000000000E+00 0. -1.
         21   -1    0    0  503  502  0.00000000000E+00 -0.00000000000E+00 -0.33805664242E+03  0.33805664242E+03  0.00000000000E+00 0. -1.
         25    1    1    2    0    0  0.21306641242E+03  0.10065298315E+03 -0.12318970460E+03  0.29381800904E+03  0.12500000000E+03 0.  0.
         21    1    1    2  503  501 -0.23743301919E+02  0.33031673783E+02 -0.95129483460E+02  0.10346233364E+03  0.00000000000E+00 0.  1.
          2    1    1    2  501    0 -0.18932311051E+03 -0.13368465693E+03  0.41356641953E+03  0.47408017364E+03  0.00000000000E+00 0. -1.
<mgrwt>
<rscale>  4 0.26341319E+03</rscale>
<asrwt>0</asrwt>
<pdfrwt beam="1">  1       21 0.52008714E-01 0.26341319E+03</pdfrwt>
<pdfrwt beam="2">  1        2 0.82046750E-01 0.26341319E+03</pdfrwt>
<totfact> 0.24786697E+03</totfact>
</mgrwt>
</event>
<event>
 5    0  0.3040647E+000  0.2115220E+03  0.7546771E-02  0.1140366E+00
         21   -1    0    0  503  502  0.00000000000E+00  0.00000000000E+00  0.73069760443E+02  0.73069760443E+02  0.00000000000E+00 0. -1.
          2   -1    0    0  502    0 -0.00000000000E+00 -0.00000000000E+00 -0.96104905684E+03  0.96104905684E+03  0.00000000000E+00 0. -1.
         25    1    1    2    0    0 -0.37517154277E+02  0.22738904216E+03 -0.51021033394E+03  0.57363132604E+03  0.12500000000E+03 0.  0.
         21    1    1    2  503  501  0.51806676881E+02 -0.85205057330E+02 -0.72065327917E+02  0.12303351191E+03  0.00000000000E+00 0. -1.
          2    1    1    2  501    0 -0.14289522604E+02 -0.14218398483E+03 -0.30570363454E+03  0.33745397933E+03  0.00000000000E+00 0. -1.
<mgrwt>
<rscale>  4 0.21152198E+03</rscale>
<asrwt>0</asrwt>
<pdfrwt beam="1">  1       21 0.11241502E-01 0.21152198E+03</pdfrwt>
<pdfrwt beam="2">  1        2 0.14785369E+00 0.21152198E+03</pdfrwt>
<totfact> 0.23168068E+04</totfact>
</mgrwt>
</event>
<event>
 5    0  0.3040647E+000  0.4863662E+03  0.7546771E-02  0.1017400E+00
         21   -1    0    0  503  502  0.00000000000E+00  0.00000000000E+00  0.12294535207E+03  0.12294535207E+03  0.00000000000E+00 0. -1.
          2   -1    0    0  502    0 -0.00000000000E+00 -0.00000000000E+00 -0.27057550295E+04  0.27057550295E+04  0.00000000000E+00 0.  1.
         25    1    1    2    0    0  0.43818941573E+03 -0.22621433611E+03 -0.63531328703E+03  0.81389855793E+03  0.12500000000E+03 0.  0.
         21    1    1    2  503  501 -0.25850381725E+02  0.15857094344E+02 -0.31676954434E+02  0.43853382065E+02  0.00000000000E+00 0.  1.
          2    1    1    2  501    0 -0.41233903401E+03  0.21035724176E+03 -0.19158194360E+04  0.19709484416E+04  0.00000000000E+00 0.  1.
<mgrwt>
<rscale>  4 0.48636617E+03</rscale>
<asrwt>0</asrwt>
<pdfrwt beam="1">  1       21 0.18914669E-01 0.48636617E+03</pdfrwt>
<pdfrwt beam="2">  1        2 0.41627001E+00 0.48636617E+03</pdfrwt>
<totfact> 0.90239878E+02</totfact>
</mgrwt>
</event>
<event>
 5    0  0.3040647E+000  0.2459044E+03  0.7546771E-02  0.1115921E+00
         21   -1    0    0  501  502  0.00000000000E+00  0.00000000000E+00  0.37427721057E+02  0.37427721057E+02  0.00000000000E+00 0.  1.
         -2   -1    0    0    0  501 -0.00000000000E+00 -0.00000000000E+00 -0.18193344700E+04  0.18193344700E+04  0.00000000000E+00 0.  1.
         25    1    1    2    0    0  0.39889664431E+02  0.23271104503E+03 -0.89420191815E+03  0.93325649541E+03  0.12500000000E+03 0.  0.
         21    1    1    2  503  502 -0.31831583442E+02 -0.19378605613E+03 -0.56075889365E+03  0.59415218763E+03  0.00000000000E+00 0.  1.
         -2    1    1    2    0  503 -0.80580809891E+01 -0.38924988899E+02 -0.32694593719E+03  0.32935350807E+03  0.00000000000E+00 0.  1.
<mgrwt>
<rscale>  4 0.24590441E+03</rscale>
<asrwt>0</asrwt>
<pdfrwt beam="1">  1       21 0.57581110E-02 0.24590441E+03</pdfrwt>
<pdfrwt beam="2">  1       -2 0.27989761E+00 0.24590441E+03</pdfrwt>
<totfact> 0.83792003E+02</totfact>
</mgrwt>
</event>
<event>
 5    0  0.3040647E+000  0.2249924E+03  0.7546771E-02  0.1130215E+00
          2   -1    0    0  502    0 -0.00000000000E+00  0.00000000000E+00  0.81913414445E+03  0.81913414445E+03  0.00000000000E+00 0. -1.
         21   -1    0    0  503  502  0.00000000000E+00 -0.00000000000E+00 -0.20390571945E+03  0.20390571945E+03  0.00000000000E+00 0.  1.
         25    1    1    2    0    0 -0.20507167041E+03 -0.69451945646E+02 -0.78937388051E+02  0.26217184058E+03  0.12500000000E+03 0.  0.
         21    1    1    2  503  501  0.28536313108E+02  0.14087497993E+02 -0.95591479957E+01  0.33228844035E+02  0.00000000000E+00 0.  1.
          2    1    1    2  501    0  0.17653535730E+03  0.55364447653E+02  0.70372496104E+03  0.72763917929E+03  0.00000000000E+00 0. -1.
<mgrwt>
<rscale>  4 0.22499239E+03</rscale>
<asrwt>0</asrwt>
<pdfrwt beam="1">  1       21 0.31370111E-01 0.22499239E+03</pdfrwt>
<pdfrwt beam="2">  1        2 0.12602064E+00 0.22499239E+03</pdfrwt>
<totfact> 0.42013091E+03</totfact>
</mgrwt>
</event>
<event>
 5    0  0.3040647E+000  0.1815757E+03  0.7546771E-02  0.1166287E+00
         21   -1    0    0  503  502  0.00000000000E+00  0.00000000000E+00  0.18696875358E+03  0.18696875358E+03  0.00000000000E+00 0.  1.
          3   -1    0    0  502    0 -0.00000000000E+00 -0.00000000000E+00 -0.99744373254E+03  0.99744373254E+03  0.00000000000E+00 0.  1.
         25    1    1    2    0    0 -0.21523518252E+03 -0.35042264618E+02 -0.26844738932E+03  0.36775419092E+03  0.12500000000E+03 0.  0.
         21    1    1    2  503  501  0.94246629724E+02  0.19829039364E+02  0.11408988340E+03  0.14930545707E+03  0.00000000000E+00 0.  1.
          3    1    1    2  501    0  0.12098855279E+03  0.15213225254E+02 -0.65611747304E+03  0.66735283813E+03  0.00000000000E+00 0.  1.
<mgrwt>
<rscale>  4 0.18157571E+03</rscale>
<asrwt>0</asrwt>
<pdfrwt beam="1">  1       21 0.28764423E-01 0.18157571E+03</pdfrwt>
<pdfrwt beam="2">  1        3 0.15345288E+00 0.18157571E+03</pdfrwt>
<totfact> 0.18634199E+02</totfact>
</mgrwt>
</event>
<event>
 5    0  0.3040647E+000  0.5674086E+03  0.7546771E-02  0.9975429E-01
          1   -1    0    0  502    0 -0.00000000000E+00  0.00000000000E+00  0.53709364171E+03  0.53709364171E+03  0.00000000000E+00 0.  1.
         21   -1    0    0  503  502  0.00000000000E+00 -0.00000000000E+00 -0.63859924412E+03  0.63859924412E+03  0.00000000000E+00 0.  1.
         25    1    1    2    0    0 -0.42971877231E+03  0.36557448344E+03  0.24043840578E+02  0.57836496478E+03  0.12500000000E+03 0.  0.
         21    1    1    2  503  501  0.22724416599E+01 -0.33307892918E+02 -0.35073349006E+02  0.48422304078E+02  0.00000000000E+00 0. -1.
          1    1    1    2  501    0  0.42744633065E+03 -0.33226659052E+03 -0.90476093983E+02  0.54890561697E+03  0.00000000000E+00 0.  1.
<mgrwt>
<rscale>  4 0.56740859E+03</rscale>
<asrwt>0</asrwt>
<pdfrwt beam="1">  1       21 0.98246037E-01 0.56740859E+03</pdfrwt>
<pdfrwt beam="2">  1        1 0.82629792E-01 0.56740859E+03</pdfrwt>
<totfact> 0.33806158E+02</totfact>
</mgrwt>
</event>
<event>
 5    0  0.3040647E+000  0.3046280E+03  0.7546771E-02  0.1082950E+00
         -2   -1    0    0    0  501 -0.00000000000E+00  0.00000000000E+00  0.22673860538E+03  0.22673860538E+03  0.00000000000E+00 0.  1.
         21   -1    0    0  501  502  0.00000000000E+00 -0.00000000000E+00 -0.60921973595E+03  0.60921973595E+03  0.00000000000E+00 0. -1.
         25    1    1    2    0    0 -0.21358994466E+03  0.26313421110E+03 -0.22293764155E+03  0.42448376828E+03  0.12500000000E+03 0.  0.
         21    1    1    2  503  502  0.28794239612E+02 -0.92589976335E+02 -0.12415337016E+03  0.15753117556E+03  0.00000000000E+00 0. -1.
         -2    1    1    2    0  503  0.18479570505E+03 -0.17054423476E+03 -0.35390118858E+02  0.25394339749E+03  0.00000000000E+00 0.  1.
<mgrwt>
<rscale>  4 0.30462799E+03</rscale>
<asrwt>0</asrwt>
<pdfrwt beam="1">  1       21 0.93726111E-01 0.30462799E+03</pdfrwt>
<pdfrwt beam="2">  1       -2 0.34882863E-01 0.30462799E+03</pdfrwt>
<totfact> 0.57022716E+02</totfact>
</mgrwt>
</event>
<event>
 5    0  0.3040647E+000  0.3481917E+03  0.7546771E-02  0.1063360E+00
         21   -1    0    0  503  502  0.00000000000E+00  0.00000000000E+00  0.46207326322E+03  0.46207326322E+03  0.00000000000E+00 0.  1.
          2   -1    0    0  502    0 -0.00000000000E+00 -0.00000000000E+00 -0.14667396517E+04  0.14667396517E+04  0.00000000000E+00 0. -1.
         25    1    1    2    0    0  0.15423689558E+03 -0.28605779528E+03  0.35846528600E+03  0.49974037606E+03  0.12500000000E+03 0.  0.
         21    1    1    2  503  501 -0.52630005344E+02 -0.27870176169E+02 -0.58943793297E+02  0.83791616230E+02  0.00000000000E+00 0. -1.
          2    1    1    2  501    0 -0.10160689024E+03  0.31392797145E+03 -0.13041878812E+04  0.13452809227E+04  0.00000000000E+00 0. -1.
<mgrwt>
<rscale>  4 0.34819174E+03</rscale>
<asrwt>0</asrwt>
<pdfrwt beam="1">  1       21 0.71088195E-01 0.34819174E+03</pdfrwt>
<pdfrwt beam="2">  1        2 0.22565225E+00 0.34819174E+03</pdfrwt>
<totfact> 0.29854540E+02</totfact>
</mgrwt>
</event>
<event>
 5    0  0.3040647E+000  0.4307712E+03  0.7546771E-02  0.1033617E+00
         21   -1    0    0  501  502  0.00000000000E+00  0.00000000000E+00  0.44389917153E+03  0.44389917153E+03  0.00000000000E+00 0. -1.
         -1   -1    0    0    0  501 -0.00000000000E+00 -0.00000000000E+00 -0.45177391998E+03  0.45177391998E+03  0.00000000000E+00 0. -1.
         25    1    1    2    0    0 -0.24500190539E+03  0.34051874211E+03  0.52537850169E+02  0.44086752327E+03  0.12500000000E+03 0.  0.
         21    1    1    2  503  502 -0.14705086030E+02 -0.26209423921E+02  0.23971022122E+02  0.38441947909E+02  0.00000000000E+00 0. -1.
         -1    1    1    2    0  503  0.25970699142E+03 -0.31430931818E+03 -0.84383620739E+02  0.41636362034E+03  0.00000000000E+00 0. -1.
<mgrwt>
<rscale>  4 0.43077118E+03</rscale>
<asrwt>0</asrwt>
<pdfrwt beam="1">  1       21 0.68292180E-01 0.43077118E+03</pdfrwt>
<pdfrwt beam="2">  1       -1 0.69503680E-01 0.43077118E+03</pdfrwt>
<totfact> 0.36412144E+02</totfact>
</mgrwt>
</event>
<event>
 5    0  0.3040647E+000  0.2309689E+03  0.7546771E-02  0.1125960E+00
          2   -1    0    0  502    0 -0.00000000000E+00  0.00000000000E+00  0.20962714224E+04  0.20962714224E+04  0.00000000000E+00 0.  1.
         21   -1    0    0  503  502  0.00000000000E+00 -0.00000000000E+00 -0.53090470804E+02  0.53090470804E+02  0.00000000000E+00 0.  1.
         25    1    1    2    0    0  0.13370310201E+03  0.19740307329E+03  0.46050395824E+03  0.53341671177E+03  0.12500000000E+03 0.  0.
         21    1    1    2  503  501 -0.43666226219E+02 -0.33044928332E+02  0.57896448670E+02  0.79691313010E+02  0.00000000000E+00 0.  1.
          2    1    1    2  501    0 -0.90036875796E+02 -0.16435814496E+03  0.15247805447E+04  0.15362538684E+04  0.00000000000E+00 0.  1.
<mgrwt>
<rscale>  4 0.23096892E+03</rscale>
<asrwt>0</asrwt>
<pdfrwt beam="1">  1       21 0.81677664E-02 0.23096892E+03</pdfrwt>
<pdfrwt beam="2">  1        2 0.32250323E+00 0.23096892E+03</pdfrwt>
<totfact> 0.97802897E+03</totfact>
</mgrwt>
</event>
<event>
 5    0  0.3040647E+000  0.2746903E+03  0.7546771E-02  0.1098625E+00
         21   -1    0    0  503  502  0.00000000000E+00  0.00000000000E+00  0.40693102448E+02  0.40693102448E+02  0.00000000000E+00 0.  1.
          1   -1    0    0  502    0 -0.00000000000E+00 -0.00000000000E+00 -0.26946540077E+04  0.26946540077E+04  0.00000000000E+00 0.  1.
         25    1    1    2    0    0 -0.91786223674E+02  0.23143048657E+03 -0.13259794817E+04  0.13549285468E+04  0.12500000000E+03 0.  0.
         21    1    1    2  503  501  0.11839368941E+03  0.22381776166E+02 -0.37677630169E+03  0.39557349648E+03  0.00000000000E+00 0.  1.
          1    1    1    2  501    0 -0.26607465738E+02 -0.25381226273E+03 -0.95120512190E+03  0.98484506694E+03  0.00000000000E+00 0.  1.
<mgrwt>
<rscale>  4 0.27469033E+03</rscale>
<asrwt>0</asrwt>
<pdfrwt beam="1">  1       21 0.62604782E-02 0.27469033E+03</pdfrwt>
<pdfrwt beam="2">  1        1 0.41456209E+00 0.27469033E+03</pdfrwt>
<totfact> 0.23891258E+03</totfact>
</mgrwt>
</event>
<event>
 5    0  0.3040647E+000  0.2492306E+03  0.7546771E-02  0.1113792E+00
         21   -1    0    0  503  502  0.00000000000E+00  0.00000000000E+00  0.52758974216E+02  0.52758974216E+02  0.00000000000E+00 0. -1.
          2   -1    0    0  502    0 -0.00000000000E+00 -0.00000000000E+00 -0.12522545200E+04  0.12522545200E+04  0.00000000000E+00 0. -1.
         25    1    1    2    0    0 -0.26703093613E+02  0.22079826437E+03 -0.54051074541E+03  0.59769707600E+03  0.12500000000E+03 0.  0.
         21    1    1    2  503  501  0.28901219619E+02 -0.86017084104E+01 -0.26369886348E+02  0.40057967860E+02  0.00000000000E+00 0. -1.
          2    1    1    2  501    0 -0.21981260062E+01 -0.21219655596E+03 -0.63261491400E+03  0.66725845033E+03  0.00000000000E+00 0. -1.
<mgrwt>
<rscale>  4 0.24923055E+03</rscale>
<asrwt>0</asrwt>
<pdfrwt beam="1">  1       21 0.81167654E-02 0.24923055E+03</pdfrwt>
<pdfrwt beam="2">  1        2 0.19265454E+00 0.24923055E+03</pdfrwt>
<totfact> 0.27615193E+04</totfact>
</mgrwt>
</event>
<event>
 5    0  0.3040647E+000  0.2581224E+03  0.7546771E-02  0.1108277E+00
          2   -1    0    0  502    0 -0.00000000000E+00  0.00000000000E+00  0.24695505780E+04  0.24695505780E+04  0.00000000000E+00 0.  1.
         21   -1    0    0  503  502  0.00000000000E+00 -0.00000000000E+00 -0.12287155562E+03  0.12287155562E+03  0.00000000000E+00 0.  1.
         25    1    1    2    0    0 -0.16444549732E+03 -0.13497328225E+03  0.94057741936E+03  0.97240474614E+03  0.12500000000E+03 0.  0.
         21    1    1    2  503  501 -0.68158330530E+00 -0.30340929966E+02 -0.95571670447E+02  0.10027452707E+03  0.00000000000E+00 0.  1.
          2    1    1    2  501    0  0.16512708062E+03  0.16531421222E+03  0.15016732735E+04  0.15197428604E+04  0.00000000000E+00 0.  1.
<mgrwt>
<rscale>  4 0.25812244E+03</rscale>
<asrwt>0</asrwt>
<pdfrwt beam="1">  1       21 0.18903318E-01 0.25812244E+03</pdfrwt>
<pdfrwt beam="2">  1        2 0.37993082E+00 0.25812244E+03</pdfrwt>
<totfact> 0.13406507E+03</totfact>
</mgrwt>
</event>
<event>
 5    0  0.3040647E+000  0.2436075E+03  0.7546771E-02  0.1117413E+00
          1   -1    0    0  502    0 -0.00000000000E+00  0.00000000000E+00  0.73326297990E+03  0.73326297990E+03  0.00000000000E+00 0. -1.
         21   -1    0    0  503  502  0.00000000000E+00 -0.00000000000E+00 -0.89863283685E+02  0.89863283685E+02  0.00000000000E+00 0. -1.
         25    1    1    2    0    0  0.90289524255E+01  0.20615677904E+03  0.38809470208E+03  0.45697334420E+03  0.12500000000E+03 0.  0.
         21    1    1    2  503  501 -0.42901637086E+02 -0.20770702257E+03  0.25573814121E+03  0.33224201203E+03  0.00000000000E+00 0. -1.
          1    1    1    2  501    0  0.33872684661E+02  0.15502435307E+01 -0.43314707784E+00  0.33910907353E+02  0.00000000000E+00 0. -1.
<mgrwt>
<rscale>  4 0.24360746E+03</rscale>
<asrwt>0</asrwt>
<pdfrwt beam="1">  1       21 0.13825121E-01 0.24360746E+03</pdfrwt>
<pdfrwt beam="2">  1        1 0.11280969E+00 0.24360746E+03</pdfrwt>
<totfact> 0.13200547E+04</totfact>
</mgrwt>
</event>
<event>
 5    0  0.3040647E+000  0.2212781E+03  0.7546771E-02  0.1132934E+00
         -2   -1    0    0    0  501 -0.00000000000E+00  0.00000000000E+00  0.10421541116E+03  0.10421541116E+03  0.00000000000E+00 0.  1.
         21   -1    0    0  501  502  0.00000000000E+00 -0.00000000000E+00 -0.95393661646E+03  0.95393661646E+03  0.00000000000E+00 0. -1.
         25    1    1    2    0    0 -0.21032317843E+03 -0.10199677547E+03 -0.72135295447E+03  0.76851432421E+03  0.12500000000E+03 0.  0.
         21    1    1    2  503  502  0.54675587459E+02  0.21357363101E+02 -0.94276501063E+02  0.11105681193E+03  0.00000000000E+00 0. -1.
         -2    1    1    2    0  503  0.15564759097E+03  0.80639412368E+02 -0.34091749761E+02  0.17858089149E+03  0.00000000000E+00 0.  1.
<mgrwt>
<rscale>  4 0.22127811E+03</rscale>
<asrwt>0</asrwt>
<pdfrwt beam="1">  1       21 0.14675948E+00 0.22127811E+03</pdfrwt>
<pdfrwt beam="2">  1       -2 0.16033140E-01 0.22127811E+03</pdfrwt>
<totfact> 0.75701355E+02</totfact>
</mgrwt>
</event>
<event>
 5    0  0.3040647E+000  0.2378454E+03  0.7546771E-02  0.1121237E+00
         21   -1    0    0  503  502  0.00000000000E+00  0.00000000000E+00  0.58726948916E+02  0.58726948916E+02  0.00000000000E+00 0. -1.
          1   -1    0    0  502    0 -0.00000000000E+00 -0.00000000000E+00 -0.10268544156E+04  0.10268544156E+04  0.00000000000E+00 0.  1.
         25    1    1    2    0    0  0.27787753415E+02 -0.21569830706E+03 -0.44136639148E+03  0.50766840599E+03  0.12500000000E+03 0.  0.
         21    1    1    2  503  501 -0.27645297419E+02  0.21220575036E+02 -0.36396030962E+02  0.50390935138E+02  0.00000000000E+00 0. -1.
          1    1    1    2  501    0 -0.14245599607E+00  0.19447773203E+03 -0.49036504420E+03  0.52752202335E+03  0.00000000000E+00 0.  1.
<mgrwt>
<rscale>  4 0.23784543E+03</rscale>
<asrwt>0</asrwt>
<pdfrwt beam="1">  1       21 0.90349156E-02 0.23784543E+03</pdfrwt>
<pdfrwt beam="2">  1        1 0.15797760E+00 0.23784543E+03</pdfrwt>
<totfact> 0.16490364E+04</totfact>
</mgrwt>
</event>
<event>
 5    0  0.3040647E+000  0.2845998E+03  0.7546771E-02  0.1093203E+00
          1   -1    0    0  502    0 -0.00000000000E+00  0.00000000000E+00  0.23776582535E+04  0.23776582535E+04  0.00000000000E+00 0. -1.
         21   -1    0    0  503  502  0.00000000000E+00 -0.00000000000E+00 -0.18426944711E+03  0.18426944711E+03  0.00000000000E+00 0. -1.
         25    1    1    2    0    0  0.26041018169E+03 -0.97781378238E+02 -0.31615752816E+02  0.30659291656E+03  0.12500000000E+03 0.  0.
         21    1    1    2  503  501 -0.14199304617E+03  0.92503531706E+02  0.53545847593E+03  0.56163574315E+03  0.00000000000E+00 0. -1.
          1    1    1    2  501    0 -0.11841713552E+03  0.52778465321E+01  0.16895460833E+04  0.16936990409E+04  0.00000000000E+00 0. -1.
<mgrwt>
<rscale>  4 0.28459976E+03</rscale>
<asrwt>0</asrwt>
<pdfrwt beam="1">  1       21 0.28349147E-01 0.28459976E+03</pdfrwt>
<pdfrwt beam="2">  1        1 0.36579356E+00 0.28459976E+03</pdfrwt>
<totfact> 0.24540284E+02</totfact>
</mgrwt>
</event>
<event>
 5    0  0.3040647E+000  0.2144571E+03  0.7546771E-02  0.1138084E+00
         21   -1    0    0  503  502  0.00000000000E+00  0.00000000000E+00  0.29252208178E+03  0.29252208178E+03  0.00000000000E+00 0. -1.
          1   -1    0    0  502    0 -0.00000000000E+00 -0.00000000000E+00 -0.21148563714E+04  0.21148563714E+04  0.00000000000E+00 0. -1.
         25    1    1    2    0    0  0.15174037704E+03  0.13823716834E+03  0.63714182049E+02  0.24863457871E+03  0.12500000000E+03 0.  0.
         21    1    1    2  503  501 -0.35997832731E+02 -0.89247704328E+01  0.13002693003E+03  0.13521278794E+03  0.00000000000E+00 0.  1.
          1    1    1    2  501    0 -0.11574254431E+03 -0.12931239791E+03 -0.20160754017E+04  0.20235310865E+04  0.00000000000E+00 0. -1.
<mgrwt>
<rscale>  4 0.21445713E+03</rscale>
<asrwt>0</asrwt>
<pdfrwt beam="1">  1       21 0.45003396E-01 0.21445713E+03</pdfrwt>
<pdfrwt beam="2">  1        1 0.32536252E+00 0.21445713E+03</pdfrwt>
<totfact> 0.15145791E+02</totfact>
</mgrwt>
</event>
<event>
 5    0  0.3040647E+000  0.3952235E+03  0.7546771E-02  0.1045446E+00
          2   -1    0    0  502    0 -0.00000000000E+00  0.00000000000E+00  0.25541317985E+04  0.25541317985E+04  0.00000000000E+00 0.  1.
         21   -1    0    0  503  502  0.00000000000E+00 -0.00000000000E+00 -0.97255750619E+02  0.97255750619E+02  0.00000000000E+00 0.  1.
         25    1    1    2    0    0  0.44574157739E+03 -0.60371595992E+02  0.85272232944E+03  0.97215773131E+03  0.12500000000E+03 0.  0.
         21    1    1    2  503  501 -0.10306526061E+03 -0.76597751762E+01  0.14025506070E+03  0.17421998207E+03  0.00000000000E+00 0. -1.
          2    1    1    2  501    0 -0.34267631678E+03  0.68031371168E+02  0.14638986577E+04  0.15050098357E+04  0.00000000000E+00 0.  1.
<mgrwt>
<rscale>  4 0.39522349E+03</rscale>
<asrwt>0</asrwt>
<pdfrwt beam="1">  1       21 0.14962425E-01 0.39522349E+03</pdfrwt>
<pdfrwt beam="2">  1        2 0.39294330E+00 0.39522349E+03</pdfrwt>
<totfact> 0.17554865E+03</totfact>
</mgrwt>
</event>
<event>
 5    0  0.3040647E+000  0.3415467E+03  0.7546771E-02  0.1078354E+00
          2   -1    0    0  502    0 -0.00000000000E+00  0.00000000000E+00  0.72085217194E+03  0.72085217194E+03  0.00000000000E+00 0. -1.
         21   -1    0    0  503  502  0.00000000000E+00 -0.00000000000E+00 -0.33027034344E+03  0.33027034344E+03  0.00000000000E+00 0. -1.
         25    1    1    2    0    0  0.84460059573E+02  0.19251826640E+03  0.12891853699E+03  0.27648105494E+03  0.12500000000E+03 0.  0.
         21    1    1    2  503  501  0.10278516236E+02  0.26234868661E+03  0.67592417052E+02  0.27111107706E+03  0.00000000000E+00 0. -1.
          2    1    1    2  501    0 -0.94738575808E+02 -0.45486695301E+03  0.19407087445E+03  0.50353038339E+03  0.00000000000E+00 0. -1.
<mgrwt>
<rscale>  4 0.31419195E+03</rscale>
<asrwt>0</asrwt>
<pdfrwt beam="1">  1       21 0.50810822E-01 0.34154671E+03</pdfrwt>
<pdfrwt beam="2">  1        2 0.11090033E+00 0.34154671E+03</pdfrwt>
<totfact> 0.17801248E+03</totfact>
</mgrwt>
</event>
<event>
 5    0  0.3040647E+000  0.2492275E+03  0.7546771E-02  0.1113794E+00
          2   -1    0    0  502    0 -0.00000000000E+00  0.00000000000E+00  0.36605983449E+04  0.36605983449E+04  0.00000000000E+00 0.  1.
         21   -1    0    0  503  502  0.00000000000E+00 -0.00000000000E+00 -0.76620682547E+02  0.76620682547E+02  0.00000000000E+00 0.  1.
         25    1    1    2    0    0  0.77192777327E+02  0.23845086038E+03  0.22500430092E+03  0.35926240148E+03  0.12500000000E+03 0.  0.
         21    1    1    2  503  501  0.69211904789E+01 -0.41833741173E+02  0.68640147895E+02  0.80681067675E+02  0.00000000000E+00 0.  1.
          2    1    1    2  501    0 -0.84113967806E+02 -0.19661711921E+03  0.32903332136E+04  0.32972755583E+04  0.00000000000E+00 0.  1.
<mgrwt>
<rscale>  4 0.24922753E+03</rscale>
<asrwt>0</asrwt>
<pdfrwt beam="1">  1       21 0.11787800E-01 0.24922753E+03</pdfrwt>
<pdfrwt beam="2">  1        2 0.56316884E+00 0.24922753E+03</pdfrwt>
<totfact> 0.60944504E+02</totfact>
</mgrwt>
</event>
<event>
 5    0  0.3040647E+000  0.2601618E+03  0.7546771E-02  0.1107046E+00
         21   -1    0    0  503  502  0.00000000000E+00  0.00000000000E+00  0.40715244457E+03  0.40715244457E+03  0.00000000000E+00 0. -1.
          2   -1    0    0  502    0 -0.00000000000E+00 -0.00000000000E+00 -0.51373156520E+03  0.51373156520E+03  0.00000000000E+00 0. -1.
         25    1    1    2    0    0  0.11207881762E+03 -0.22348875506E+03 -0.18814782838E+02  0.28015688649E+03  0.12500000000E+03 0.  0.
         21    1    1    2  503  501 -0.14434016012E+02  0.23588354572E+02  0.24164841290E+03  0.24322562930E+03  0.00000000000E+00 0. -1.
          2    1    1    2  501    0 -0.97644801604E+02  0.19990040048E+03 -0.32941275070E+03  0.39750149398E+03  0.00000000000E+00 0. -1.
<mgrwt>
<rscale>  4 0.26016175E+03</rscale>
<asrwt>0</asrwt>
<pdfrwt beam="1">  1       21 0.62638838E-01 0.26016175E+03</pdfrwt>
<pdfrwt beam="2">  1        2 0.79035625E-01 0.26016175E+03</pdfrwt>
<totfact> 0.17369794E+03</totfact>
</mgrwt>
</event>
<event>
 5    0  0.3040647E+000  0.2932893E+03  0.7546771E-02  0.1088644E+00
         21   -1    0    0  503  502  0.00000000000E+00  0.00000000000E+00  0.62177139015E+02  0.62177139015E+02  0.00000000000E+00 0. -1.
          1   -1    0    0  502    0 -0.00000000000E+00 -0.00000000000E+00 -0.17423745939E+04  0.17423745939E+04  0.00000000000E+00 0.  1.
         25    1    1    2    0    0 -0.23288586518E+02 -0.26460273951E+03 -0.80209935565E+03  0.85413426600E+03  0.12500000000E+03 0.  0.
         21    1    1    2  503  501 -0.21863439464E+02  0.29902367773E+01  0.94572199477E+01  0.24008134254E+02  0.00000000000E+00 0.  1.
          1    1    1    2  501    0  0.45152025983E+02  0.26161250273E+03 -0.88755531917E+03  0.92640933265E+03  0.00000000000E+00 0.  1.
<mgrwt>
<rscale>  4 0.29328930E+03</rscale>
<asrwt>0</asrwt>
<pdfrwt beam="1">  1       21 0.95657137E-02 0.29328930E+03</pdfrwt>
<pdfrwt beam="2">  1        1 0.26805763E+00 0.29328930E+03</pdfrwt>
<totfact> 0.47800328E+03</totfact>
</mgrwt>
</event>
<event>
 5    0  0.3040647E+000  0.2348330E+03  0.7546771E-02  0.1123284E+00
         21   -1    0    0  503  502  0.00000000000E+00  0.00000000000E+00  0.31011789180E+04  0.31011789180E+04  0.00000000000E+00 0.  1.
          2   -1    0    0  502    0 -0.00000000000E+00 -0.00000000000E+00 -0.81414750690E+03  0.81414750690E+03  0.00000000000E+00 0.  1.
         25    1    1    2    0    0 -0.29840714943E+02 -0.24923409780E+03 -0.86212108666E+02  0.29336944533E+03  0.12500000000E+03 0.  0.
         21    1    1    2  503  501  0.35112476563E+01  0.59646649602E+02  0.29826242536E+04  0.29832226685E+04  0.00000000000E+00 0.  1.
          2    1    1    2  501    0  0.26329467287E+02  0.18958744820E+03 -0.60938073384E+03  0.63873431107E+03  0.00000000000E+00 0.  1.
<mgrwt>
<rscale>  4 0.23483300E+03</rscale>
<asrwt>0</asrwt>
<pdfrwt beam="1">  1       21 0.47710444E+00 0.23483300E+03</pdfrwt>
<pdfrwt beam="2">  1        2 0.12525346E+00 0.23483300E+03</pdfrwt>
<totfact> 0.11093506E+00</totfact>
</mgrwt>
</event>
<event>
 5    0  0.3040647E+000  0.4495825E+03  0.7546771E-02  0.1027847E+00
          1   -1    0    0  502    0 -0.00000000000E+00  0.00000000000E+00  0.16965209504E+04  0.16965209504E+04  0.00000000000E+00 0. -1.
         21   -1    0    0  503  502  0.00000000000E+00 -0.00000000000E+00 -0.48231835324E+03  0.48231835324E+03  0.00000000000E+00 0. -1.
         25    1    1    2    0    0  0.33528939543E+03 -0.18166408742E+03 -0.29408402044E+03  0.49752510532E+03  0.12500000000E+03 0.  0.
         21    1    1    2  503  501  0.55521909379E+02 -0.10970537145E+02 -0.42311560966E+02  0.70663309417E+02  0.00000000000E+00 0.  1.
          1    1    1    2  501    0 -0.39081130481E+03  0.19263462457E+03  0.15505981786E+04  0.16106508889E+04  0.00000000000E+00 0. -1.
<mgrwt>
<rscale>  4 0.44958251E+03</rscale>
<asrwt>0</asrwt>
<pdfrwt beam="1">  1       21 0.74202825E-01 0.44958251E+03</pdfrwt>
<pdfrwt beam="2">  1        1 0.26100322E+00 0.44958251E+03</pdfrwt>
<totfact> 0.84670949E+01</totfact>
</mgrwt>
</event>
<event>
 5    0  0.3040647E+000  0.2774151E+03  0.7546771E-02  0.1097109E+00
          2   -1    0    0  502    0 -0.00000000000E+00  0.00000000000E+00  0.31503239532E+04  0.31503239532E+04  0.00000000000E+00 0. -1.
         21   -1    0    0  503  502  0.00000000000E+00 -0.00000000000E+00 -0.13420974437E+03  0.13420974437E+03  0.00000000000E+00 0. -1.
         25    1    1    2    0    0 -0.31329965288E+03  0.26929399373E+02  0.72543164279E+03  0.80047356821E+03  0.12500000000E+03 0.  0.
         21    1    1    2  503  501  0.78646149412E+02  0.75217685572E+01 -0.73561840333E+02  0.10794970205E+03  0.00000000000E+00 0. -1.
          2    1    1    2  501    0  0.23465350347E+03 -0.34451167930E+02  0.23642444064E+04  0.23761104273E+04  0.00000000000E+00 0. -1.
<mgrwt>
<rscale>  4 0.27741514E+03</rscale>
<asrwt>0</asrwt>
<pdfrwt beam="1">  1       21 0.20647655E-01 0.27741514E+03</pdfrwt>
<pdfrwt beam="2">  1        2 0.48466517E+00 0.27741514E+03</pdfrwt>
<totfact> 0.45612359E+02</totfact>
</mgrwt>
</event>
<event>
 5    0  0.3040647E+000  0.2440717E+03  0.7546771E-02  0.1117110E+00
          2   -1    0    0  502    0 -0.00000000000E+00  0.00000000000E+00  0.17954930955E+04  0.17954930955E+04  0.00000000000E+00 0. -1.
         21   -1    0    0  503  502  0.00000000000E+00 -0.00000000000E+00 -0.11318709199E+03  0.11318709199E+03  0.00000000000E+00 0. -1.
         25    1    1    2    0    0 -0.12191102148E+03  0.19996080445E+03  0.61463996164E+03  0.66951766438E+03  0.12500000000E+03 0.  0.
         21    1    1    2  503  501  0.26274066904E+02 -0.22277791925E+02 -0.73035116877E+02  0.80751191335E+02  0.00000000000E+00 0. -1.
          2    1    1    2  501    0  0.95636954573E+02 -0.17768301252E+03  0.11407011588E+04  0.11584113318E+04  0.00000000000E+00 0. -1.
<mgrwt>
<rscale>  4 0.24407174E+03</rscale>
<asrwt>0</asrwt>
<pdfrwt beam="1">  1       21 0.17413400E-01 0.24407174E+03</pdfrwt>
<pdfrwt beam="2">  1        2 0.27622969E+00 0.24407174E+03</pdfrwt>
<totfact> 0.35817329E+03</totfact>
</mgrwt>
</event>
<event>
 5    0  0.3040647E+000  0.4498574E+03  0.7546771E-02  0.1027765E+00
          2   -1    0    0  502    0 -0.00000000000E+00  0.00000000000E+00  0.25797600040E+04  0.25797600040E+04  0.00000000000E+00 0. -1.
         21   -1    0    0  503  502  0.00000000000E+00 -0.00000000000E+00 -0.14023984847E+03  0.14023984847E+03  0.00000000000E+00 0. -1.
         25    1    1    2    0    0  0.26931451978E+03 -0.33487785419E+03  0.85468024079E+03  0.96476774500E+03  0.12500000000E+03 0.  0.
         21    1    1    2  503  501 -0.27084550774E+02 -0.25122074286E+02 -0.50915310787E+02  0.62905169737E+02  0.00000000000E+00 0.  1.
          2    1    1    2  501    0 -0.24222996900E+03  0.35999992847E+03  0.16357552255E+04  0.16923269378E+04  0.00000000000E+00 0. -1.
<mgrwt>
<rscale>  4 0.44985741E+03</rscale>
<asrwt>0</asrwt>
<pdfrwt beam="1">  1       21 0.21575363E-01 0.44985741E+03</pdfrwt>
<pdfrwt beam="2">  1        2 0.39688612E+00 0.44985741E+03</pdfrwt>
<totfact> 0.83763257E+02</totfact>
</mgrwt>
</event>
<event>
 5    0  0.3040647E+000  0.3223896E+03  0.7546771E-02  0.1074555E+00
          2   -1    0    0  502    0 -0.00000000000E+00  0.00000000000E+00  0.79937528331E+03  0.79937528331E+03  0.00000000000E+00 0.  1.
         21   -1    0    0  503  502  0.00000000000E+00 -0.00000000000E+00 -0.23409138713E+03  0.23409138713E+03  0.00000000000E+00 0.  1.
         25    1    1    2    0    0  0.18371716553E+03  0.25726148640E+03  0.28236427063E+03  0.44191633894E+03  0.12500000000E+03 0.  0.
         21    1    1    2  503  501 -0.45689253203E+02 -0.60140948615E+01 -0.10181650520E+03  0.11175991199E+03  0.00000000000E+00 0.  1.
          2    1    1    2  501    0 -0.13802791233E+03 -0.25124739154E+03  0.38473613077E+03  0.47979041951E+03  0.00000000000E+00 0.  1.
<mgrwt>
<rscale>  4 0.32238958E+03</rscale>
<asrwt>0</asrwt>
<pdfrwt beam="1">  1       21 0.36014060E-01 0.32238958E+03</pdfrwt>
<pdfrwt beam="2">  1        2 0.12298081E+00 0.32238958E+03</pdfrwt>
<totfact> 0.31978099E+03</totfact>
</mgrwt>
</event>
<event>
 5    0  0.3040647E+000  0.1656222E+03  0.7546771E-02  0.1182492E+00
          2   -1    0    0  502    0 -0.00000000000E+00  0.00000000000E+00  0.15987757863E+04  0.15987757863E+04  0.00000000000E+00 0.  1.
         21   -1    0    0  503  502  0.00000000000E+00 -0.00000000000E+00 -0.23112412317E+03  0.23112412317E+03  0.00000000000E+00 0.  1.
         25    1    1    2    0    0  0.71717720366E+02 -0.19632531871E+03 -0.67232355297E+02  0.25265045375E+03  0.12500000000E+03 0.  0.
         21    1    1    2  503  501 -0.51010971262E+02  0.90889359769E+02 -0.29978508133E+02  0.10845139860E+03  0.00000000000E+00 0.  1.
          2    1    1    2  501    0 -0.20706749104E+02  0.10543595894E+03  0.14648625266E+04  0.14687980571E+04  0.00000000000E+00 0.  1.
<mgrwt>
<rscale>  4 0.16562223E+03</rscale>
<asrwt>0</asrwt>
<pdfrwt beam="1">  1       21 0.35557558E-01 0.16562223E+03</pdfrwt>
<pdfrwt beam="2">  1        2 0.24596550E+00 0.16562223E+03</pdfrwt>
<totfact> 0.12098209E+03</totfact>
</mgrwt>
</event>
<event>
 5    0  0.3040647E+000  0.2794028E+03  0.7546771E-02  0.1096016E+00
         21   -1    0    0  501  502  0.00000000000E+00  0.00000000000E+00  0.13769320011E+03  0.13769320011E+03  0.00000000000E+00 0.  1.
         -4   -1    0    0    0  501 -0.00000000000E+00 -0.00000000000E+00 -0.78003785800E+03  0.78003785800E+03  0.00000000000E+00 0.  1.
         25    1    1    2    0    0 -0.50942297014E+01 -0.26803315439E+03 -0.12286141351E+03  0.32029306886E+03  0.12500000000E+03 0.  0.
         21    1    1    2  503  502 -0.84210931309E+01  0.23558863459E+02 -0.21774920168E+01  0.25113269968E+02  0.00000000000E+00 0. -1.
         -4    1    1    2    0  503  0.13515322832E+02  0.24447429093E+03 -0.51730575236E+03  0.57232471928E+03  0.00000000000E+00 0.  1.
<mgrwt>
<rscale>  4 0.27940280E+03</rscale>
<asrwt>0</asrwt>
<pdfrwt beam="1">  1       21 0.21183569E-01 0.27940280E+03</pdfrwt>
<pdfrwt beam="2">  1       -4 0.12000583E+00 0.27940280E+03</pdfrwt>
<totfact> 0.48065995E+02</totfact>
</mgrwt>
</event>
<event>
 5    0  0.3040647E+000  0.2413695E+03  0.7546771E-02  0.1118884E+00
         21   -1    0    0  503  502  0.00000000000E+00  0.00000000000E+00  0.79950296639E+03  0.79950296639E+03  0.00000000000E+00 0.  1.
          1   -1    0    0  502    0 -0.00000000000E+00 -0.00000000000E+00 -0.20658316417E+04  0.20658316417E+04  0.00000000000E+00 0. -1.
         25    1    1    2    0    0 -0.17827574417E+03 -0.13914565168E+03  0.74619840582E+03  0.78967133301E+03  0.12500000000E+03 0.  0.
         21    1    1    2  503  501  0.95441561039E+01  0.20362327449E+02  0.21549792601E+02  0.31146570534E+02  0.00000000000E+00 0.  1.
          1    1    1    2  501    0  0.16873158807E+03  0.11878332423E+03 -0.20340768737E+04  0.20445167045E+04  0.00000000000E+00 0. -1.
<mgrwt>
<rscale>  4 0.24136954E+03</rscale>
<asrwt>0</asrwt>
<pdfrwt beam="1">  1       21 0.12300046E+00 0.24136954E+03</pdfrwt>
<pdfrwt beam="2">  1        1 0.31782026E+00 0.24136954E+03</pdfrwt>
<totfact> 0.16496190E+01</totfact>
</mgrwt>
</event>
<event>
 5    0  0.3040647E+000  0.3054389E+03  0.7546771E-02  0.1082553E+00
          2   -1    0    0  502    0 -0.00000000000E+00  0.00000000000E+00  0.91002845415E+03  0.91002845415E+03  0.00000000000E+00 0. -1.
         21   -1    0    0  503  502  0.00000000000E+00 -0.00000000000E+00 -0.37430729392E+03  0.37430729392E+03  0.00000000000E+00 0.  1.
         25    1    1    2    0    0  0.11725465978E+03 -0.31819152398E+03 -0.11672909497E+02  0.36160165650E+03  0.12500000000E+03 0.  0.
         21    1    1    2  503  501 -0.78782432816E+02  0.49620941917E+02 -0.14880727196E+03  0.17553493608E+03  0.00000000000E+00 0.  1.
          2    1    1    2  501    0 -0.38472226962E+02  0.26857058206E+03  0.69620134169E+03  0.74719915549E+03  0.00000000000E+00 0. -1.
<mgrwt>
<rscale>  4 0.30543890E+03</rscale>
<asrwt>0</asrwt>
<pdfrwt beam="1">  1       21 0.57585738E-01 0.30543890E+03</pdfrwt>
<pdfrwt beam="2">  1        2 0.14000438E+00 0.30543890E+03</pdfrwt>
<totfact> 0.10191297E+03</totfact>
</mgrwt>
</event>
<event>
 5    0  0.3040647E+000  0.4232051E+03  0.7546771E-02  0.1036028E+00
         21   -1    0    0  503  502  0.00000000000E+00  0.00000000000E+00  0.45115781084E+03  0.45115781084E+03  0.00000000000E+00 0. -1.
          2   -1    0    0  502    0 -0.00000000000E+00 -0.00000000000E+00 -0.40561761024E+03  0.40561761024E+03  0.00000000000E+00 0. -1.
         25    1    1    2    0    0  0.32134854006E+03  0.24538270046E+03  0.10311076107E+03  0.43558510412E+03  0.12500000000E+03 0.  0.
         21    1    1    2  503  501 -0.10883339480E+02 -0.28096077422E+02  0.17548205972E+02  0.34867982127E+02  0.00000000000E+00 0.  1.
          2    1    1    2  501    0 -0.31046520058E+03 -0.21728662304E+03 -0.75118766447E+02  0.38632233483E+03  0.00000000000E+00 0. -1.
<mgrwt>
<rscale>  4 0.42320510E+03</rscale>
<asrwt>0</asrwt>
<pdfrwt beam="1">  1       21 0.69408894E-01 0.42320510E+03</pdfrwt>
<pdfrwt beam="2">  1        2 0.62402710E-01 0.42320510E+03</pdfrwt>
<totfact> 0.17246635E+03</totfact>
</mgrwt>
</event>
<event>
 5    0  0.3040647E+000  0.4335586E+03  0.7546771E-02  0.1032742E+00
          2   -1    0    0  502    0 -0.00000000000E+00  0.00000000000E+00  0.15891273646E+04  0.15891273646E+04  0.00000000000E+00 0. -1.
         21   -1    0    0  503  502  0.00000000000E+00 -0.00000000000E+00 -0.15369105127E+03  0.15369105127E+03  0.00000000000E+00 0.  1.
         25    1    1    2    0    0  0.42783230539E+03 -0.10156027459E+02  0.36151193713E+03  0.57398563320E+03  0.12500000000E+03 0.  0.
         21    1    1    2  503  501 -0.18114938822E+02 -0.17561849673E+02  0.78856812606E+01  0.26433946761E+02  0.00000000000E+00 0. -1.
          2    1    1    2  501    0 -0.40971736657E+03  0.27717877131E+02  0.10660386949E+04  0.11423988359E+04  0.00000000000E+00 0. -1.
<mgrwt>
<rscale>  4 0.43355862E+03</rscale>
<asrwt>0</asrwt>
<pdfrwt beam="1">  1       21 0.23644778E-01 0.43355862E+03</pdfrwt>
<pdfrwt beam="2">  1        2 0.24448112E+00 0.43355862E+03</pdfrwt>
<totfact> 0.24320588E+03</totfact>
</mgrwt>
</event>
<event>
 5    0  0.3040647E+000  0.1834737E+03  0.7546771E-02  0.1164483E+00
          2   -1    0    0  502    0 -0.00000000000E+00  0.00000000000E+00  0.13811068690E+04  0.13811068690E+04  0.00000000000E+00 0.  1.
         21   -1    0    0  503  502  0.00000000000E+00 -0.00000000000E+00 -0.24386900691E+03  0.24386900691E+03  0.00000000000E+00 0. -1.
         25    1    1    2    0    0  0.22818380464E+03 -0.26271824170E+02  0.77182303970E+02  0.27265392990E+03  0.12500000000E+03 0.  0.
         21    1    1    2  503  501 -0.11092425024E+03 -0.32674052473E+02 -0.11903184579E+03  0.16595289485E+03  0.00000000000E+00 0. -1.
          2    1    1    2  501    0 -0.11725955440E+03  0.58945876643E+02  0.11790874039E+04  0.11863690511E+04  0.00000000000E+00 0.  1.
<mgrwt>
<rscale>  4 0.18347366E+03</rscale>
<asrwt>0</asrwt>
<pdfrwt beam="1">  1       21 0.37518309E-01 0.18347366E+03</pdfrwt>
<pdfrwt beam="2">  1        2 0.21247798E+00 0.18347366E+03</pdfrwt>
<totfact> 0.13993772E+03</totfact>
</mgrwt>
</event>
<event>
 5    0  0.3040647E+000  0.2377429E+03  0.7546771E-02  0.1121306E+00
         21   -1    0    0  503  502  0.00000000000E+00  0.00000000000E+00  0.21892890762E+03  0.21892890762E+03  0.00000000000E+00 0. -1.
          1   -1    0    0  502    0 -0.00000000000E+00 -0.00000000000E+00 -0.20166271614E+04  0.20166271614E+04  0.00000000000E+00 0. -1.
         25    1    1    2    0    0  0.23356878385E+02  0.19935015993E+03  0.13270409758E+03  0.27114831282E+03  0.12500000000E+03 0.  0.
         21    1    1    2  503  501  0.43524384379E+02  0.37180296165E+02 -0.83603289955E+02  0.10132253722E+03  0.00000000000E+00 0. -1.
          1    1    1    2  501    0 -0.66881262764E+02 -0.23653045609E+03 -0.18467990614E+04  0.18630852190E+04  0.00000000000E+00 0. -1.
<mgrwt>
<rscale>  4 0.23774294E+03</rscale>
<asrwt>0</asrwt>
<pdfrwt beam="1">  1       21 0.33681371E-01 0.23774294E+03</pdfrwt>
<pdfrwt beam="2">  1        1 0.31025033E+00 0.23774294E+03</pdfrwt>
<totfact> 0.30953975E+02</totfact>
</mgrwt>
</event>
<event>
 5    0  0.3040647E+000  0.2372797E+03  0.7546771E-02  0.1121618E+00
          1   -1    0    0  502    0 -0.00000000000E+00  0.00000000000E+00  0.22402487513E+04  0.22402487513E+04  0.00000000000E+00 0.  1.
         21   -1    0    0  503  502  0.00000000000E+00 -0.00000000000E+00 -0.16892031621E+03  0.16892031621E+03  0.00000000000E+00 0. -1.
         25    1    1    2    0    0 -0.62441755360E+02 -0.23570642666E+03  0.64843551000E+03  0.70395319660E+03  0.12500000000E+03 0.  0.
         21    1    1    2  503  501  0.48967842385E+02  0.42867306528E+02 -0.12732414569E+03  0.14299263489E+03  0.00000000000E+00 0. -1.
          1    1    1    2  501    0  0.13473912975E+02  0.19283912013E+03  0.15502170708E+04  0.15622232360E+04  0.00000000000E+00 0.  1.
<mgrwt>
<rscale>  4 0.23727974E+03</rscale>
<asrwt>0</asrwt>
<pdfrwt beam="1">  1       21 0.25987743E-01 0.23727974E+03</pdfrwt>
<pdfrwt beam="2">  1        1 0.34465363E+00 0.23727974E+03</pdfrwt>
<totfact> 0.36804731E+02</totfact>
</mgrwt>
</event>
<event>
 5    0  0.3040647E+000  0.2939887E+03  0.7546771E-02  0.1088285E+00
         21   -1    0    0  501  502  0.00000000000E+00  0.00000000000E+00  0.16521080797E+03  0.16521080797E+03  0.00000000000E+00 0.  1.
         -3   -1    0    0    0  501 -0.00000000000E+00 -0.00000000000E+00 -0.10638246030E+04  0.10638246030E+04  0.00000000000E+00 0.  1.
         25    1    1    2    0    0 -0.15441157950E+02  0.26639959785E+03 -0.28289474245E+02  0.29602781870E+03  0.12500000000E+03 0.  0.
         21    1    1    2  503  502 -0.24567283158E+02 -0.32963586374E+01 -0.20589250695E+01  0.24872807531E+02  0.00000000000E+00 0. -1.
         -3    1    1    2    0  503  0.40008441108E+02 -0.26310323921E+03 -0.86826539568E+03  0.90813478470E+03  0.00000000000E+00 0.  1.
<mgrwt>
<rscale>  4 0.29398868E+03</rscale>
<asrwt>0</asrwt>
<pdfrwt beam="1">  1       21 0.25417047E-01 0.29398868E+03</pdfrwt>
<pdfrwt beam="2">  1       -3 0.16366533E+00 0.29398868E+03</pdfrwt>
<totfact> 0.19424656E+02</totfact>
</mgrwt>
</event>
<event>
 5    0  0.3040647E+000  0.2485134E+03  0.7546771E-02  0.1114248E+00
         21   -1    0    0  503  502  0.00000000000E+00  0.00000000000E+00  0.14197908911E+03  0.14197908911E+03  0.00000000000E+00 0.  1.
          2   -1    0    0  502    0 -0.00000000000E+00 -0.00000000000E+00 -0.15325638745E+04  0.15325638745E+04  0.00000000000E+00 0.  1.
         25    1    1    2    0    0 -0.15893335798E+03  0.18123960395E+03 -0.12292298195E+04  0.12588639941E+04  0.12500000000E+03 0.  0.
         21    1    1    2  503  501  0.45733022317E+02 -0.55857871753E+02  0.88418604888E+02  0.11414666380E+03  0.00000000000E+00 0.  1.
          2    1    1    2  501    0  0.11320033566E+03 -0.12538173219E+03 -0.24977357071E+03  0.30153230571E+03  0.00000000000E+00 0.  1.
<mgrwt>
<rscale>  4 0.24851339E+03</rscale>
<asrwt>0</asrwt>
<pdfrwt beam="1">  1       21 0.21842939E-01 0.24851339E+03</pdfrwt>
<pdfrwt beam="2">  1        2 0.23577904E+00 0.24851339E+03</pdfrwt>
<totfact> 0.32164108E+03</totfact>
</mgrwt>
</event>
<event>
 5    0  0.3040647E+000  0.3774717E+03  0.7546771E-02  0.1051872E+00
         21   -1    0    0  501  502  0.00000000000E+00  0.00000000000E+00  0.10701226689E+03  0.10701226689E+03  0.00000000000E+00 0.  1.
         -2   -1    0    0    0  501 -0.00000000000E+00 -0.00000000000E+00 -0.21716795932E+04  0.21716795932E+04  0.00000000000E+00 0. -1.
         25    1    1    2    0    0  0.26018688613E+03  0.25656129106E+03 -0.59156911952E+03  0.70647005241E+03  0.12500000000E+03 0.  0.
         21    1    1    2  503  502 -0.28321041697E+02  0.98008113586E+01  0.21233759190E+02  0.36728869237E+02  0.00000000000E+00 0. -1.
         -2    1    1    2    0  503 -0.23186584443E+03 -0.26636210242E+03 -0.14943319659E+04  0.15354929384E+04  0.00000000000E+00 0. -1.
<mgrwt>
<rscale>  4 0.37747166E+03</rscale>
<asrwt>0</asrwt>
<pdfrwt beam="1">  1       21 0.16463427E-01 0.37747166E+03</pdfrwt>
<pdfrwt beam="2">  1       -2 0.33410452E+00 0.37747166E+03</pdfrwt>
<totfact> 0.58888192E+01</totfact>
</mgrwt>
</event>
<event>
 5    0  0.3040647E+000  0.3085693E+03  0.7546771E-02  0.1081034E+00
         21   -1    0    0  501  502  0.00000000000E+00  0.00000000000E+00  0.15195925110E+04  0.15195925110E+04  0.00000000000E+00 0. -1.
         -3   -1    0    0    0  501 -0.00000000000E+00 -0.00000000000E+00 -0.57264492103E+03  0.57264492103E+03  0.00000000000E+00 0. -1.
         25    1    1    2    0    0 -0.17142664327E+03  0.15731766014E+03  0.13609060089E+04  0.13862994284E+04  0.12500000000E+03 0.  0.
         21    1    1    2  503  502 -0.60290698561E+02  0.59821966602E+01  0.10119115540E+03  0.11794237975E+03  0.00000000000E+00 0. -1.
         -3    1    1    2    0  503  0.23171734183E+03 -0.16329985680E+03 -0.51514957433E+03  0.58799562385E+03  0.00000000000E+00 0. -1.
<mgrwt>
<rscale>  4 0.30856928E+03</rscale>
<asrwt>0</asrwt>
<pdfrwt beam="1">  1       21 0.23378346E+00 0.30856928E+03</pdfrwt>
<pdfrwt beam="2">  1       -3 0.88099219E-01 0.30856928E+03</pdfrwt>
<totfact> 0.45200678E+00</totfact>
</mgrwt>
</event>
<event>
 5    0  0.3040647E+000  0.2390630E+03  0.7546771E-02  0.1120419E+00
         21   -1    0    0  503  502  0.00000000000E+00  0.00000000000E+00  0.32951735278E+03  0.32951735278E+03  0.00000000000E+00 0. -1.
          2   -1    0    0  502    0 -0.00000000000E+00 -0.00000000000E+00 -0.64404923861E+03  0.64404923861E+03  0.00000000000E+00 0. -1.
         25    1    1    2    0    0  0.24770400796E+03  0.84159829587E+02  0.17536529620E+03  0.33884825451E+03  0.12500000000E+03 0.  0.
         21    1    1    2  503  501 -0.85271353900E+02  0.32952222765E+02  0.14006397969E+02  0.92483684859E+02  0.00000000000E+00 0. -1.
          2    1    1    2  501    0 -0.16243265406E+03 -0.11711205235E+03 -0.50390358000E+03  0.54223465202E+03  0.00000000000E+00 0. -1.
<mgrwt>
<rscale>  4 0.23906299E+03</rscale>
<asrwt>0</asrwt>
<pdfrwt beam="1">  1       21 0.50694978E-01 0.23906299E+03</pdfrwt>
<pdfrwt beam="2">  1        2 0.99084497E-01 0.23906299E+03</pdfrwt>
<totfact> 0.21200991E+03</totfact>
</mgrwt>
</event>
<event>
 5    0  0.3040647E+000  0.3698571E+03  0.7546771E-02  0.1054748E+00
         21   -1    0    0  503  502  0.00000000000E+00  0.00000000000E+00  0.27837920705E+03  0.27837920705E+03  0.00000000000E+00 0.  1.
          2   -1    0    0  502    0 -0.00000000000E+00 -0.00000000000E+00 -0.11088094253E+04  0.11088094253E+04  0.00000000000E+00 0.  1.
         25    1    1    2    0    0  0.14470707113E+03  0.34758556891E+03  0.58348854358E+02  0.40098061419E+03  0.12500000000E+03 0.  0.
         21    1    1    2  503  501 -0.52430948981E+02 -0.15854985579E+02 -0.33470429198E+02  0.64192325160E+02  0.00000000000E+00 0.  1.
          2    1    1    2  501    0 -0.92276122152E+02 -0.33173058334E+03 -0.85530864340E+03  0.92201569299E+03  0.00000000000E+00 0.  1.
<mgrwt>
<rscale>  4 0.36985714E+03</rscale>
<asrwt>0</asrwt>
<pdfrwt beam="1">  1       21 0.42827571E-01 0.36985714E+03</pdfrwt>
<pdfrwt beam="2">  1        2 0.17058606E+00 0.36985714E+03</pdfrwt>
<totfact> 0.14047447E+03</totfact>
</mgrwt>
</event>
<event>
 5    0  0.3040647E+000  0.2232775E+03  0.7546771E-02  0.1131463E+00
          2   -1    0    0  502    0 -0.00000000000E+00  0.00000000000E+00  0.61707947818E+03  0.61707947818E+03  0.00000000000E+00 0.  1.
         21   -1    0    0  503  502  0.00000000000E+00 -0.00000000000E+00 -0.13867882283E+04  0.13867882283E+04  0.00000000000E+00 0.  1.
         25    1    1    2    0    0  0.22636404639E+03  0.21739714295E+02  0.23020228000E+03  0.34688814681E+03  0.12500000000E+03 0.  0.
         21    1    1    2  503  501 -0.72394637408E+02  0.56064857704E+02 -0.13040826236E+04  0.13072932880E+04  0.00000000000E+00 0.  1.
          2    1    1    2  501    0 -0.15396940898E+03 -0.77804571999E+02  0.30417159344E+03  0.34968627165E+03  0.00000000000E+00 0.  1.
<mgrwt>
<rscale>  4 0.22327752E+03</rscale>
<asrwt>0</asrwt>
<pdfrwt beam="1">  1       21 0.21335203E+00 0.22327752E+03</pdfrwt>
<pdfrwt beam="2">  1        2 0.94935306E-01 0.22327752E+03</pdfrwt>
<totfact> 0.65836858E+01</totfact>
</mgrwt>
</event>
<event>
 5    0  0.3040647E+000  0.2492510E+03  0.7546771E-02  0.1113779E+00
          1   -1    0    0  502    0 -0.00000000000E+00  0.00000000000E+00  0.33680066034E+04  0.33680066034E+04  0.00000000000E+00 0. -1.
         21   -1    0    0  503  502  0.00000000000E+00 -0.00000000000E+00 -0.34898472447E+02  0.34898472447E+02  0.00000000000E+00 0. -1.
         25    1    1    2    0    0  0.19090961907E+03 -0.92847418393E+02  0.62767297114E+03  0.67428887315E+03  0.12500000000E+03 0.  0.
         21    1    1    2  503  501  0.12491718765E+02  0.18846727572E+02  0.10372995671E+02  0.24876519392E+02  0.00000000000E+00 0.  1.
          1    1    1    2  501    0 -0.20340133784E+03  0.74000690822E+02  0.26950621641E+04  0.27037396833E+04  0.00000000000E+00 0. -1.
<mgrwt>
<rscale>  4 0.24925098E+03</rscale>
<asrwt>0</asrwt>
<pdfrwt beam="1">  1       21 0.53689984E-02 0.24925098E+03</pdfrwt>
<pdfrwt beam="2">  1        1 0.51815460E+00 0.24925098E+03</pdfrwt>
<totfact> 0.10576536E+03</totfact>
</mgrwt>
</event>
<event>
 5    0  0.3040647E+000  0.3230066E+03  0.7546771E-02  0.1074274E+00
         21   -1    0    0  501  502  0.00000000000E+00  0.00000000000E+00  0.18063591972E+03  0.18063591972E+03  0.00000000000E+00 0. -1.
         -2   -1    0    0    0  501 -0.00000000000E+00 -0.00000000000E+00 -0.86087536066E+03  0.86087536066E+03  0.00000000000E+00 0.  1.
         25    1    1    2    0    0 -0.34614293651E+03  0.78168955769E+02 -0.22295000620E+03  0.43732942207E+03  0.12500000000E+03 0.  0.
         21    1    1    2  503  502  0.70008075751E+02 -0.56311621681E+02 -0.29540569094E+02  0.94576818666E+02  0.00000000000E+00 0. -1.
         -2    1    1    2    0  503  0.27613486076E+03 -0.21857334089E+02 -0.42774886564E+03  0.50960503965E+03  0.00000000000E+00 0.  1.
<mgrwt>
<rscale>  4 0.32300657E+03</rscale>
<asrwt>0</asrwt>
<pdfrwt beam="1">  1       21 0.27790141E-01 0.32300657E+03</pdfrwt>
<pdfrwt beam="2">  1       -2 0.13244237E+00 0.32300657E+03</pdfrwt>
<totfact> 0.42639433E+02</totfact>
</mgrwt>
</event>
<event>
 5    0  0.3040647E+000  0.2697808E+03  0.7546771E-02  0.1101405E+00
         21   -1    0    0  503  502  0.00000000000E+00  0.00000000000E+00  0.96221470412E+02  0.96221470412E+02  0.00000000000E+00 0.  1.
          2   -1    0    0  502    0 -0.00000000000E+00 -0.00000000000E+00 -0.10760455125E+04  0.10760455125E+04  0.00000000000E+00 0. -1.
         25    1    1    2    0    0  0.92368026310E+02 -0.22051036570E+03 -0.15426779819E+03  0.31077359480E+03  0.12500000000E+03 0.  0.
         21    1    1    2  503  501 -0.20876146379E+02  0.93895978640E+01 -0.63079442746E+02  0.67104352562E+02  0.00000000000E+00 0. -1.
          2    1    1    2  501    0 -0.71491879930E+02  0.21112076784E+03 -0.76247680112E+03  0.79438903552E+03  0.00000000000E+00 0. -1.
<mgrwt>
<rscale>  4 0.26978079E+03</rscale>
<asrwt>0</asrwt>
<pdfrwt beam="1">  1       21 0.14803303E-01 0.26978079E+03</pdfrwt>
<pdfrwt beam="2">  1        2 0.16554546E+00 0.26978079E+03</pdfrwt>
<totfact> 0.11842354E+04</totfact>
</mgrwt>
</event>
<event>
 5    0  0.3040647E+000  0.3356332E+03  0.7546771E-02  0.1068671E+00
         -2   -1    0    0    0  501 -0.00000000000E+00  0.00000000000E+00  0.41389558306E+03  0.41389558306E+03  0.00000000000E+00 0. -1.
         21   -1    0    0  501  502  0.00000000000E+00 -0.00000000000E+00 -0.16636017938E+04  0.16636017938E+04  0.00000000000E+00 0. -1.
         25    1    1    2    0    0  0.13826275873E+03  0.28613567890E+03 -0.73531915176E+03  0.81074624399E+03  0.12500000000E+03 0.  0.
         21    1    1    2  503  502  0.19786519827E+02 -0.18235232483E+02 -0.82601507708E+03  0.82645322773E+03  0.00000000000E+00 0. -1.
         -2    1    1    2    0  503 -0.15804927856E+03 -0.26790044641E+03  0.31162801807E+03  0.44029790516E+03  0.00000000000E+00 0. -1.
<mgrwt>
<rscale>  4 0.33563318E+03</rscale>
<asrwt>0</asrwt>
<pdfrwt beam="1">  1       21 0.25593873E+00 0.33563318E+03</pdfrwt>
<pdfrwt beam="2">  1       -2 0.63676244E-01 0.33563318E+03</pdfrwt>
<totfact> 0.10294720E+01</totfact>
</mgrwt>
</event>
<event>
 5    0  0.3040647E+000  0.3061037E+03  0.7546771E-02  0.1082229E+00
          2   -1    0    0  502    0 -0.00000000000E+00  0.00000000000E+00  0.26914892730E+03  0.26914892730E+03  0.00000000000E+00 0.  1.
         21   -1    0    0  503  502  0.00000000000E+00 -0.00000000000E+00 -0.53499210942E+03  0.53499210942E+03  0.00000000000E+00 0. -1.
         25    1    1    2    0    0  0.26702385523E+03  0.13159358139E+03 -0.16125692758E+03  0.36089805571E+03  0.12500000000E+03 0.  0.
         21    1    1    2  503  501 -0.36814564749E+02  0.13521904008E+02 -0.16067536416E+03  0.16539264407E+03  0.00000000000E+00 0. -1.
          2    1    1    2  501    0 -0.23020929048E+03 -0.14511548540E+03  0.56089109617E+02  0.27785033695E+03  0.00000000000E+00 0.  1.
<mgrwt>
<rscale>  4 0.30610365E+03</rscale>
<asrwt>0</asrwt>
<pdfrwt beam="1">  1       21 0.82306477E-01 0.30610365E+03</pdfrwt>
<pdfrwt beam="2">  1        2 0.41407528E-01 0.30610365E+03</pdfrwt>
<totfact> 0.18872989E+03</totfact>
</mgrwt>
</event>
<event>
 5    0  0.3040647E+000  0.3367262E+03  0.7546771E-02  0.1068199E+00
         21   -1    0    0  503  502  0.00000000000E+00  0.00000000000E+00  0.14488339704E+03  0.14488339704E+03  0.00000000000E+00 0. -1.
          1   -1    0    0  502    0 -0.00000000000E+00 -0.00000000000E+00 -0.33829631714E+04  0.33829631714E+04  0.00000000000E+00 0. -1.
         25    1    1    2    0    0 -0.29720695814E+03  0.26175068906E+03 -0.13289150199E+04  0.13922950583E+04  0.12500000000E+03 0.  0.
         21    1    1    2  503  501  0.48761747007E+02 -0.11793562958E+03  0.63196574045E+02  0.14240901540E+03  0.00000000000E+00 0. -1.
          1    1    1    2  501    0  0.24844521113E+03 -0.14381505948E+03 -0.19723613285E+04  0.19931424948E+04  0.00000000000E+00 0. -1.
<mgrwt>
<rscale>  4 0.33672616E+03</rscale>
<asrwt>0</asrwt>
<pdfrwt beam="1">  1       21 0.22289753E-01 0.33672616E+03</pdfrwt>
<pdfrwt beam="2">  1        1 0.52045589E+00 0.33672616E+03</pdfrwt>
<totfact> 0.75715279E+01</totfact>
</mgrwt>
</event>
<event>
 5    0  0.3040647E+000  0.2682296E+03  0.7546771E-02  0.1102297E+00
         21   -1    0    0  503  502  0.00000000000E+00  0.00000000000E+00  0.18216142238E+03  0.18216142238E+03  0.00000000000E+00 0.  1.
          2   -1    0    0  502    0 -0.00000000000E+00 -0.00000000000E+00 -0.62889869687E+03  0.62889869687E+03  0.00000000000E+00 0.  1.
         25    1    1    2    0    0 -0.80556907288E+02  0.24406553641E+03 -0.10242236719E+03  0.30359964209E+03  0.12500000000E+03 0.  0.
         21    1    1    2  503  501  0.11677809857E+02 -0.23426128084E+02  0.46527902142E+02  0.53385394986E+02  0.00000000000E+00 0.  1.
          2    1    1    2  501    0  0.68879097431E+02 -0.22063940832E+03 -0.39084280943E+03  0.45407508218E+03  0.00000000000E+00 0.  1.
<mgrwt>
<rscale>  4 0.26822962E+03</rscale>
<asrwt>0</asrwt>
<pdfrwt beam="1">  1       21 0.28024834E-01 0.26822962E+03</pdfrwt>
<pdfrwt beam="2">  1        2 0.96753645E-01 0.26822962E+03</pdfrwt>
<totfact> 0.71575713E+03</totfact>
</mgrwt>
</event>
<event>
 5    0  0.3040647E+000  0.3016083E+03  0.7546771E-02  0.1084439E+00
         21   -1    0    0  503  502  0.00000000000E+00  0.00000000000E+00  0.27022889542E+03  0.27022889542E+03  0.00000000000E+00 0.  1.
          2   -1    0    0  502    0 -0.00000000000E+00 -0.00000000000E+00 -0.13599540741E+04  0.13599540741E+04  0.00000000000E+00 0. -1.
         25    1    1    2    0    0 -0.24741865442E+03  0.40267305973E+02  0.12025245491E+03  0.30483290406E+03  0.12500000000E+03 0.  0.
         21    1    1    2  503  501 -0.26910693201E+02 -0.82221025608E+01  0.37938651765E+02  0.47234835417E+02  0.00000000000E+00 0.  1.
          2    1    1    2  501    0  0.27432934762E+03 -0.32045203413E+02 -0.12479162854E+04  0.12781152301E+04  0.00000000000E+00 0. -1.
<mgrwt>
<rscale>  4 0.30160832E+03</rscale>
<asrwt>0</asrwt>
<pdfrwt beam="1">  1       21 0.41573675E-01 0.30160832E+03</pdfrwt>
<pdfrwt beam="2">  1        2 0.20922371E+00 0.30160832E+03</pdfrwt>
<totfact> 0.10994811E+03</totfact>
</mgrwt>
</event>
<event>
 5    0  0.3669160E+000  0.2275272E+03  0.7546771E-02  0.1128392E+00
          2   -1    0    0  502    0 -0.00000000000E+00  0.00000000000E+00  0.12724774659E+04  0.12724774659E+04  0.00000000000E+00 0.  1.
         21   -1    0    0  503  502  0.00000000000E+00 -0.00000000000E+00 -0.11609387155E+04  0.11609387155E+04  0.00000000000E+00 0.  1.
         25    1    1    2    0    0  0.17528670737E+03  0.20063611376E+03  0.57272607454E+03  0.64391027044E+03  0.12500000000E+03 0.  0.
         21    1    1    2  503  501 -0.11983106142E+03 -0.14630808929E+03 -0.11150887918E+04  0.11310121811E+04  0.00000000000E+00 0.  1.
          2    1    1    2  501    0 -0.55455645942E+02 -0.54328024478E+02  0.65390146759E+03  0.65849372983E+03  0.00000000000E+00 0.  1.
<mgrwt>
<rscale>  4 0.22752719E+03</rscale>
<asrwt>0</asrwt>
<pdfrwt beam="1">  1       21 0.17860596E+00 0.22752719E+03</pdfrwt>
<pdfrwt beam="2">  1        2 0.19576576E+00 0.22752719E+03</pdfrwt>
<totfact> 0.41707852E+01</totfact>
</mgrwt>
</event>
<event>
 5    0  0.3040647E+000  0.3277674E+03  0.7546771E-02  0.1072129E+00
         21   -1    0    0  503  502  0.00000000000E+00  0.00000000000E+00  0.69710995139E+03  0.69710995139E+03  0.00000000000E+00 0.  1.
          2   -1    0    0  502    0 -0.00000000000E+00 -0.00000000000E+00 -0.31182522190E+03  0.31182522190E+03  0.00000000000E+00 0.  1.
         25    1    1    2    0    0 -0.26797670515E+03 -0.27862140814E+02  0.26022824054E+03  0.39488169186E+03  0.12500000000E+03 0.  0.
         21    1    1    2  503  501 -0.39647373889E+02 -0.33615219991E+02  0.26535841038E+03  0.27040152224E+03  0.00000000000E+00 0.  1.
          2    1    1    2  501    0  0.30762407903E+03  0.61477360805E+02 -0.14030192143E+03  0.34365195918E+03  0.00000000000E+00 0.  1.
<mgrwt>
<rscale>  4 0.32776736E+03</rscale>
<asrwt>0</asrwt>
<pdfrwt beam="1">  1       21 0.10724768E+00 0.32776736E+03</pdfrwt>
<pdfrwt beam="2">  1        2 0.47973111E-01 0.32776736E+03</pdfrwt>
<totfact> 0.85254101E+02</totfact>
</mgrwt>
</event>
<event>
 5    0  0.3040647E+000  0.2190636E+03  0.7546771E-02  0.1134583E+00
          2   -1    0    0  502    0 -0.00000000000E+00  0.00000000000E+00  0.14158809070E+04  0.14158809070E+04  0.00000000000E+00 0.  1.
         21   -1    0    0  503  502  0.00000000000E+00 -0.00000000000E+00 -0.19989949856E+04  0.19989949856E+04  0.00000000000E+00 0. -1.
         25    1    1    2    0    0 -0.19657018687E+03 -0.86710120131E+02 -0.16296353462E+04  0.16484825886E+04  0.12500000000E+03 0.  0.
         21    1    1    2  503  501  0.21232362649E+02  0.12708633397E+03 -0.34241321726E+03  0.36585319578E+03  0.00000000000E+00 0. -1.
          2    1    1    2  501    0  0.17533782422E+03 -0.40376213834E+02  0.13889344849E+04  0.14005401082E+04  0.00000000000E+00 0.  1.
<mgrwt>
<rscale>  4 0.21906360E+03</rscale>
<asrwt>0</asrwt>
<pdfrwt beam="1">  1       21 0.30753769E+00 0.21906360E+03</pdfrwt>
<pdfrwt beam="2">  1        2 0.21782783E+00 0.21906360E+03</pdfrwt>
<totfact> 0.57634894E+00</totfact>
</mgrwt>
</event>
<event>
 5    0  0.3040647E+000  0.2752933E+03  0.7546771E-02  0.1098288E+00
         21   -1    0    0  503  502  0.00000000000E+00  0.00000000000E+00  0.38853450502E+03  0.38853450502E+03  0.00000000000E+00 0.  1.
          2   -1    0    0  502    0 -0.00000000000E+00 -0.00000000000E+00 -0.14191445392E+04  0.14191445392E+04  0.00000000000E+00 0.  1.
         25    1    1    2    0    0 -0.24840976263E+03  0.10691234973E+02  0.29800544840E+03  0.40774251673E+03  0.12500000000E+03 0.  0.
         21    1    1    2  503  501  0.83950801405E+02  0.77503185359E+02 -0.85021860702E+02  0.14241909140E+03  0.00000000000E+00 0.  1.
          2    1    1    2  501    0  0.16445896122E+03 -0.88194420332E+02 -0.12435936218E+04  0.12575174361E+04  0.00000000000E+00 0.  1.
<mgrwt>
<rscale>  4 0.27529325E+03</rscale>
<asrwt>0</asrwt>
<pdfrwt beam="1">  1       21 0.59774540E-01 0.27529325E+03</pdfrwt>
<pdfrwt beam="2">  1        2 0.21832993E+00 0.27529325E+03</pdfrwt>
<totfact> 0.48072762E+02</totfact>
</mgrwt>
</event>
<event>
 5    0  0.3040647E+000  0.2213369E+03  0.7546771E-02  0.1132890E+00
         -4   -1    0    0    0  501 -0.00000000000E+00  0.00000000000E+00  0.12542508853E+03  0.12542508853E+03  0.00000000000E+00 0. -1.
         21   -1    0    0  501  502  0.00000000000E+00 -0.00000000000E+00 -0.71578557069E+03  0.71578557069E+03  0.00000000000E+00 0. -1.
         25    1    1    2    0    0 -0.15771252302E+03  0.12300151968E+03 -0.16295463459E+03  0.28667372865E+03  0.12500000000E+03 0.  0.
         21    1    1    2  503  502  0.39666950300E+02  0.50876055542E+01 -0.36849141927E+03  0.37065519928E+03  0.00000000000E+00 0. -1.
         -4    1    1    2    0  503  0.11804557272E+03 -0.12808912524E+03 -0.58914428286E+02  0.18388173129E+03  0.00000000000E+00 0. -1.
<mgrwt>
<rscale>  4 0.22133691E+03</rscale>
<asrwt>0</asrwt>
<pdfrwt beam="1">  1       21 0.11012086E+00 0.22133691E+03</pdfrwt>
<pdfrwt beam="2">  1       -4 0.19296168E-01 0.22133691E+03</pdfrwt>
<totfact> 0.65720165E+02</totfact>
</mgrwt>
</event>
<event>
 5    0  0.3040647E+000  0.1727986E+03  0.7546771E-02  0.1174960E+00
          2   -1    0    0  502    0 -0.00000000000E+00  0.00000000000E+00  0.12196831750E+04  0.12196831750E+04  0.00000000000E+00 0. -1.
         21   -1    0    0  503  502  0.00000000000E+00 -0.00000000000E+00 -0.22822964796E+04  0.22822964796E+04  0.00000000000E+00 0. -1.
         25    1    1    2    0    0 -0.22355808293E+02  0.21938443672E+03 -0.11058063006E+03  0.27655449550E+03  0.12500000000E+03 0.  0.
         21    1    1    2  503  501  0.39678739465E+02 -0.10285094935E+03 -0.20842155719E+04  0.20871289539E+04  0.00000000000E+00 0. -1.
          2    1    1    2  501    0 -0.17322931173E+02 -0.11653348737E+03  0.11321828974E+04  0.11382962052E+04  0.00000000000E+00 0. -1.
<mgrwt>
<rscale>  4 0.17279859E+03</rscale>
<asrwt>0</asrwt>
<pdfrwt beam="1">  1       21 0.35112253E+00 0.17279859E+03</pdfrwt>
<pdfrwt beam="2">  1        2 0.18764357E+00 0.17279859E+03</pdfrwt>
<totfact> 0.44554877E+00</totfact>
</mgrwt>
</event>
<event>
 5    0  0.3040647E+000  0.2745658E+03  0.7546771E-02  0.1098695E+00
          1   -1    0    0  502    0 -0.00000000000E+00  0.00000000000E+00  0.18406780650E+04  0.18406780650E+04  0.00000000000E+00 0. -1.
         21   -1    0    0  503  502  0.00000000000E+00 -0.00000000000E+00 -0.90381387128E+02  0.90381387128E+02  0.00000000000E+00 0.  1.
         25    1    1    2    0    0 -0.23305882746E+03  0.69592756728E+02  0.27989910537E+03  0.39131582901E+03  0.12500000000E+03 0.  0.
         21    1    1    2  503  501 -0.64631322152E+01 -0.18999937068E+02 -0.20613165459E+02  0.28769293993E+02  0.00000000000E+00 0.  1.
          1    1    1    2  501    0  0.23952195967E+03 -0.50592819660E+02  0.14910107380E+04  0.15109743291E+04  0.00000000000E+00 0. -1.
<mgrwt>
<rscale>  4 0.27456578E+03</rscale>
<asrwt>0</asrwt>
<pdfrwt beam="1">  1       21 0.13904830E-01 0.27456578E+03</pdfrwt>
<pdfrwt beam="2">  1        1 0.28318121E+00 0.27456578E+03</pdfrwt>
<totfact> 0.21171415E+03</totfact>
</mgrwt>
</event>
<event>
 5    0  0.3040647E+000  0.2832284E+03  0.7546771E-02  0.1093939E+00
         21   -1    0    0  501  502  0.00000000000E+00  0.00000000000E+00  0.15514363333E+04  0.15514363333E+04  0.00000000000E+00 0.  1.
         -3   -1    0    0    0  501 -0.00000000000E+00 -0.00000000000E+00 -0.57320333232E+02  0.57320333232E+02  0.00000000000E+00 0.  1.
         25    1    1    2    0    0  0.26572509343E+03 -0.27159526148E+02  0.81746394586E+03  0.86903381288E+03  0.12500000000E+03 0.  0.
         21    1    1    2  503  502 -0.22721672153E+02 -0.15799787549E+02  0.21022574264E+03  0.21203954947E+03  0.00000000000E+00 0.  1.
         -3    1    1    2    0  503 -0.24300342128E+03  0.42959313698E+02  0.46642631154E+03  0.52768330416E+03  0.00000000000E+00 0.  1.
<mgrwt>
<rscale>  4 0.28322845E+03</rscale>
<asrwt>0</asrwt>
<pdfrwt beam="1">  1       21 0.23868248E+00 0.28322845E+03</pdfrwt>
<pdfrwt beam="2">  1       -3 0.88185140E-02 0.28322845E+03</pdfrwt>
<totfact> 0.33308032E+02</totfact>
</mgrwt>
</event>
<event>
 5    0  0.3040647E+000  0.2610445E+03  0.7546771E-02  0.1106517E+00
          2   -1    0    0  502    0 -0.00000000000E+00  0.00000000000E+00  0.65377213719E+03  0.65377213719E+03  0.00000000000E+00 0. -1.
         21   -1    0    0  503  502  0.00000000000E+00 -0.00000000000E+00 -0.64820982677E+03  0.64820982677E+03  0.00000000000E+00 0.  1.
         25    1    1    2    0    0 -0.27991835176E+03  0.13053943059E+03 -0.37621716441E+03  0.50255266529E+03  0.12500000000E+03 0.  0.
         21    1    1    2  503  501  0.61013670234E+02 -0.76587024511E+02 -0.17400087659E+03  0.19966107616E+03  0.00000000000E+00 0.  1.
          2    1    1    2  501    0  0.21890468152E+03 -0.53952406078E+02  0.55578035142E+03  0.59976822251E+03  0.00000000000E+00 0. -1.
<mgrwt>
<rscale>  4 0.26104452E+03</rscale>
<asrwt>0</asrwt>
<pdfrwt beam="1">  1       21 0.99724589E-01 0.26104452E+03</pdfrwt>
<pdfrwt beam="2">  1        2 0.10058033E+00 0.26104452E+03</pdfrwt>
<totfact> 0.45557650E+02</totfact>
</mgrwt>
</event>
<event>
 5    0  0.3040647E+000  0.4273466E+03  0.7546771E-02  0.1034701E+00
         21   -1    0    0  503  502  0.00000000000E+00  0.00000000000E+00  0.53040983761E+03  0.53040983761E+03  0.00000000000E+00 0.  1.
          2   -1    0    0  502    0 -0.00000000000E+00 -0.00000000000E+00 -0.78576921992E+03  0.78576921992E+03  0.00000000000E+00 0.  1.
         25    1    1    2    0    0 -0.84747363188E+01  0.42360676696E+03  0.32819117781E+03  0.55031714798E+03  0.12500000000E+03 0.  0.
         21    1    1    2  503  501  0.11497834807E+02 -0.17049656750E+02  0.26007485764E+02  0.33155396489E+02  0.00000000000E+00 0.  1.
          2    1    1    2  501    0 -0.30230984883E+01 -0.40655711021E+03 -0.60955804588E+03  0.73270651306E+03  0.00000000000E+00 0.  1.
<mgrwt>
<rscale>  4 0.42734657E+03</rscale>
<asrwt>0</asrwt>
<pdfrwt beam="1">  1       21 0.81601514E-01 0.42734657E+03</pdfrwt>
<pdfrwt beam="2">  1        2 0.12088757E+00 0.42734657E+03</pdfrwt>
<totfact> 0.54604353E+02</totfact>
</mgrwt>
</event>
<event>
 5    0  0.3040647E+000  0.2123960E+03  0.7546771E-02  0.1139683E+00
          1   -1    0    0  502    0 -0.00000000000E+00  0.00000000000E+00  0.31101517866E+03  0.31101517866E+03  0.00000000000E+00 0.  1.
         21   -1    0    0  503  502  0.00000000000E+00 -0.00000000000E+00 -0.34085992704E+03  0.34085992704E+03  0.00000000000E+00 0. -1.
         25    1    1    2    0    0 -0.23594996820E+03  0.14783825785E+03 -0.11618784192E+03  0.32657794259E+03  0.12500000000E+03 0.  0.
         21    1    1    2  503  501  0.10980786713E+03 -0.59933884030E+02 -0.34468336744E+02  0.12976095089E+03  0.00000000000E+00 0. -1.
          1    1    1    2  501    0  0.12614210107E+03 -0.87904373823E+02  0.12081143029E+03  0.19553621221E+03  0.00000000000E+00 0.  1.
<mgrwt>
<rscale>  4 0.21239602E+03</rscale>
<asrwt>0</asrwt>
<pdfrwt beam="1">  1       21 0.52439989E-01 0.21239602E+03</pdfrwt>
<pdfrwt beam="2">  1        1 0.47848489E-01 0.21239602E+03</pdfrwt>
<totfact> 0.31357879E+03</totfact>
</mgrwt>
</event>
<event>
 5    0  0.3040647E+000  0.3816654E+03  0.7546771E-02  0.1050320E+00
          2   -1    0    0  502    0 -0.00000000000E+00  0.00000000000E+00  0.12280409380E+03  0.12280409380E+03  0.00000000000E+00 0. -1.
         21   -1    0    0  503  502  0.00000000000E+00 -0.00000000000E+00 -0.12961823625E+04  0.12961823625E+04  0.00000000000E+00 0. -1.
         25    1    1    2    0    0  0.34333820721E+03 -0.76728366349E+02 -0.52482132381E+03  0.64407358947E+03  0.12500000000E+03 0.  0.
         21    1    1    2  503  501  0.24346240320E+02  0.33926796797E+02 -0.13870839773E+03  0.14485781497E+03  0.00000000000E+00 0. -1.
          2    1    1    2  501    0 -0.36768444753E+03  0.42801569552E+02 -0.50984854714E+03  0.63005505182E+03  0.00000000000E+00 0. -1.
<mgrwt>
<rscale>  4 0.38166536E+03</rscale>
<asrwt>0</asrwt>
<pdfrwt beam="1">  1       21 0.19941267E+00 0.38166536E+03</pdfrwt>
<pdfrwt beam="2">  1        2 0.18892937E-01 0.38166536E+03</pdfrwt>
<totfact> 0.44553395E+02</totfact>
</mgrwt>
</event>
<event>
 5    0  0.3040647E+000  0.3058818E+03  0.7546771E-02  0.1082337E+00
         21   -1    0    0  503  502  0.00000000000E+00  0.00000000000E+00  0.17028993205E+03  0.17028993205E+03  0.00000000000E+00 0. -1.
          1   -1    0    0  502    0 -0.00000000000E+00 -0.00000000000E+00 -0.12790358968E+04  0.12790358968E+04  0.00000000000E+00 0. -1.
         25    1    1    2    0    0 -0.24185608737E+03 -0.25370783465E+03 -0.22472414907E+03  0.43472747272E+03  0.12500000000E+03 0.  0.
         21    1    1    2  503  501  0.10179798384E+03  0.26708969992E+02 -0.15916846745E+02  0.10644033353E+03  0.00000000000E+00 0. -1.
          1    1    1    2  501    0  0.14005810353E+03  0.22699886466E+03 -0.86810496894E+03  0.90815802260E+03  0.00000000000E+00 0. -1.
<mgrwt>
<rscale>  4 0.30588178E+03</rscale>
<asrwt>0</asrwt>
<pdfrwt beam="1">  1       21 0.26198452E-01 0.30588178E+03</pdfrwt>
<pdfrwt beam="2">  1        1 0.19677475E+00 0.30588178E+03</pdfrwt>
<totfact> 0.15030605E+03</totfact>
</mgrwt>
</event>
<event>
 5    0  0.3040647E+000  0.2284792E+03  0.7546771E-02  0.1127715E+00
         21   -1    0    0  503  502  0.00000000000E+00  0.00000000000E+00  0.36334258708E+03  0.36334258708E+03  0.00000000000E+00 0.  1.
          2   -1    0    0  502    0 -0.00000000000E+00 -0.00000000000E+00 -0.25240138979E+04  0.25240138979E+04  0.00000000000E+00 0.  1.
         25    1    1    2    0    0 -0.69944331137E+02  0.19620957005E+03 -0.98986626309E+02  0.26232376375E+03  0.12500000000E+03 0.  0.
         21    1    1    2  503  501 -0.60614385487E+01 -0.21565122733E+02  0.27735144489E+03  0.27825459482E+03  0.00000000000E+00 0.  1.
          2    1    1    2  501    0  0.76005769686E+02 -0.17464444732E+03 -0.23390361294E+04  0.23467781264E+04  0.00000000000E+00 0.  1.
<mgrwt>
<rscale>  4 0.22847924E+03</rscale>
<asrwt>0</asrwt>
<pdfrwt beam="1">  1       21 0.55898861E-01 0.22847924E+03</pdfrwt>
<pdfrwt beam="2">  1        2 0.38830982E+00 0.22847924E+03</pdfrwt>
<totfact> 0.14837793E+02</totfact>
</mgrwt>
</event>
<event>
 5    0  0.3040647E+000  0.2285358E+03  0.7546771E-02  0.1127675E+00
         21   -1    0    0  503  502  0.00000000000E+00  0.00000000000E+00  0.19813901350E+03  0.19813901350E+03  0.00000000000E+00 0.  1.
          1   -1    0    0  502    0 -0.00000000000E+00 -0.00000000000E+00 -0.33199293108E+03  0.33199293108E+03  0.00000000000E+00 0.  1.
         25    1    1    2    0    0  0.17966504072E+03  0.10958918268E+03 -0.17235877798E+03  0.29936911024E+03  0.12500000000E+03 0.  0.
         21    1    1    2  503  501 -0.35338591152E+02 -0.25029845995E+02  0.46186976827E+02  0.63313079561E+02  0.00000000000E+00 0.  1.
          1    1    1    2  501    0 -0.14432644957E+03 -0.84559336684E+02 -0.76821164228E+01  0.16744975479E+03  0.00000000000E+00 0.  1.
<mgrwt>
<rscale>  4 0.22853576E+03</rscale>
<asrwt>0</asrwt>
<pdfrwt beam="1">  1       21 0.30482925E-01 0.22853576E+03</pdfrwt>
<pdfrwt beam="2">  1        1 0.51075835E-01 0.22853576E+03</pdfrwt>
<totfact> 0.86436384E+03</totfact>
</mgrwt>
</event>
<event>
 5    0  0.3040647E+000  0.2446794E+03  0.7546771E-02  0.1116714E+00
          1   -1    0    0  502    0 -0.00000000000E+00  0.00000000000E+00  0.52255167444E+03  0.52255167444E+03  0.00000000000E+00 0.  1.
         21   -1    0    0  503  502  0.00000000000E+00 -0.00000000000E+00 -0.68226212962E+03  0.68226212962E+03  0.00000000000E+00 0.  1.
         25    1    1    2    0    0 -0.12775036224E+03  0.19161598037E+03 -0.57342048976E+03  0.63045451625E+03  0.12500000000E+03 0.  0.
         21    1    1    2  503  501  0.19264276973E+02 -0.12266792782E+02 -0.55741431309E+02  0.60238639899E+02  0.00000000000E+00 0. -1.
          1    1    1    2  501    0  0.10848608526E+03 -0.17934918759E+03  0.46945146589E+03  0.51412064791E+03  0.00000000000E+00 0.  1.
<mgrwt>
<rscale>  4 0.24467937E+03</rscale>
<asrwt>0</asrwt>
<pdfrwt beam="1">  1       21 0.10496340E+00 0.24467937E+03</pdfrwt>
<pdfrwt beam="2">  1        1 0.80392565E-01 0.24467937E+03</pdfrwt>
<totfact> 0.33327189E+02</totfact>
</mgrwt>
</event>
<event>
 5    0  0.3040647E+000  0.2656071E+03  0.7546771E-02  0.1103820E+00
          2   -1    0    0  502    0 -0.00000000000E+00  0.00000000000E+00  0.78464550321E+03  0.78464550321E+03  0.00000000000E+00 0.  1.
         21   -1    0    0  503  502  0.00000000000E+00 -0.00000000000E+00 -0.34557066150E+03  0.34557066150E+03  0.00000000000E+00 0.  1.
         25    1    1    2    0    0  0.31918787242E+03 -0.11211195199E+03 -0.91876755352E+02  0.37217781483E+03  0.12500000000E+03 0.  0.
         21    1    1    2  503  501 -0.94466998948E+02  0.91733526927E+02 -0.45245836191E+02  0.13923447686E+03  0.00000000000E+00 0.  1.
          2    1    1    2  501    0 -0.22472087347E+03  0.20378425067E+02  0.57619743325E+03  0.61880387302E+03  0.00000000000E+00 0.  1.
<mgrwt>
<rscale>  4 0.26560708E+03</rscale>
<asrwt>0</asrwt>
<pdfrwt beam="1">  1       21 0.53164718E-01 0.26560708E+03</pdfrwt>
<pdfrwt beam="2">  1        2 0.12071469E+00 0.26560708E+03</pdfrwt>
<totfact> 0.14906473E+03</totfact>
</mgrwt>
</event>
<event>
 5    0  0.3040647E+000  0.2312860E+03  0.7546771E-02  0.1125738E+00
         21   -1    0    0  501  502  0.00000000000E+00  0.00000000000E+00  0.59353052529E+02  0.59353052529E+02  0.00000000000E+00 0. -1.
         -1   -1    0    0    0  501 -0.00000000000E+00 -0.00000000000E+00 -0.10590316770E+04  0.10590316770E+04  0.00000000000E+00 0. -1.
         25    1    1    2    0    0 -0.14631668186E+03  0.14434396182E+03 -0.72318411320E+03  0.76214435134E+03  0.12500000000E+03 0.  0.
         21    1    1    2  503  502  0.45479846068E+02  0.35573078864E+01 -0.55235960346E+02  0.71638552142E+02  0.00000000000E+00 0.  1.
         -1    1    1    2    0  503  0.10083683579E+03 -0.14790126970E+03 -0.22125855095E+03  0.28460182607E+03  0.00000000000E+00 0. -1.
<mgrwt>
<rscale>  4 0.23128604E+03</rscale>
<asrwt>0</asrwt>
<pdfrwt beam="1">  1       21 0.91312390E-02 0.23128604E+03</pdfrwt>
<pdfrwt beam="2">  1       -1 0.16292795E+00 0.23128604E+03</pdfrwt>
<totfact> 0.27069156E+03</totfact>
</mgrwt>
</event>
<event>
 5    0  0.3040647E+000  0.4033732E+03  0.7546771E-02  0.1042618E+00
         21   -1    0    0  501  502  0.00000000000E+00  0.00000000000E+00  0.13133677115E+04  0.13133677115E+04  0.00000000000E+00 0. -1.
         -2   -1    0    0    0  501 -0.00000000000E+00 -0.00000000000E+00 -0.10609946904E+04  0.10609946904E+04  0.00000000000E+00 0. -1.
         25    1    1    2    0    0 -0.33125695432E+03  0.16326556315E+03  0.31608260079E+03  0.50191635201E+03  0.12500000000E+03 0.  0.
         21    1    1    2  503  502 -0.40012516093E+02 -0.30042175945E+03  0.83615384584E+03  0.88938601795E+03  0.00000000000E+00 0. -1.
         -2    1    1    2    0  503  0.37126947041E+03  0.13715619630E+03 -0.89986342548E+03  0.98306003192E+03  0.00000000000E+00 0. -1.
<mgrwt>
<rscale>  4 0.40337322E+03</rscale>
<asrwt>0</asrwt>
<pdfrwt beam="1">  1       21 0.20205657E+00 0.40337322E+03</pdfrwt>
<pdfrwt beam="2">  1       -2 0.16322995E+00 0.40337322E+03</pdfrwt>
<totfact> 0.23189663E+00</totfact>
</mgrwt>
</event>
<event>
 5    0  0.3040647E+000  0.2982732E+03  0.7546771E-02  0.1086107E+00
         21   -1    0    0  503  502  0.00000000000E+00  0.00000000000E+00  0.13260852065E+03  0.13260852065E+03  0.00000000000E+00 0.  1.
          2   -1    0    0  502    0 -0.00000000000E+00 -0.00000000000E+00 -0.96241741725E+03  0.96241741725E+03  0.00000000000E+00 0.  1.
         25    1    1    2    0    0 -0.20188282808E+03  0.16979051110E+03 -0.31852279688E+03  0.43205007357E+03  0.12500000000E+03 0.  0.
         21    1    1    2  503  501 -0.82690697226E+02 -0.98634886724E+02 -0.15655861827E+03  0.20267509280E+03  0.00000000000E+00 0.  1.
          2    1    1    2  501    0  0.28457352531E+03 -0.71155624380E+02 -0.35472748145E+03  0.46030077154E+03  0.00000000000E+00 0.  1.
<mgrwt>
<rscale>  4 0.29827320E+03</rscale>
<asrwt>0</asrwt>
<pdfrwt beam="1">  1       21 0.20401312E-01 0.29827320E+03</pdfrwt>
<pdfrwt beam="2">  1        2 0.14806421E+00 0.29827320E+03</pdfrwt>
<totfact> 0.76005407E+03</totfact>
</mgrwt>
</event>
<event>
 5    0  0.3040647E+000  0.2654262E+03  0.7546771E-02  0.1103926E+00
         21   -1    0    0  503  502  0.00000000000E+00  0.00000000000E+00  0.94604685618E+02  0.94604685618E+02  0.00000000000E+00 0.  1.
          1   -1    0    0  502    0 -0.00000000000E+00 -0.00000000000E+00 -0.17045200733E+04  0.17045200733E+04  0.00000000000E+00 0.  1.
         25    1    1    2    0    0  0.19496185151E+03 -0.16792667649E+03 -0.24580374318E+03  0.37716570945E+03  0.12500000000E+03 0.  0.
         21    1    1    2  503  501 -0.15463041944E+02  0.22890367929E+02  0.94125361612E+01  0.29183393345E+02  0.00000000000E+00 0.  1.
          1    1    1    2  501    0 -0.17949880957E+03  0.14503630856E+03 -0.13735241807E+04  0.13927756562E+04  0.00000000000E+00 0.  1.
<mgrwt>
<rscale>  4 0.26542624E+03</rscale>
<asrwt>0</asrwt>
<pdfrwt beam="1">  1       21 0.14554568E-01 0.26542624E+03</pdfrwt>
<pdfrwt beam="2">  1        1 0.26223384E+00 0.26542624E+03</pdfrwt>
<totfact> 0.23976094E+03</totfact>
</mgrwt>
</event>
<event>
 5    0  0.3040647E+000  0.2545433E+03  0.7546771E-02  0.1110467E+00
         -4   -1    0    0    0  501 -0.00000000000E+00  0.00000000000E+00  0.47549193200E+03  0.47549193200E+03  0.00000000000E+00 0.  1.
         21   -1    0    0  501  502  0.00000000000E+00 -0.00000000000E+00 -0.14586028607E+03  0.14586028607E+03  0.00000000000E+00 0.  1.
         25    1    1    2    0    0  0.16403610348E+02 -0.20414107245E+03  0.71807870570E+02  0.25044765156E+03  0.12500000000E+03 0.  0.
         21    1    1    2  503  502  0.13070061512E+02 -0.24191033100E+02  0.32828592281E+01  0.27691329962E+02  0.00000000000E+00 0.  1.
         -4    1    1    2    0  503 -0.29473671860E+02  0.22833210555E+03  0.25454091613E+03  0.34321323655E+03  0.00000000000E+00 0.  1.
<mgrwt>
<rscale>  4 0.25454335E+03</rscale>
<asrwt>0</asrwt>
<pdfrwt beam="1">  1       21 0.22440044E-01 0.25454335E+03</pdfrwt>
<pdfrwt beam="2">  1       -4 0.73152604E-01 0.25454335E+03</pdfrwt>
<totfact> 0.13576339E+03</totfact>
</mgrwt>
</event>
<event>
 5    0  0.3040647E+000  0.2220742E+03  0.7546771E-02  0.1132346E+00
          1   -1    0    0  502    0 -0.00000000000E+00  0.00000000000E+00  0.44941611269E+02  0.44941611269E+02  0.00000000000E+00 0.  1.
         21   -1    0    0  503  502  0.00000000000E+00 -0.00000000000E+00 -0.34372976233E+04  0.34372976233E+04  0.00000000000E+00 0. -1.
         25    1    1    2    0    0 -0.93657661914E+02  0.18635836490E+03 -0.17204080864E+04  0.17375068867E+04  0.12500000000E+03 0.  0.
         21    1    1    2  503  501  0.39484155055E+02 -0.14083318381E+02 -0.14821628614E+04  0.14827555719E+04  0.00000000000E+00 0. -1.
          1    1    1    2  501    0  0.54173506859E+02 -0.17227504652E+03 -0.18978506425E+03  0.26197677590E+03  0.00000000000E+00 0.  1.
<mgrwt>
<rscale>  4 0.22207417E+03</rscale>
<asrwt>0</asrwt>
<pdfrwt beam="1">  1       21 0.52881500E+00 0.22207417E+03</pdfrwt>
<pdfrwt beam="2">  1        1 0.69140943E-02 0.22207417E+03</pdfrwt>
<totfact> 0.12655581E+01</totfact>
</mgrwt>
</event>
<event>
 5    0  0.3040647E+000  0.2662729E+03  0.7546771E-02  0.1103432E+00
         21   -1    0    0  501  502  0.00000000000E+00  0.00000000000E+00  0.71582509539E+02  0.71582509539E+02  0.00000000000E+00 0.  1.
         -3   -1    0    0    0  501 -0.00000000000E+00 -0.00000000000E+00 -0.14503702244E+04  0.14503702244E+04  0.00000000000E+00 0.  1.
         25    1    1    2    0    0 -0.24232910143E+03 -0.82340727593E+01 -0.43627474525E+03  0.51454042280E+03  0.12500000000E+03 0.  0.
         21    1    1    2  503  502  0.21396472320E+03  0.10424535835E+03 -0.50058322365E+03  0.55428472946E+03  0.00000000000E+00 0.  1.
         -3    1    1    2    0  503  0.28364378226E+02 -0.96011285587E+02 -0.44192974599E+03  0.45312758171E+03  0.00000000000E+00 0.  1.
<mgrwt>
<rscale>  4 0.26627290E+03</rscale>
<asrwt>0</asrwt>
<pdfrwt beam="1">  1       21 0.11012693E-01 0.26627290E+03</pdfrwt>
<pdfrwt beam="2">  1       -3 0.22313389E+00 0.26627290E+03</pdfrwt>
<totfact> 0.39003130E+02</totfact>
</mgrwt>
</event>
<event>
 5    0  0.3040647E+000  0.2406254E+03  0.7546771E-02  0.1119377E+00
          2   -1    0    0  502    0 -0.00000000000E+00  0.00000000000E+00  0.18777412423E+04  0.18777412423E+04  0.00000000000E+00 0.  1.
         21   -1    0    0  503  502  0.00000000000E+00 -0.00000000000E+00 -0.85473611081E+02  0.85473611081E+02  0.00000000000E+00 0. -1.
         25    1    1    2    0    0  0.19700548906E+03  0.14274998516E+03  0.42745796033E+03  0.50747810675E+03  0.12500000000E+03 0.  0.
         21    1    1    2  503  501 -0.33914618717E+02 -0.28814063937E+02 -0.25482912310E+02  0.51281872656E+02  0.00000000000E+00 0. -1.
          2    1    1    2  501    0 -0.16309087034E+03 -0.11393592122E+03  0.13902925832E+04  0.14044548740E+04  0.00000000000E+00 0.  1.
<mgrwt>
<rscale>  4 0.24062539E+03</rscale>
<asrwt>0</asrwt>
<pdfrwt beam="1">  1       21 0.13149788E-01 0.24062539E+03</pdfrwt>
<pdfrwt beam="2">  1        2 0.28888324E+00 0.24062539E+03</pdfrwt>
<totfact> 0.54342955E+03</totfact>
</mgrwt>
</event>
<event>
 5    0  0.3040647E+000  0.2672092E+03  0.7546771E-02  0.1102888E+00
         21   -1    0    0  501  502  0.00000000000E+00  0.00000000000E+00  0.36379069420E+04  0.36379069420E+04  0.00000000000E+00 0. -1.
         -1   -1    0    0    0  501 -0.00000000000E+00 -0.00000000000E+00 -0.10965129296E+03  0.10965129296E+03  0.00000000000E+00 0. -1.
         25    1    1    2    0    0 -0.19067393668E+03  0.22108426995E+03  0.29539952976E+04  0.29710180112E+04  0.12500000000E+03 0.  0.
         21    1    1    2  503  502  0.34067941409E+02 -0.47764363319E+02  0.53676052486E+03  0.53995733172E+03  0.00000000000E+00 0.  1.
         -1    1    1    2    0  503  0.15660599528E+03 -0.17331990663E+03  0.37499826519E+02  0.23658289198E+03  0.00000000000E+00 0. -1.
<mgrwt>
<rscale>  4 0.26720924E+03</rscale>
<asrwt>0</asrwt>
<pdfrwt beam="1">  1       21 0.55967790E+00 0.26720924E+03</pdfrwt>
<pdfrwt beam="2">  1       -1 0.16869432E-01 0.26720924E+03</pdfrwt>
<totfact> 0.14970529E+00</totfact>
</mgrwt>
</event>
<event>
 5    0  0.3040647E+000  0.2455706E+03  0.7546771E-02  0.1116136E+00
          1   -1    0    0  502    0 -0.00000000000E+00  0.00000000000E+00  0.42262312631E+03  0.42262312631E+03  0.00000000000E+00 0. -1.
         21   -1    0    0  503  502  0.00000000000E+00 -0.00000000000E+00 -0.18538659733E+03  0.18538659733E+03  0.00000000000E+00 0. -1.
         25    1    1    2    0    0  0.21996343475E+03 -0.10771897447E+03  0.15607196431E+03  0.31618151136E+03  0.12500000000E+03 0.  0.
         21    1    1    2  503  501 -0.16225850080E+03  0.11282326072E+03  0.70422903379E+01  0.19775364243E+03  0.00000000000E+00 0. -1.
          1    1    1    2  501    0 -0.57704933945E+02 -0.51042862474E+01  0.74122274337E+02  0.94074569851E+02  0.00000000000E+00 0. -1.
<mgrwt>
<rscale>  4 0.24557064E+03</rscale>
<asrwt>0</asrwt>
<pdfrwt beam="1">  1       21 0.28521015E-01 0.24557064E+03</pdfrwt>
<pdfrwt beam="2">  1        1 0.65018942E-01 0.24557064E+03</pdfrwt>
<totfact> 0.72066415E+03</totfact>
</mgrwt>
</event>
<event>
 5    0  0.3040647E+000  0.1880213E+03  0.7546771E-02  0.1160258E+00
          1   -1    0    0  502    0 -0.00000000000E+00  0.00000000000E+00  0.10631580484E+04  0.10631580484E+04  0.00000000000E+00 0. -1.
         21   -1    0    0  503  502  0.00000000000E+00 -0.00000000000E+00 -0.97862367348E+03  0.97862367348E+03  0.00000000000E+00 0. -1.
         25    1    1    2    0    0  0.22470730772E+03 -0.61818949923E+02 -0.75386914862E+03  0.79891091490E+03  0.12500000000E+03 0.  0.
         21    1    1    2  503  501 -0.12727343224E+03 -0.38820074066E+02 -0.17499441208E+03  0.21983759679E+03  0.00000000000E+00 0. -1.
          1    1    1    2  501    0 -0.97433875478E+02  0.10063902399E+03  0.10133979356E+04  0.10230332102E+04  0.00000000000E+00 0. -1.
<mgrwt>
<rscale>  4 0.18802130E+03</rscale>
<asrwt>0</asrwt>
<pdfrwt beam="1">  1       21 0.15055749E+00 0.18802130E+03</pdfrwt>
<pdfrwt beam="2">  1        1 0.16356278E+00 0.18802130E+03</pdfrwt>
<totfact> 0.48066066E+01</totfact>
</mgrwt>
</event>
<event>
 5    0  0.3040647E+000  0.2535430E+03  0.7546771E-02  0.1111086E+00
         21   -1    0    0  501  502  0.00000000000E+00  0.00000000000E+00  0.37287398937E+03  0.37287398937E+03  0.00000000000E+00 0.  1.
         -1   -1    0    0    0  501 -0.00000000000E+00 -0.00000000000E+00 -0.23513972327E+03  0.23513972327E+03  0.00000000000E+00 0.  1.
         25    1    1    2    0    0  0.19512268668E+03 -0.56859960881E+02  0.20699325824E+03  0.31587517625E+03  0.12500000000E+03 0.  0.
         21    1    1    2  503  502  0.26939608768E+02  0.16582006735E+02  0.31804326885E+02  0.44857782787E+02  0.00000000000E+00 0.  1.
         -1    1    1    2    0  503 -0.22206229545E+03  0.40277954146E+02 -0.10106331904E+03  0.24728075361E+03  0.00000000000E+00 0.  1.
<mgrwt>
<rscale>  4 0.25354295E+03</rscale>
<asrwt>0</asrwt>
<pdfrwt beam="1">  1       21 0.57365229E-01 0.25354295E+03</pdfrwt>
<pdfrwt beam="2">  1       -1 0.36175342E-01 0.25354295E+03</pdfrwt>
<totfact> 0.18969533E+03</totfact>
</mgrwt>
</event>
<event>
 5    0  0.3040647E+000  0.4525544E+03  0.7546771E-02  0.1026963E+00
          2   -1    0    0  502    0 -0.00000000000E+00  0.00000000000E+00  0.26033085766E+04  0.26033085766E+04  0.00000000000E+00 0. -1.
         21   -1    0    0  503  502  0.00000000000E+00 -0.00000000000E+00 -0.13659295635E+03  0.13659295635E+03  0.00000000000E+00 0. -1.
         25    1    1    2    0    0  0.45660927899E+03 -0.22876232193E+02  0.11942301917E+04  0.12848447791E+04  0.12500000000E+03 0.  0.
         21    1    1    2  503  501 -0.53218926357E+02 -0.11035343524E+03  0.98977272194E+01  0.12291501046E+03  0.00000000000E+00 0. -1.
          2    1    1    2  501    0 -0.40339035263E+03  0.13322966743E+03  0.12625877014E+04  0.13321417434E+04  0.00000000000E+00 0. -1.
<mgrwt>
<rscale>  4 0.45255445E+03</rscale>
<asrwt>0</asrwt>
<pdfrwt beam="1">  1       21 0.21014303E-01 0.45255445E+03</pdfrwt>
<pdfrwt beam="2">  1        2 0.40050897E+00 0.45255445E+03</pdfrwt>
<totfact> 0.85368990E+02</totfact>
</mgrwt>
</event>
<event>
 5    0  0.3040647E+000  0.2693636E+03  0.7546771E-02  0.1101644E+00
          2   -1    0    0  502    0 -0.00000000000E+00  0.00000000000E+00  0.16694010062E+04  0.16694010062E+04  0.00000000000E+00 0.  1.
         21   -1    0    0  503  502  0.00000000000E+00 -0.00000000000E+00 -0.63607784402E+02  0.63607784402E+02  0.00000000000E+00 0.  1.
         25    1    1    2    0    0 -0.22769292636E+03 -0.55490128539E+02  0.88202069024E+03  0.92114533114E+03  0.12500000000E+03 0.  0.
         21    1    1    2  503  501 -0.14427364007E+02  0.27253819034E+02 -0.14727530409E+02  0.34173376129E+02  0.00000000000E+00 0.  1.
          2    1    1    2  501    0  0.24212029037E+03  0.28236309505E+02  0.73850006198E+03  0.77769008334E+03  0.00000000000E+00 0.  1.
<mgrwt>
<rscale>  4 0.26936363E+03</rscale>
<asrwt>0</asrwt>
<pdfrwt beam="1">  1       21 0.97858142E-02 0.26936363E+03</pdfrwt>
<pdfrwt beam="2">  1        2 0.25683089E+00 0.26936363E+03</pdfrwt>
<totfact> 0.11761169E+04</totfact>
</mgrwt>
</event>
<event>
 5    0  0.3040647E+000  0.3324086E+03  0.7546771E-02  0.1070076E+00
         21   -1    0    0  503  502  0.00000000000E+00  0.00000000000E+00  0.33086316682E+04  0.33086316682E+04  0.00000000000E+00 0.  1.
          1   -1    0    0  502    0 -0.00000000000E+00 -0.00000000000E+00 -0.12916215591E+03  0.12916215591E+03  0.00000000000E+00 0.  1.
         25    1    1    2    0    0 -0.16059010724E+03 -0.24572878026E+03  0.68905879133E+03  0.75934105243E+03  0.12500000000E+03 0.  0.
         21    1    1    2  503  501 -0.43558012176E+02  0.72600273641E+01  0.23216093527E+04  0.23220292839E+04  0.00000000000E+00 0.  1.
          1    1    1    2  501    0  0.20414811941E+03  0.23846875290E+03  0.16880136827E+03  0.35642348786E+03  0.00000000000E+00 0.  1.
<mgrwt>
<rscale>  4 0.33240864E+03</rscale>
<asrwt>0</asrwt>
<pdfrwt beam="1">  1       21 0.50902019E+00 0.33240864E+03</pdfrwt>
<pdfrwt beam="2">  1        1 0.19871103E-01 0.33240864E+03</pdfrwt>
<totfact> 0.37857004E+00</totfact>
</mgrwt>
</event>
<event>
 5    0  0.3040647E+000  0.2166995E+03  0.7546771E-02  0.1136368E+00
          2   -1    0    0  502    0 -0.00000000000E+00  0.00000000000E+00  0.19365331739E+04  0.19365331739E+04  0.00000000000E+00 0. -1.
         21   -1    0    0  503  502  0.00000000000E+00 -0.00000000000E+00 -0.69697499776E+02  0.69697499776E+02  0.00000000000E+00 0. -1.
         25    1    1    2    0    0 -0.10335612805E+03  0.22539600888E+03  0.94455886217E+03  0.98453150997E+03  0.12500000000E+03 0.  0.
         21    1    1    2  503  501  0.14331150461E+03 -0.67856698637E+02  0.10917894364E+03  0.19251691001E+03  0.00000000000E+00 0. -1.
          2    1    1    2  501    0 -0.39955376560E+02 -0.15753931025E+03  0.81309786832E+03  0.82918225371E+03  0.00000000000E+00 0. -1.
<mgrwt>
<rscale>  4 0.21669949E+03</rscale>
<asrwt>0</asrwt>
<pdfrwt beam="1">  1       21 0.10722694E-01 0.21669949E+03</pdfrwt>
<pdfrwt beam="2">  1        2 0.29792814E+00 0.21669949E+03</pdfrwt>
<totfact> 0.73756498E+03</totfact>
</mgrwt>
</event>
<event>
 5    0  0.3040647E+000  0.2552196E+03  0.7546771E-02  0.1110050E+00
          2   -1    0    0  502    0 -0.00000000000E+00  0.00000000000E+00  0.26360923128E+04  0.26360923128E+04  0.00000000000E+00 0. -1.
         21   -1    0    0  503  502  0.00000000000E+00 -0.00000000000E+00 -0.28720676577E+03  0.28720676577E+03  0.00000000000E+00 0. -1.
         25    1    1    2    0    0  0.47746957728E+01 -0.26935273524E+03  0.12455392874E+04  0.12804557041E+04  0.12500000000E+03 0.  0.
         21    1    1    2  503  501 -0.10511662616E+02  0.66952573677E+02 -0.25788159562E+03  0.26663844347E+03  0.00000000000E+00 0. -1.
          2    1    1    2  501    0  0.57369668431E+01  0.20240016156E+03  0.13612278552E+04  0.13762049310E+04  0.00000000000E+00 0. -1.
<mgrwt>
<rscale>  4 0.25521960E+03</rscale>
<asrwt>0</asrwt>
<pdfrwt beam="1">  1       21 0.44185658E-01 0.25521960E+03</pdfrwt>
<pdfrwt beam="2">  1        2 0.40555265E+00 0.25521960E+03</pdfrwt>
<totfact> 0.20627797E+02</totfact>
</mgrwt>
</event>
<event>
 5    0  0.3040647E+000  0.3373127E+03  0.7546771E-02  0.1067946E+00
         -1   -1    0    0    0  501 -0.00000000000E+00  0.00000000000E+00  0.67948178178E+03  0.67948178178E+03  0.00000000000E+00 0. -1.
         21   -1    0    0  501  502  0.00000000000E+00 -0.00000000000E+00 -0.27010750448E+03  0.27010750448E+03  0.00000000000E+00 0.  1.
         25    1    1    2    0    0 -0.22941006390E+03 -0.26058429736E+03  0.21680688808E+02  0.36963252794E+03  0.12500000000E+03 0.  0.
         21    1    1    2  503  502  0.10487415162E+02  0.49693104989E+02 -0.33269771114E+02  0.60714645928E+02  0.00000000000E+00 0.  1.
         -1    1    1    2    0  503  0.21892264874E+03  0.21089119237E+03  0.42096335960E+03  0.51924211239E+03  0.00000000000E+00 0. -1.
<mgrwt>
<rscale>  4 0.33731271E+03</rscale>
<asrwt>0</asrwt>
<pdfrwt beam="1">  1       21 0.41555001E-01 0.33731271E+03</pdfrwt>
<pdfrwt beam="2">  1       -1 0.10453566E+00 0.33731271E+03</pdfrwt>
<totfact> 0.45196996E+02</totfact>
</mgrwt>
</event>
<event>
 5    0  0.3040647E+000  0.3362160E+03  0.7546771E-02  0.1068419E+00
         -3   -1    0    0    0  501 -0.00000000000E+00  0.00000000000E+00  0.93382319406E+03  0.93382319406E+03  0.00000000000E+00 0. -1.
         21   -1    0    0  501  502  0.00000000000E+00 -0.00000000000E+00 -0.14254024105E+03  0.14254024105E+03  0.00000000000E+00 0.  1.
         25    1    1    2    0    0 -0.56797159483E+02  0.31285506320E+03  0.26540883725E+03  0.43263270656E+03  0.12500000000E+03 0.  0.
         21    1    1    2  503  502  0.24323598522E+02 -0.50684198779E+01 -0.84506066498E+01  0.26243838855E+02  0.00000000000E+00 0. -1.
         -3    1    1    2    0  503  0.32473560961E+02 -0.30778664332E+03  0.53432472242E+03  0.61748688970E+03  0.00000000000E+00 0. -1.
<mgrwt>
<rscale>  4 0.33621600E+03</rscale>
<asrwt>0</asrwt>
<pdfrwt beam="1">  1       21 0.21929268E-01 0.33621600E+03</pdfrwt>
<pdfrwt beam="2">  1       -3 0.14366510E+00 0.33621600E+03</pdfrwt>
<totfact> 0.35768858E+02</totfact>
</mgrwt>
</event>
<event>
 5    0  0.3040647E+000  0.1993154E+03  0.7546771E-02  0.1150318E+00
         -3   -1    0    0    0  501 -0.00000000000E+00  0.00000000000E+00  0.10682472614E+03  0.10682472614E+03  0.00000000000E+00 0.  1.
         21   -1    0    0  501  502  0.00000000000E+00 -0.00000000000E+00 -0.74691533153E+03  0.74691533153E+03  0.00000000000E+00 0.  1.
         25    1    1    2    0    0 -0.19215843566E+03 -0.72347749504E+02 -0.19043801220E+03  0.30667686210E+03  0.12500000000E+03 0.  0.
         21    1    1    2  503  502  0.13377591502E+03  0.57586711529E+02 -0.46301279482E+03  0.48537930833E+03  0.00000000000E+00 0.  1.
         -3    1    1    2    0  503  0.58382520640E+02  0.14761037974E+02  0.13360201629E+02  0.61683887247E+02  0.00000000000E+00 0.  1.
<mgrwt>
<rscale>  4 0.19931539E+03</rscale>
<asrwt>0</asrwt>
<pdfrwt beam="1">  1       21 0.11491005E+00 0.19931539E+03</pdfrwt>
<pdfrwt beam="2">  1       -3 0.16434573E-01 0.19931539E+03</pdfrwt>
<totfact> 0.91583504E+02</totfact>
</mgrwt>
</event>
<event>
 5    0  0.3040647E+000  0.2769141E+03  0.7546771E-02  0.1097386E+00
         -1   -1    0    0    0  501 -0.00000000000E+00  0.00000000000E+00  0.44167910465E+03  0.44167910465E+03  0.00000000000E+00 0.  1.
         21   -1    0    0  501  502  0.00000000000E+00 -0.00000000000E+00 -0.24600466383E+03  0.24600466383E+03  0.00000000000E+00 0. -1.
         25    1    1    2    0    0  0.14708217769E+03  0.20268433095E+03  0.40340200241E+02  0.28278337427E+03  0.12500000000E+03 0.  0.
         21    1    1    2  503  502 -0.35987206885E+02  0.17448434018E+02 -0.63615976517E+02  0.75143325567E+02  0.00000000000E+00 0.  1.
         -1    1    1    2    0  503 -0.11109497080E+03 -0.22013276497E+03  0.21895021710E+03  0.32975706864E+03  0.00000000000E+00 0.  1.
<mgrwt>
<rscale>  4 0.27691411E+03</rscale>
<asrwt>0</asrwt>
<pdfrwt beam="1">  1       21 0.37846871E-01 0.27691411E+03</pdfrwt>
<pdfrwt beam="2">  1       -1 0.67950631E-01 0.27691411E+03</pdfrwt>
<totfact> 0.13885520E+03</totfact>
</mgrwt>
</event>
<event>
 5    0  0.3040647E+000  0.2961248E+03  0.7546771E-02  0.1087194E+00
          2   -1    0    0  502    0 -0.00000000000E+00  0.00000000000E+00  0.25558877692E+04  0.25558877692E+04  0.00000000000E+00 0. -1.
         21   -1    0    0  503  502  0.00000000000E+00 -0.00000000000E+00 -0.79361453602E+02  0.79361453602E+02  0.00000000000E+00 0. -1.
         25    1    1    2    0    0  0.15989537744E+03  0.24881544416E+03  0.11167431471E+04  0.11619879146E+04  0.12500000000E+03 0.  0.
         21    1    1    2  503  501 -0.60988709092E+02 -0.12968091704E+02 -0.23426150866E+02  0.66607646584E+02  0.00000000000E+00 0. -1.
          2    1    1    2  501    0 -0.98906668344E+02 -0.23584735245E+03  0.13832093193E+04  0.14066536616E+04  0.00000000000E+00 0. -1.
<mgrwt>
<rscale>  4 0.29612481E+03</rscale>
<asrwt>0</asrwt>
<pdfrwt beam="1">  1       21 0.12209456E-01 0.29612481E+03</pdfrwt>
<pdfrwt beam="2">  1        2 0.39321344E+00 0.29612481E+03</pdfrwt>
<totfact> 0.26363751E+03</totfact>
</mgrwt>
</event>
<event>
 5    0  0.3040647E+000  0.3155503E+03  0.7546771E-02  0.1077716E+00
          2   -1    0    0  502    0 -0.00000000000E+00  0.00000000000E+00  0.11243721591E+04  0.11243721591E+04  0.00000000000E+00 0.  1.
         21   -1    0    0  503  502  0.00000000000E+00 -0.00000000000E+00 -0.29993769892E+03  0.29993769892E+03  0.00000000000E+00 0.  1.
         25    1    1    2    0    0 -0.18388215595E+03  0.99114711775E+02  0.14294436344E+03  0.28230208006E+03  0.12500000000E+03 0.  0.
         21    1    1    2  503  501  0.29114030096E+03 -0.17195043143E+03 -0.97815659151E+02  0.35199080795E+03  0.00000000000E+00 0.  1.
          2    1    1    2  501    0 -0.10725814501E+03  0.72835719653E+02  0.77930575592E+03  0.79001697003E+03  0.00000000000E+00 0.  1.
<mgrwt>
<rscale>  4 0.31555030E+03</rscale>
<asrwt>0</asrwt>
<pdfrwt beam="1">  1       21 0.46144262E-01 0.31555030E+03</pdfrwt>
<pdfrwt beam="2">  1        2 0.17298033E+00 0.31555030E+03</pdfrwt>
<totfact> 0.11988305E+03</totfact>
</mgrwt>
</event>
<event>
 5    0  0.3040647E+000  0.2663319E+03  0.7546771E-02  0.1103397E+00
         21   -1    0    0  503  502  0.00000000000E+00  0.00000000000E+00  0.54881717893E+02  0.54881717893E+02  0.00000000000E+00 0. -1.
          1   -1    0    0  502    0 -0.00000000000E+00 -0.00000000000E+00 -0.26622108026E+04  0.26622108026E+04  0.00000000000E+00 0. -1.
         25    1    1    2    0    0 -0.23608128868E+03 -0.40143925236E+02 -0.44404693878E+03  0.51975820671E+03  0.12500000000E+03 0.  0.
         21    1    1    2  503  501  0.15311972621E+01  0.30794889398E+02 -0.11688934064E+02  0.32974246885E+02  0.00000000000E+00 0. -1.
          1    1    1    2  501    0  0.23455009142E+03  0.93490358373E+01 -0.21515932119E+04  0.21643600669E+04  0.00000000000E+00 0. -1.
<mgrwt>
<rscale>  4 0.26633188E+03</rscale>
<asrwt>0</asrwt>
<pdfrwt beam="1">  1       21 0.84433402E-02 0.26633188E+03</pdfrwt>
<pdfrwt beam="2">  1        1 0.40957094E+00 0.26633188E+03</pdfrwt>
<totfact> 0.14969860E+03</totfact>
</mgrwt>
</event>
<event>
 5    0  0.3040647E+000  0.2163913E+03  0.7546771E-02  0.1136602E+00
         21   -1    0    0  503  502  0.00000000000E+00  0.00000000000E+00  0.12128184114E+03  0.12128184114E+03  0.00000000000E+00 0. -1.
          2   -1    0    0  502    0 -0.00000000000E+00 -0.00000000000E+00 -0.33394241412E+04  0.33394241412E+04  0.00000000000E+00 0. -1.
         25    1    1    2    0    0 -0.43317664604E+02  0.19683486323E+03 -0.23227377743E+04  0.23348139437E+04  0.12500000000E+03 0.  0.
         21    1    1    2  503  501  0.26183292012E+02 -0.17396965576E+03  0.47758640690E+02  0.18229617019E+03  0.00000000000E+00 0. -1.
          2    1    1    2  501    0  0.17134372592E+02 -0.22865207466E+02 -0.94316316638E+03  0.94359586840E+03  0.00000000000E+00 0. -1.
<mgrwt>
<rscale>  4 0.21639130E+03</rscale>
<asrwt>0</asrwt>
<pdfrwt beam="1">  1       21 0.18658746E-01 0.21639130E+03</pdfrwt>
<pdfrwt beam="2">  1        2 0.51375752E+00 0.21639130E+03</pdfrwt>
<totfact> 0.43976209E+02</totfact>
</mgrwt>
</event>
<event>
 5    0  0.3040647E+000  0.2909482E+03  0.7546771E-02  0.1089855E+00
         21   -1    0    0  503  502  0.00000000000E+00  0.00000000000E+00  0.31146746962E+03  0.31146746962E+03  0.00000000000E+00 0.  1.
          2   -1    0    0  502    0 -0.00000000000E+00 -0.00000000000E+00 -0.57408310694E+03  0.57408310694E+03  0.00000000000E+00 0.  1.
         25    1    1    2    0    0  0.61239911864E+02 -0.27224432943E+03 -0.25306897674E+03  0.39690831271E+03  0.12500000000E+03 0.  0.
         21    1    1    2  503  501  0.84006897294E+02  0.61045972180E+02  0.15315551969E+03  0.18504157026E+03  0.00000000000E+00 0.  1.
          2    1    1    2  501    0 -0.14524680916E+03  0.21119835725E+03 -0.16270218027E+03  0.30360069358E+03  0.00000000000E+00 0.  1.
<mgrwt>
<rscale>  4 0.29094821E+03</rscale>
<asrwt>0</asrwt>
<pdfrwt beam="1">  1       21 0.47918073E-01 0.29094821E+03</pdfrwt>
<pdfrwt beam="2">  1        2 0.88320476E-01 0.29094821E+03</pdfrwt>
<totfact> 0.26834375E+03</totfact>
</mgrwt>
</event>
<event>
 5    0  0.3040647E+000  0.2582420E+03  0.7546771E-02  0.1108204E+00
         21   -1    0    0  503  502  0.00000000000E+00  0.00000000000E+00  0.37853226322E+03  0.37853226322E+03  0.00000000000E+00 0.  1.
          2   -1    0    0  502    0 -0.00000000000E+00 -0.00000000000E+00 -0.29819324550E+04  0.29819324550E+04  0.00000000000E+00 0.  1.
         25    1    1    2    0    0  0.12711165689E+03  0.19075711052E+03  0.32070047847E+03  0.41354497388E+03  0.12500000000E+03 0.  0.
         21    1    1    2  503  501 -0.21397536384E+02  0.89354318260E+01 -0.12079608442E+02  0.26146002473E+02  0.00000000000E+00 0.  1.
          2    1    1    2  501    0 -0.10571412051E+03 -0.19969254234E+03 -0.29120210618E+04  0.29207737419E+04  0.00000000000E+00 0.  1.
<mgrwt>
<rscale>  4 0.25824197E+03</rscale>
<asrwt>0</asrwt>
<pdfrwt beam="1">  1       21 0.58235735E-01 0.25824197E+03</pdfrwt>
<pdfrwt beam="2">  1        2 0.45875882E+00 0.25824197E+03</pdfrwt>
<totfact> 0.72947033E+01</totfact>
</mgrwt>
</event>
<event>
 5    0  0.3040647E+000  0.2200269E+03  0.7546771E-02  0.1133863E+00
          2   -1    0    0  502    0 -0.00000000000E+00  0.00000000000E+00  0.78022909310E+03  0.78022909310E+03  0.00000000000E+00 0.  1.
         21   -1    0    0  503  502  0.00000000000E+00 -0.00000000000E+00 -0.22178635377E+03  0.22178635377E+03  0.00000000000E+00 0.  1.
         25    1    1    2    0    0  0.20185939962E+03 -0.85863857951E+02 -0.10361641944E+03  0.27291240664E+03  0.12500000000E+03 0.  0.
         21    1    1    2  503  501 -0.54349807203E+02 -0.15287041979E+02  0.15912517058E+02  0.58658361677E+02  0.00000000000E+00 0.  1.
          2    1    1    2  501    0 -0.14750959242E+03  0.10115089993E+03  0.64614664171E+03  0.67044467856E+03  0.00000000000E+00 0.  1.
<mgrwt>
<rscale>  4 0.22002686E+03</rscale>
<asrwt>0</asrwt>
<pdfrwt beam="1">  1       21 0.34120978E-01 0.22002686E+03</pdfrwt>
<pdfrwt beam="2">  1        2 0.12003524E+00 0.22002686E+03</pdfrwt>
<totfact> 0.37918675E+03</totfact>
</mgrwt>
</event>
<event>
 5    0  0.3040647E+000  0.4157897E+03  0.7546771E-02  0.1038445E+00
         21   -1    0    0  501  502  0.00000000000E+00  0.00000000000E+00  0.15009836058E+04  0.15009836058E+04  0.00000000000E+00 0.  1.
         -1   -1    0    0    0  501 -0.00000000000E+00 -0.00000000000E+00 -0.86559188038E+03  0.86559188038E+03  0.00000000000E+00 0.  1.
         25    1    1    2    0    0  0.25045069012E+03 -0.38474145961E+03  0.13238850335E+04  0.14067864517E+04  0.12500000000E+03 0.  0.
         21    1    1    2  503  502 -0.12916441482E+03  0.90140125164E+01  0.36270142129E+02  0.13446271486E+03  0.00000000000E+00 0.  1.
         -1    1    1    2    0  503 -0.12128627530E+03  0.37572744709E+03 -0.72476345019E+03  0.82532631958E+03  0.00000000000E+00 0.  1.
<mgrwt>
<rscale>  4 0.41578972E+03</rscale>
<asrwt>0</asrwt>
<pdfrwt beam="1">  1       21 0.23092055E+00 0.41578972E+03</pdfrwt>
<pdfrwt beam="2">  1       -1 0.13316798E+00 0.41578972E+03</pdfrwt>
<totfact> 0.34556593E+00</totfact>
</mgrwt>
</event>
<event>
 5    0  0.3040647E+000  0.2065661E+03  0.7546771E-02  0.1144314E+00
         21   -1    0    0  503  502  0.00000000000E+00  0.00000000000E+00  0.18910786795E+04  0.18910786795E+04  0.00000000000E+00 0. -1.
          2   -1    0    0  502    0 -0.00000000000E+00 -0.00000000000E+00 -0.27316709737E+03  0.27316709737E+03  0.00000000000E+00 0.  1.
         25    1    1    2    0    0  0.90373522356E+02 -0.18298059916E+03  0.14835282653E+04  0.15027076852E+04  0.12500000000E+03 0.  0.
         21    1    1    2  503  501 -0.44183148180E+01  0.12798394689E+03  0.37709573109E+03  0.39824691157E+03  0.00000000000E+00 0. -1.
          2    1    1    2  501    0 -0.85955207538E+02  0.54996652264E+02 -0.24271241428E+03  0.26329118009E+03  0.00000000000E+00 0.  1.
<mgrwt>
<rscale>  4 0.20656613E+03</rscale>
<asrwt>0</asrwt>
<pdfrwt beam="1">  1       21 0.29093517E+00 0.20656613E+03</pdfrwt>
<pdfrwt beam="2">  1        2 0.42025708E-01 0.20656613E+03</pdfrwt>
<totfact> 0.56776412E+01</totfact>
</mgrwt>
</event>
<event>
 5    0  0.3040647E+000  0.3019983E+03  0.7546771E-02  0.1084246E+00
         21   -1    0    0  501  502  0.00000000000E+00  0.00000000000E+00  0.72345022092E+03  0.72345022092E+03  0.00000000000E+00 0.  1.
         -4   -1    0    0    0  501 -0.00000000000E+00 -0.00000000000E+00 -0.12512951328E+03  0.12512951328E+03  0.00000000000E+00 0. -1.
         25    1    1    2    0    0 -0.22660337160E+03  0.14316575873E+03  0.29689183962E+03  0.41906477653E+03  0.12500000000E+03 0.  0.
         21    1    1    2  503  502 -0.21477655819E+02 -0.96151176082E+01  0.16010591610E+02  0.28461890833E+02  0.00000000000E+00 0. -1.
         -4    1    1    2    0  503  0.24808102742E+03 -0.13355064112E+03  0.28541827641E+03  0.40105306684E+03  0.00000000000E+00 0. -1.
<mgrwt>
<rscale>  4 0.30199833E+03</rscale>
<asrwt>0</asrwt>
<pdfrwt beam="1">  1       21 0.11130003E+00 0.30199833E+03</pdfrwt>
<pdfrwt beam="2">  1       -4 0.19250695E-01 0.30199833E+03</pdfrwt>
<totfact> 0.63724013E+02</totfact>
</mgrwt>
</event>
<event>
 5    0  0.3040647E+000  0.2355543E+03  0.7546771E-02  0.1122790E+00
         21   -1    0    0  503  502  0.00000000000E+00  0.00000000000E+00  0.38504532828E+02  0.38504532828E+02  0.00000000000E+00 0.  1.
          1   -1    0    0  502    0 -0.00000000000E+00 -0.00000000000E+00 -0.15404406581E+04  0.15404406581E+04  0.00000000000E+00 0.  1.
         25    1    1    2    0    0 -0.97918360237E+02 -0.19328116388E+03 -0.65512806321E+03  0.70125843509E+03  0.12500000000E+03 0.  0.
         21    1    1    2  503  501 -0.30040260641E+01  0.30541081864E+02 -0.54303695163E+02  0.62375260820E+02  0.00000000000E+00 0.  1.
          1    1    1    2  501    0  0.10092238630E+03  0.16274008202E+03 -0.79250436688E+03  0.81531149499E+03  0.00000000000E+00 0.  1.
<mgrwt>
<rscale>  4 0.23555432E+03</rscale>
<asrwt>0</asrwt>
<pdfrwt beam="1">  1       21 0.59237748E-02 0.23555432E+03</pdfrwt>
<pdfrwt beam="2">  1        1 0.23699085E+00 0.23555432E+03</pdfrwt>
<totfact> 0.15225834E+04</totfact>
</mgrwt>
</event>
<event>
 5    0  0.3040647E+000  0.2934781E+03  0.7546771E-02  0.1088547E+00
         21   -1    0    0  503  502  0.00000000000E+00  0.00000000000E+00  0.22210131081E+03  0.22210131081E+03  0.00000000000E+00 0.  1.
          1   -1    0    0  502    0 -0.00000000000E+00 -0.00000000000E+00 -0.10413212527E+04  0.10413212527E+04  0.00000000000E+00 0. -1.
         25    1    1    2    0    0 -0.38985884383E+02 -0.27899397593E+03  0.19246696256E+02  0.30879276724E+03  0.12500000000E+03 0.  0.
         21    1    1    2  503  501  0.48188871269E+02  0.15127542213E+02  0.21612592183E+02  0.54937364229E+02  0.00000000000E+00 0.  1.
          1    1    1    2  501    0 -0.92029868861E+01  0.26386643371E+03 -0.86007923036E+03  0.89969243206E+03  0.00000000000E+00 0. -1.
<mgrwt>
<rscale>  4 0.29347812E+03</rscale>
<asrwt>0</asrwt>
<pdfrwt beam="1">  1       21 0.34169432E-01 0.29347812E+03</pdfrwt>
<pdfrwt beam="2">  1        1 0.16020327E+00 0.29347812E+03</pdfrwt>
<totfact> 0.13219577E+03</totfact>
</mgrwt>
</event>
<event>
 5    0  0.3040647E+000  0.2551786E+03  0.7546771E-02  0.1110075E+00
         -2   -1    0    0    0  501 -0.00000000000E+00  0.00000000000E+00  0.34675424893E+03  0.34675424893E+03  0.00000000000E+00 0.  1.
         21   -1    0    0  501  502  0.00000000000E+00 -0.00000000000E+00 -0.59702017187E+03  0.59702017187E+03  0.00000000000E+00 0. -1.
         25    1    1    2    0    0 -0.19216544861E+03  0.64943105597E+02 -0.40993494521E+03  0.47414852727E+03  0.12500000000E+03 0.  0.
         21    1    1    2  503  502 -0.12907226925E+02  0.25973022154E+02 -0.11293006911E+03  0.11659500373E+03  0.00000000000E+00 0. -1.
         -2    1    1    2    0  503  0.20507267554E+03 -0.90916127752E+02  0.27259909137E+03  0.35303088980E+03  0.00000000000E+00 0.  1.
<mgrwt>
<rscale>  4 0.25517857E+03</rscale>
<asrwt>0</asrwt>
<pdfrwt beam="1">  1       21 0.91849256E-01 0.25517857E+03</pdfrwt>
<pdfrwt beam="2">  1       -2 0.53346808E-01 0.25517857E+03</pdfrwt>
<totfact> 0.26610844E+02</totfact>
</mgrwt>
</event>
<event>
 5    0  0.3040647E+000  0.2553653E+03  0.7546771E-02  0.1109960E+00
         21   -1    0    0  503  502  0.00000000000E+00  0.00000000000E+00  0.76158888204E+02  0.76158888204E+02  0.00000000000E+00 0. -1.
          2   -1    0    0  502    0 -0.00000000000E+00 -0.00000000000E+00 -0.18927979730E+04  0.18927979730E+04  0.00000000000E+00 0. -1.
         25    1    1    2    0    0  0.12563343596E+02 -0.20976664995E+03 -0.28696036425E+03  0.37700283247E+03  0.12500000000E+03 0.  0.
         21    1    1    2  503  501  0.16840402124E+03  0.51092651392E+02 -0.40128541815E+03  0.43817845704E+03  0.00000000000E+00 0. -1.
          2    1    1    2  501    0 -0.18096736484E+03  0.15867399856E+03 -0.11283933024E+04  0.11537755717E+04  0.00000000000E+00 0. -1.
<mgrwt>
<rscale>  4 0.25536530E+03</rscale>
<asrwt>0</asrwt>
<pdfrwt beam="1">  1       21 0.11716753E-01 0.25536530E+03</pdfrwt>
<pdfrwt beam="2">  1        2 0.29119967E+00 0.25536530E+03</pdfrwt>
<totfact> 0.65346077E+03</totfact>
</mgrwt>
</event>
<event>
 5    0  0.3040647E+000  0.2909818E+03  0.7546771E-02  0.1089838E+00
          1   -1    0    0  502    0 -0.00000000000E+00  0.00000000000E+00  0.31260949167E+04  0.31260949167E+04  0.00000000000E+00 0.  1.
         21   -1    0    0  503  502  0.00000000000E+00 -0.00000000000E+00 -0.17757630092E+03  0.17757630092E+03  0.00000000000E+00 0. -1.
         25    1    1    2    0    0  0.16782930948E+03  0.12568962206E+03 -0.40090336592E+02  0.24737985630E+03  0.12500000000E+03 0.  0.
         21    1    1    2  503  501  0.23538685074E+02  0.57616450702E+02  0.66641161841E+01  0.62595012030E+02  0.00000000000E+00 0. -1.
          1    1    1    2  501    0 -0.19136799456E+03 -0.18330607276E+03  0.29819448362E+04  0.29936963493E+04  0.00000000000E+00 0.  1.
<mgrwt>
<rscale>  4 0.29098180E+03</rscale>
<asrwt>0</asrwt>
<pdfrwt beam="1">  1       21 0.27319433E-01 0.29098180E+03</pdfrwt>
<pdfrwt beam="2">  1        1 0.48093764E+00 0.29098180E+03</pdfrwt>
<totfact> 0.80919176E+01</totfact>
</mgrwt>
</event>
<event>
 5    0  0.3040647E+000  0.3028747E+03  0.7546771E-02  0.1083812E+00
          2   -1    0    0  502    0 -0.00000000000E+00  0.00000000000E+00  0.17607239635E+04  0.17607239635E+04  0.00000000000E+00 0. -1.
         21   -1    0    0  503  502  0.00000000000E+00 -0.00000000000E+00 -0.95630240970E+03  0.95630240970E+03  0.00000000000E+00 0. -1.
         25    1    1    2    0    0  0.20217692869E+03  0.37719505109E+03  0.13155536605E+03  0.46484775077E+03  0.12500000000E+03 0.  0.
         21    1    1    2  503  501 -0.13230091344E+03 -0.22906422865E+03 -0.76271509484E+03  0.80728450278E+03  0.00000000000E+00 0. -1.
          2    1    1    2  501    0 -0.69876015248E+02 -0.14813082244E+03  0.14355812826E+04  0.14448941196E+04  0.00000000000E+00 0. -1.
<mgrwt>
<rscale>  4 0.30287468E+03</rscale>
<asrwt>0</asrwt>
<pdfrwt beam="1">  1       21 0.14712345E+00 0.30287468E+03</pdfrwt>
<pdfrwt beam="2">  1        2 0.27088061E+00 0.30287468E+03</pdfrwt>
<totfact> 0.36444587E+01</totfact>
</mgrwt>
</event>
<event>
 5    0  0.3040647E+000  0.2737532E+03  0.7546771E-02  0.1099151E+00
         21   -1    0    0  503  502  0.00000000000E+00  0.00000000000E+00  0.12437076445E+03  0.12437076445E+03  0.00000000000E+00 0. -1.
          1   -1    0    0  502    0 -0.00000000000E+00 -0.00000000000E+00 -0.85857934804E+03  0.85857934804E+03  0.00000000000E+00 0. -1.
         25    1    1    2    0    0  0.18751842225E+03  0.17414119620E+03 -0.12715804368E+03  0.31190139944E+03  0.12500000000E+03 0.  0.
         21    1    1    2  503  501 -0.32239771015E+02  0.98008668894E+01 -0.27499424924E+02  0.43493427067E+02  0.00000000000E+00 0. -1.
          1    1    1    2  501    0 -0.15527865124E+03 -0.18394206309E+03 -0.57955111498E+03  0.62755528599E+03  0.00000000000E+00 0. -1.
<mgrwt>
<rscale>  4 0.27375322E+03</rscale>
<asrwt>0</asrwt>
<pdfrwt beam="1">  1       21 0.19133964E-01 0.27375322E+03</pdfrwt>
<pdfrwt beam="2">  1        1 0.13208913E+00 0.27375322E+03</pdfrwt>
<totfact> 0.56450328E+03</totfact>
</mgrwt>
</event>
<event>
 5    0  0.3040647E+000  0.4084038E+03  0.7546771E-02  0.1040908E+00
          4   -1    0    0  502    0 -0.00000000000E+00  0.00000000000E+00  0.19304680271E+04  0.19304680271E+04  0.00000000000E+00 0. -1.
         21   -1    0    0  503  502  0.00000000000E+00 -0.00000000000E+00 -0.23035902440E+03  0.23035902440E+03  0.00000000000E+00 0. -1.
         25    1    1    2    0    0 -0.38008868138E+03 -0.16333284449E+03  0.60676265762E+02  0.43640764547E+03  0.12500000000E+03 0.  0.
         21    1    1    2  503  501 -0.21803648827E+01  0.10282206178E+03  0.12788263796E+03  0.16410697569E+03  0.00000000000E+00 0. -1.
          4    1    1    2  501    0  0.38226904626E+03  0.60510782718E+02  0.15115500989E+04  0.15603124303E+04  0.00000000000E+00 0. -1.
<mgrwt>
<rscale>  4 0.40840383E+03</rscale>
<asrwt>0</asrwt>
<pdfrwt beam="1">  1       21 0.35439851E-01 0.40840383E+03</pdfrwt>
<pdfrwt beam="2">  1        4 0.29699507E+00 0.40840383E+03</pdfrwt>
<totfact> 0.11324911E+01</totfact>
</mgrwt>
</event>
<event>
 5    0  0.3040647E+000  0.2605119E+03  0.7546771E-02  0.1106836E+00
         21   -1    0    0  503  502  0.00000000000E+00  0.00000000000E+00  0.27914685448E+03  0.27914685448E+03  0.00000000000E+00 0. -1.
          3   -1    0    0  502    0 -0.00000000000E+00 -0.00000000000E+00 -0.49212045987E+03  0.49212045987E+03  0.00000000000E+00 0.  1.
         25    1    1    2    0    0  0.26244027174E+03  0.48111510480E+02  0.74743267140E+02  0.30397560701E+03  0.12500000000E+03 0.  0.
         21    1    1    2  503  501 -0.42686907221E+02 -0.17698640250E+02  0.46882126012E+02  0.65828167635E+02  0.00000000000E+00 0. -1.
          3    1    1    2  501    0 -0.21975336452E+03 -0.30412870230E+02 -0.33459899854E+03  0.40146353971E+03  0.00000000000E+00 0.  1.
<mgrwt>
<rscale>  4 0.26051186E+03</rscale>
<asrwt>0</asrwt>
<pdfrwt beam="1">  1       21 0.42945670E-01 0.26051186E+03</pdfrwt>
<pdfrwt beam="2">  1        3 0.75710840E-01 0.26051186E+03</pdfrwt>
<totfact> 0.42814988E+02</totfact>
</mgrwt>
</event>
<event>
 5    0  0.3040647E+000  0.2198270E+03  0.7546771E-02  0.1134012E+00
         -1   -1    0    0    0  501 -0.00000000000E+00  0.00000000000E+00  0.46145554927E+03  0.46145554927E+03  0.00000000000E+00 0. -1.
         21   -1    0    0  501  502  0.00000000000E+00 -0.00000000000E+00 -0.76101543896E+03  0.76101543896E+03  0.00000000000E+00 0.  1.
         25    1    1    2    0    0  0.19362346636E+03 -0.69257029837E+02 -0.45687371505E+03  0.51637696929E+03  0.12500000000E+03 0.  0.
         21    1    1    2  503  502 -0.13773857043E+02  0.58527054858E+02 -0.25189837023E+03  0.25897475593E+03  0.00000000000E+00 0. -1.
         -1    1    1    2    0  503 -0.17984960932E+03  0.10729974979E+02  0.40921219559E+03  0.44711926301E+03  0.00000000000E+00 0. -1.
<mgrwt>
<rscale>  4 0.21982702E+03</rscale>
<asrwt>0</asrwt>
<pdfrwt beam="1">  1       21 0.11707930E+00 0.21982702E+03</pdfrwt>
<pdfrwt beam="2">  1       -1 0.70993162E-01 0.21982702E+03</pdfrwt>
<totfact> 0.10694609E+02</totfact>
</mgrwt>
</event>
<event>
 5    0  0.3040647E+000  0.2362778E+03  0.7546771E-02  0.1122298E+00
         21   -1    0    0  503  502  0.00000000000E+00  0.00000000000E+00  0.55105385116E+03  0.55105385116E+03  0.00000000000E+00 0.  1.
          2   -1    0    0  502    0 -0.00000000000E+00 -0.00000000000E+00 -0.88008060426E+03  0.88008060426E+03  0.00000000000E+00 0. -1.
         25    1    1    2    0    0 -0.25788193881E+02  0.25017820417E+03  0.45578890655E+03  0.53537154586E+03  0.12500000000E+03 0.  0.
         21    1    1    2  503  501 -0.88438059923E+01 -0.53931589475E+02  0.26211110749E+02  0.60612305470E+02  0.00000000000E+00 0. -1.
          2    1    1    2  501    0  0.34631999873E+02 -0.19624661470E+03 -0.81102677040E+03  0.83515060409E+03  0.00000000000E+00 0. -1.
<mgrwt>
<rscale>  4 0.23627781E+03</rscale>
<asrwt>0</asrwt>
<pdfrwt beam="1">  1       21 0.84777516E-01 0.23627781E+03</pdfrwt>
<pdfrwt beam="2">  1        2 0.13539702E+00 0.23627781E+03</pdfrwt>
<totfact> 0.46537182E+02</totfact>
</mgrwt>
</event>
<event>
 5    0  0.3040647E+000  0.2809125E+03  0.7546771E-02  0.1095192E+00
         21   -1    0    0  503  502  0.00000000000E+00  0.00000000000E+00  0.91435010298E+03  0.91435010298E+03  0.00000000000E+00 0. -1.
          1   -1    0    0  502    0 -0.00000000000E+00 -0.00000000000E+00 -0.13412752390E+04  0.13412752390E+04  0.00000000000E+00 0.  1.
         25    1    1    2    0    0  0.20850756701E+03  0.15572227683E+03  0.83502159679E+03  0.88352187302E+03  0.12500000000E+03 0.  0.
         21    1    1    2  503  501  0.62868740074E+01 -0.24966190517E+02  0.39189913862E+02  0.46890135447E+02  0.00000000000E+00 0. -1.
          1    1    1    2  501    0 -0.21479444101E+03 -0.13075608631E+03 -0.13011366466E+04  0.13252133335E+04  0.00000000000E+00 0.  1.
<mgrwt>
<rscale>  4 0.28091249E+03</rscale>
<asrwt>0</asrwt>
<pdfrwt beam="1">  1       21 0.14066925E+00 0.28091249E+03</pdfrwt>
<pdfrwt beam="2">  1        1 0.20635004E+00 0.28091249E+03</pdfrwt>
<totfact> 0.33804501E+01</totfact>
</mgrwt>
</event>
<event>
 5    0  0.3040647E+000  0.5376122E+03  0.7546771E-02  0.1004403E+00
         21   -1    0    0  503  502  0.00000000000E+00  0.00000000000E+00  0.90988484258E+03  0.90988484258E+03  0.00000000000E+00 0. -1.
          2   -1    0    0  502    0 -0.00000000000E+00 -0.00000000000E+00 -0.28926571543E+04  0.28926571543E+04  0.00000000000E+00 0.  1.
         25    1    1    2    0    0  0.62888696755E+03 -0.20443601664E+03  0.34081043004E+03  0.75436705395E+03  0.12500000000E+03 0.  0.
         21    1    1    2  503  501 -0.15020920824E+03  0.10073909046E+02  0.32049749126E+03  0.35409452380E+03  0.00000000000E+00 0. -1.
          2    1    1    2  501    0 -0.47867775932E+03  0.19436210759E+03 -0.26440802330E+04  0.26940804191E+04  0.00000000000E+00 0.  1.
<mgrwt>
<rscale>  4 0.53761221E+03</rscale>
<asrwt>0</asrwt>
<pdfrwt beam="1">  1       21 0.13998228E+00 0.53761221E+03</pdfrwt>
<pdfrwt beam="2">  1        2 0.44502418E+00 0.53761221E+03</pdfrwt>
<totfact> 0.86489204E+00</totfact>
</mgrwt>
</event>
<event>
 5    0  0.3040647E+000  0.3333273E+03  0.7546771E-02  0.1069674E+00
         21   -1    0    0  503  502  0.00000000000E+00  0.00000000000E+00  0.10328900813E+04  0.10328900813E+04  0.00000000000E+00 0. -1.
          3   -1    0    0  502    0 -0.00000000000E+00 -0.00000000000E+00 -0.45218365889E+03  0.45218365889E+03  0.00000000000E+00 0. -1.
         25    1    1    2    0    0  0.32900997795E+03  0.28792361178E+02  0.17382003768E+03  0.39359239215E+03  0.12500000000E+03 0.  0.
         21    1    1    2  503  501 -0.25450783023E+02 -0.12863827933E+02  0.68134020263E+03  0.68193672151E+03  0.00000000000E+00 0. -1.
          3    1    1    2  501    0 -0.30355919493E+03 -0.15928533245E+02 -0.27445381787E+03  0.40954462656E+03  0.00000000000E+00 0. -1.
<mgrwt>
<rscale>  4 0.33332734E+03</rscale>
<asrwt>0</asrwt>
<pdfrwt beam="1">  1       21 0.15890617E+00 0.33332734E+03</pdfrwt>
<pdfrwt beam="2">  1        3 0.69566717E-01 0.33332734E+03</pdfrwt>
<totfact> 0.23848012E+01</totfact>
</mgrwt>
</event>
<event>
 5    0  0.3040647E+000  0.6144604E+03  0.7546771E-02  0.9875851E-01
         21   -1    0    0  503  502  0.00000000000E+00  0.00000000000E+00  0.60492481722E+03  0.60492481722E+03  0.00000000000E+00 0. -1.
          2   -1    0    0  502    0 -0.00000000000E+00 -0.00000000000E+00 -0.25471396169E+04  0.25471396169E+04  0.00000000000E+00 0. -1.
         25    1    1    2    0    0  0.52538901851E+03  0.85606082208E+02  0.12063320662E+03  0.55994588366E+03  0.12500000000E+03 0.  0.
         21    1    1    2  503  501  0.84428582271E+02 -0.62893610080E+02  0.21207535123E+03  0.23676939476E+03  0.00000000000E+00 0. -1.
          2    1    1    2  501    0 -0.60981760078E+03 -0.22712472128E+02 -0.22749233575E+04  0.23553491557E+04  0.00000000000E+00 0. -1.
<mgrwt>
<rscale>  4 0.61446043E+03</rscale>
<asrwt>0</asrwt>
<pdfrwt beam="1">  1       21 0.93065359E-01 0.61446043E+03</pdfrwt>
<pdfrwt beam="2">  1        2 0.39186762E+00 0.61446043E+03</pdfrwt>
<totfact> 0.37337549E+01</totfact>
</mgrwt>
</event>
<event>
 5    0  0.3040647E+000  0.3124264E+03  0.7546771E-02  0.1079189E+00
         21   -1    0    0  503  502  0.00000000000E+00  0.00000000000E+00  0.71409796339E+02  0.71409796339E+02  0.00000000000E+00 0. -1.
          2   -1    0    0  502    0 -0.00000000000E+00 -0.00000000000E+00 -0.13713735466E+04  0.13713735466E+04  0.00000000000E+00 0. -1.
         25    1    1    2    0    0  0.12923641376E+03 -0.25550576015E+03 -0.51331995763E+03  0.60092231030E+03  0.12500000000E+03 0.  0.
         21    1    1    2  503  501 -0.31398029303E+02  0.15827087806E+02 -0.50591682199E+02  0.61610480117E+02  0.00000000000E+00 0. -1.
          2    1    1    2  501    0 -0.97838384456E+02  0.23967867234E+03 -0.73605211048E+03  0.78025055257E+03  0.00000000000E+00 0. -1.
<mgrwt>
<rscale>  4 0.31242638E+03</rscale>
<asrwt>0</asrwt>
<pdfrwt beam="1">  1       21 0.10986123E-01 0.31242638E+03</pdfrwt>
<pdfrwt beam="2">  1        2 0.21098053E+00 0.31242638E+03</pdfrwt>
<totfact> 0.13685722E+04</totfact>
</mgrwt>
</event>
<event>
 5    0  0.3040647E+000  0.2595075E+03  0.7546771E-02  0.1107439E+00
         21   -1    0    0  503  502  0.00000000000E+00  0.00000000000E+00  0.23264194141E+03  0.23264194141E+03  0.00000000000E+00 0. -1.
          2   -1    0    0  502    0 -0.00000000000E+00 -0.00000000000E+00 -0.96005781016E+03  0.96005781016E+03  0.00000000000E+00 0. -1.
         25    1    1    2    0    0 -0.26229150476E+03  0.52856801653E+02  0.22463341398E+02  0.29617609062E+03  0.12500000000E+03 0.  0.
         21    1    1    2  503  501  0.50251141337E+02 -0.13411372705E+03 -0.36388344366E+02  0.14776934931E+03  0.00000000000E+00 0. -1.
          2    1    1    2  501    0  0.21204036342E+03  0.81256925395E+02 -0.71349086578E+03  0.74875431164E+03  0.00000000000E+00 0. -1.
<mgrwt>
<rscale>  4 0.25950751E+03</rscale>
<asrwt>0</asrwt>
<pdfrwt beam="1">  1       21 0.35791067E-01 0.25950751E+03</pdfrwt>
<pdfrwt beam="2">  1        2 0.14770120E+00 0.25950751E+03</pdfrwt>
<totfact> 0.25859671E+03</totfact>
</mgrwt>
</event>
<event>
 5    0  0.3040647E+000  0.3181176E+03  0.7546771E-02  0.1076519E+00
          1   -1    0    0  502    0 -0.00000000000E+00  0.00000000000E+00  0.22895237429E+04  0.22895237429E+04  0.00000000000E+00 0.  1.
         21   -1    0    0  503  502  0.00000000000E+00 -0.00000000000E+00 -0.46071213115E+03  0.46071213115E+03  0.00000000000E+00 0.  1.
         25    1    1    2    0    0  0.40927003917E+03 -0.18120356149E+03  0.71293563824E+03  0.85102227934E+03  0.12500000000E+03 0.  0.
         21    1    1    2  503  501 -0.27880717027E+03  0.48717087880E+02 -0.33381212174E+03  0.43764977490E+03  0.00000000000E+00 0.  1.
          1    1    1    2  501    0 -0.13046286890E+03  0.13248647361E+03  0.14496880952E+04  0.14615638198E+04  0.00000000000E+00 0.  1.
<mgrwt>
<rscale>  4 0.31811764E+03</rscale>
<asrwt>0</asrwt>
<pdfrwt beam="1">  1       21 0.70878791E-01 0.31811764E+03</pdfrwt>
<pdfrwt beam="2">  1        1 0.35223441E+00 0.31811764E+03</pdfrwt>
<totfact> 0.40815528E+01</totfact>
</mgrwt>
</event>
<event>
 5    0  0.3040647E+000  0.2266390E+03  0.7546771E-02  0.1129028E+00
         21   -1    0    0  503  502  0.00000000000E+00  0.00000000000E+00  0.44157980999E+03  0.44157980999E+03  0.00000000000E+00 0.  1.
          2   -1    0    0  502    0 -0.00000000000E+00 -0.00000000000E+00 -0.93797417552E+03  0.93797417552E+03  0.00000000000E+00 0.  1.
         25    1    1    2    0    0 -0.20048957707E+03  0.12250765049E+03  0.14995458931E+03  0.30547597909E+03  0.12500000000E+03 0.  0.
         21    1    1    2  503  501  0.56467906692E+02 -0.30847659507E+01  0.19971868063E+03  0.20757093163E+03  0.00000000000E+00 0.  1.
          2    1    1    2  501    0  0.14402167038E+03 -0.11942288454E+03 -0.84606763547E+03  0.86650707480E+03  0.00000000000E+00 0.  1.
<mgrwt>
<rscale>  4 0.22663899E+03</rscale>
<asrwt>0</asrwt>
<pdfrwt beam="1">  1       21 0.67935355E-01 0.22663899E+03</pdfrwt>
<pdfrwt beam="2">  1        2 0.14430372E+00 0.22663899E+03</pdfrwt>
<totfact> 0.70695457E+02</totfact>
</mgrwt>
</event>
<event>
 5    0  0.3040647E+000  0.3604939E+03  0.7546771E-02  0.1058388E+00
         21   -1    0    0  503  502  0.00000000000E+00  0.00000000000E+00  0.79872768715E+03  0.79872768715E+03  0.00000000000E+00 0.  1.
          2   -1    0    0  502    0 -0.00000000000E+00 -0.00000000000E+00 -0.20716831123E+04  0.20716831123E+04  0.00000000000E+00 0.  1.
         25    1    1    2    0    0 -0.29632015725E+03  0.50867199531E+03 -0.15266015166E+03  0.62087273761E+03  0.12500000000E+03 0.  0.
         21    1    1    2  503  501  0.19584317071E+03 -0.20267536294E+03  0.51271454921E+03  0.58507098649E+03  0.00000000000E+00 0.  1.
          2    1    1    2  501    0  0.10047698654E+03 -0.30599663237E+03 -0.16330098227E+04  0.16644670754E+04  0.00000000000E+00 0.  1.
<mgrwt>
<rscale>  4 0.36049393E+03</rscale>
<asrwt>0</asrwt>
<pdfrwt beam="1">  1       21 0.12288118E+00 0.36049393E+03</pdfrwt>
<pdfrwt beam="2">  1        2 0.31872048E+00 0.36049393E+03</pdfrwt>
<totfact> 0.38336197E+01</totfact>
</mgrwt>
</event>
<event>
 5    0  0.3040647E+000  0.4252383E+03  0.7546771E-02  0.1035375E+00
          4   -1    0    0  502    0 -0.00000000000E+00  0.00000000000E+00  0.52145476706E+03  0.52145476706E+03  0.00000000000E+00 0. -1.
         21   -1    0    0  503  502  0.00000000000E+00 -0.00000000000E+00 -0.46681733106E+03  0.46681733106E+03  0.00000000000E+00 0. -1.
         25    1    1    2    0    0 -0.39981328503E+03 -0.18258651399E+03  0.53055056722E+02  0.46003080008E+03  0.12500000000E+03 0.  0.
         21    1    1    2  503  501  0.29365823997E+02  0.66071068739E+02  0.10396284060E+03  0.12663336831E+03  0.00000000000E+00 0.  1.
          4    1    1    2  501    0  0.37044746103E+03  0.11651544525E+03 -0.10238046132E+03  0.40160792973E+03  0.00000000000E+00 0. -1.
<mgrwt>
<rscale>  4 0.42523829E+03</rscale>
<asrwt>0</asrwt>
<pdfrwt beam="1">  1       21 0.71818051E-01 0.42523829E+03</pdfrwt>
<pdfrwt beam="2">  1        4 0.80223810E-01 0.42523829E+03</pdfrwt>
<totfact> 0.99423760E+01</totfact>
</mgrwt>
</event>
<event>
 5    0  0.3040647E+000  0.2625442E+03  0.7546771E-02  0.1105624E+00
         21   -1    0    0  503  502  0.00000000000E+00  0.00000000000E+00  0.19725353526E+03  0.19725353526E+03  0.00000000000E+00 0.  1.
          1   -1    0    0  502    0 -0.00000000000E+00 -0.00000000000E+00 -0.13879648658E+04  0.13879648658E+04  0.00000000000E+00 0.  1.
         25    1    1    2    0    0 -0.26302489218E+03  0.11966559204E+02  0.17619367691E+02  0.29199440845E+03  0.12500000000E+03 0.  0.
         21    1    1    2  503  501  0.35638105960E+02  0.12508587388E+02  0.20717659226E+02  0.43078541743E+02  0.00000000000E+00 0.  1.
          1    1    1    2  501    0  0.22738678622E+03 -0.24475146591E+02 -0.12290483575E+04  0.12501454509E+04  0.00000000000E+00 0.  1.
<mgrwt>
<rscale>  4 0.26254417E+03</rscale>
<asrwt>0</asrwt>
<pdfrwt beam="1">  1       21 0.30346697E-01 0.26254417E+03</pdfrwt>
<pdfrwt beam="2">  1        1 0.21353306E+00 0.26254417E+03</pdfrwt>
<totfact> 0.96746888E+02</totfact>
</mgrwt>
</event>
<event>
 5    0  0.3040647E+000  0.2380487E+03  0.7546771E-02  0.1121100E+00
          2   -1    0    0  502    0 -0.00000000000E+00  0.00000000000E+00  0.33807537838E+04  0.33807537838E+04  0.00000000000E+00 0.  1.
         21   -1    0    0  503  502  0.00000000000E+00 -0.00000000000E+00 -0.41937209313E+02  0.41937209313E+02  0.00000000000E+00 0.  1.
         25    1    1    2    0    0  0.85930828302E+02  0.24276701239E+03  0.74621306266E+03  0.79923642588E+03  0.12500000000E+03 0.  0.
         21    1    1    2  503  501 -0.89344406445E+02 -0.14340761090E+03  0.48648887851E+03  0.51499475215E+03  0.00000000000E+00 0.  1.
          2    1    1    2  501    0  0.34135781426E+01 -0.99359401494E+02  0.21061146334E+04  0.21084598151E+04  0.00000000000E+00 0.  1.
<mgrwt>
<rscale>  4 0.23804871E+03</rscale>
<asrwt>0</asrwt>
<pdfrwt beam="1">  1       21 0.64518810E-02 0.23804871E+03</pdfrwt>
<pdfrwt beam="2">  1        2 0.52011575E+00 0.23804871E+03</pdfrwt>
<totfact> 0.27208133E+03</totfact>
</mgrwt>
</event>
<event>
 5    0  0.3040647E+000  0.3028761E+03  0.7546771E-02  0.1083812E+00
         21   -1    0    0  503  502  0.00000000000E+00  0.00000000000E+00  0.66989225314E+02  0.66989225314E+02  0.00000000000E+00 0. -1.
          2   -1    0    0  502    0 -0.00000000000E+00 -0.00000000000E+00 -0.17464277422E+04  0.17464277422E+04  0.00000000000E+00 0. -1.
         25    1    1    2    0    0  0.17761605204E+03  0.21621893523E+03 -0.48875570634E+03  0.57689273732E+03  0.12500000000E+03 0.  0.
         21    1    1    2  503  501 -0.39801355050E+02  0.22224058085E+02 -0.78747434024E+02  0.90990191707E+02  0.00000000000E+00 0. -1.
          2    1    1    2  501    0 -0.13781469699E+03 -0.23844299331E+03 -0.11119353765E+04  0.11455340385E+04  0.00000000000E+00 0. -1.
<mgrwt>
<rscale>  4 0.30287611E+03</rscale>
<asrwt>0</asrwt>
<pdfrwt beam="1">  1       21 0.10306036E-01 0.30287611E+03</pdfrwt>
<pdfrwt beam="2">  1        2 0.26868115E+00 0.30287611E+03</pdfrwt>
<totfact> 0.96753168E+03</totfact>
</mgrwt>
</event>
<event>
 5    0  0.3040647E+000  0.2645629E+03  0.7546771E-02  0.1104432E+00
          2   -1    0    0  502    0 -0.00000000000E+00  0.00000000000E+00  0.18107496068E+04  0.18107496068E+04  0.00000000000E+00 0. -1.
         21   -1    0    0  503  502  0.00000000000E+00 -0.00000000000E+00 -0.60792330428E+03  0.60792330428E+03  0.00000000000E+00 0. -1.
         25    1    1    2    0    0  0.22965504223E+03  0.18598229454E+03 -0.51240221248E+03  0.60457578487E+03  0.12500000000E+03 0.  0.
         21    1    1    2  503  501 -0.27257131214E+02 -0.71858171659E+02 -0.61571730076E+01  0.77100316573E+02  0.00000000000E+00 0. -1.
          2    1    1    2  501    0 -0.20239791101E+03 -0.11412412288E+03  0.17213856880E+04  0.17369968097E+04  0.00000000000E+00 0. -1.
<mgrwt>
<rscale>  4 0.26456286E+03</rscale>
<asrwt>0</asrwt>
<pdfrwt beam="1">  1       21 0.93526663E-01 0.26456286E+03</pdfrwt>
<pdfrwt beam="2">  1        2 0.27857686E+00 0.26456286E+03</pdfrwt>
<totfact> 0.10924162E+02</totfact>
</mgrwt>
</event>
<event>
 5    0  0.3040647E+000  0.2351131E+03  0.7546771E-02  0.1123092E+00
         21   -1    0    0  503  502  0.00000000000E+00  0.00000000000E+00  0.38547884334E+02  0.38547884334E+02  0.00000000000E+00 0.  1.
          2   -1    0    0  502    0 -0.00000000000E+00 -0.00000000000E+00 -0.18640205533E+04  0.18640205533E+04  0.00000000000E+00 0.  1.
         25    1    1    2    0    0 -0.80914118246E+02  0.20805604154E+03 -0.65066692203E+03  0.69916153668E+03  0.12500000000E+03 0.  0.
         21    1    1    2  503  501 -0.22123180551E+02 -0.46395905965E+02 -0.10917442091E+03  0.12066925619E+03  0.00000000000E+00 0.  1.
          2    1    1    2  501    0  0.10303729880E+03 -0.16166013557E+03 -0.10656313260E+04  0.10827376448E+04  0.00000000000E+00 0.  1.
<mgrwt>
<rscale>  4 0.23511306E+03</rscale>
<asrwt>0</asrwt>
<pdfrwt beam="1">  1       21 0.59304440E-02 0.23511306E+03</pdfrwt>
<pdfrwt beam="2">  1        2 0.28677238E+00 0.23511306E+03</pdfrwt>
<totfact> 0.22510480E+04</totfact>
</mgrwt>
</event>
<event>
 5    0  0.3040647E+000  0.2576632E+03  0.7546771E-02  0.1108555E+00
          2   -1    0    0  502    0 -0.00000000000E+00  0.00000000000E+00  0.35621621754E+03  0.35621621754E+03  0.00000000000E+00 0.  1.
         21   -1    0    0  503  502  0.00000000000E+00 -0.00000000000E+00 -0.29111079937E+03  0.29111079937E+03  0.00000000000E+00 0.  1.
         25    1    1    2    0    0 -0.94828598484E+02  0.18178624249E+03 -0.79509886033E+02  0.25295359856E+03  0.12500000000E+03 0.  0.
         21    1    1    2  503  501 -0.26957047052E+02  0.15189464528E+02 -0.71315767691E+02  0.77738928084E+02  0.00000000000E+00 0. -1.
          2    1    1    2  501    0  0.12178564554E+03 -0.19697570702E+03  0.21593107189E+03  0.31663449026E+03  0.00000000000E+00 0.  1.
<mgrwt>
<rscale>  4 0.25766315E+03</rscale>
<asrwt>0</asrwt>
<pdfrwt beam="1">  1       21 0.44786277E-01 0.25766315E+03</pdfrwt>
<pdfrwt beam="2">  1        2 0.54802495E-01 0.25766315E+03</pdfrwt>
<totfact> 0.53006082E+03</totfact>
</mgrwt>
</event>
<event>
 5    0  0.3040647E+000  0.1986771E+03  0.7546771E-02  0.1150860E+00
          1   -1    0    0  502    0 -0.00000000000E+00  0.00000000000E+00  0.41466520890E+03  0.41466520890E+03  0.00000000000E+00 0.  1.
         21   -1    0    0  503  502  0.00000000000E+00 -0.00000000000E+00 -0.17732582231E+03  0.17732582231E+03  0.00000000000E+00 0.  1.
         25    1    1    2    0    0 -0.44580266113E+02  0.19626620957E+03 -0.36266287039E+02  0.23968326751E+03  0.12500000000E+03 0.  0.
         21    1    1    2  503  501  0.12697833781E+02 -0.52021277453E+02  0.16937964702E+02  0.56163537450E+02  0.00000000000E+00 0.  1.
          1    1    1    2  501    0  0.31882432333E+02 -0.14424493212E+03  0.25666770893E+03  0.29614422625E+03  0.00000000000E+00 0.  1.
<mgrwt>
<rscale>  4 0.19867709E+03</rscale>
<asrwt>0</asrwt>
<pdfrwt beam="1">  1       21 0.27280896E-01 0.19867709E+03</pdfrwt>
<pdfrwt beam="2">  1        1 0.63794648E-01 0.19867709E+03</pdfrwt>
<totfact> 0.81405156E+03</totfact>
</mgrwt>
</event>
<event>
 5    0  0.3040647E+000  0.2136494E+03  0.7546771E-02  0.1138708E+00
         21   -1    0    0  503  502  0.00000000000E+00  0.00000000000E+00  0.34667339880E+03  0.34667339880E+03  0.00000000000E+00 0. -1.
          2   -1    0    0  502    0 -0.00000000000E+00 -0.00000000000E+00 -0.93139338546E+03  0.93139338546E+03  0.00000000000E+00 0.  1.
         25    1    1    2    0    0  0.89165159951E+02 -0.19502689492E+03 -0.67014752873E+03  0.71463880790E+03  0.12500000000E+03 0.  0.
         21    1    1    2  503  501 -0.13820686809E+02  0.80594589199E+02  0.29883759077E+03  0.30982318320E+03  0.00000000000E+00 0. -1.
          2    1    1    2  501    0 -0.75344473142E+02  0.11443230572E+03 -0.21341004870E+03  0.25360479316E+03  0.00000000000E+00 0.  1.
<mgrwt>
<rscale>  4 0.21364936E+03</rscale>
<asrwt>0</asrwt>
<pdfrwt beam="1">  1       21 0.53334369E-01 0.21364936E+03</pdfrwt>
<pdfrwt beam="2">  1        2 0.14329129E+00 0.21364936E+03</pdfrwt>
<totfact> 0.12110429E+03</totfact>
</mgrwt>
</event>
<event>
 5    0  0.3040647E+000  0.7679292E+03  0.7546771E-02  0.9607635E-01
         21   -1    0    0  503  502  0.00000000000E+00  0.00000000000E+00  0.31923330162E+03  0.31923330162E+03  0.00000000000E+00 0.  1.
          2   -1    0    0  502    0 -0.00000000000E+00 -0.00000000000E+00 -0.20923599817E+04  0.20923599817E+04  0.00000000000E+00 0.  1.
         25    1    1    2    0    0 -0.62618608641E+03  0.44439130473E+03 -0.10199490719E+04  0.12827758011E+04  0.12500000000E+03 0.  0.
         21    1    1    2  503  501  0.70869646115E+02  0.56654280080E+02 -0.57947921215E+02  0.10765767862E+03  0.00000000000E+00 0. -1.
          2    1    1    2  501    0  0.55531644029E+03 -0.50104558481E+03 -0.69522968690E+03  0.10211598036E+04  0.00000000000E+00 0.  1.
<mgrwt>
<rscale>  4 0.76792918E+03</rscale>
<asrwt>0</asrwt>
<pdfrwt beam="1">  1       21 0.49112815E-01 0.76792918E+03</pdfrwt>
<pdfrwt beam="2">  1        2 0.32190154E+00 0.76792918E+03</pdfrwt>
<totfact> 0.27290223E+02</totfact>
</mgrwt>
</event>
<event>
 5    0  0.3040647E+000  0.2320469E+03  0.7546771E-02  0.1125207E+00
         21   -1    0    0  501  502  0.00000000000E+00  0.00000000000E+00  0.31812271904E+03  0.31812271904E+03  0.00000000000E+00 0. -1.
         -4   -1    0    0    0  501 -0.00000000000E+00 -0.00000000000E+00 -0.51867846300E+03  0.51867846300E+03  0.00000000000E+00 0. -1.
         25    1    1    2    0    0  0.22339102305E+03 -0.62253173915E+02 -0.90087383380E+02  0.27842367623E+03  0.12500000000E+03 0.  0.
         21    1    1    2  503  502 -0.63730656516E+02 -0.35164357522E+02  0.19055367177E+03  0.20398242680E+03  0.00000000000E+00 0. -1.
         -4    1    1    2    0  503 -0.15966036653E+03  0.97417531437E+02 -0.30102203234E+03  0.35439507901E+03  0.00000000000E+00 0. -1.
<mgrwt>
<rscale>  4 0.23204694E+03</rscale>
<asrwt>0</asrwt>
<pdfrwt beam="1">  1       21 0.48941957E-01 0.23204694E+03</pdfrwt>
<pdfrwt beam="2">  1       -4 0.79796687E-01 0.23204694E+03</pdfrwt>
<totfact> 0.23805671E+02</totfact>
</mgrwt>
</event>
<event>
 5    0  0.3040647E+000  0.2682288E+03  0.7546771E-02  0.1102298E+00
          2   -1    0    0  502    0 -0.00000000000E+00  0.00000000000E+00  0.27132556878E+04  0.27132556878E+04  0.00000000000E+00 0. -1.
         21   -1    0    0  503  502  0.00000000000E+00 -0.00000000000E+00 -0.29142468215E+03  0.29142468215E+03  0.00000000000E+00 0. -1.
         25    1    1    2    0    0  0.20105738103E+03 -0.11974825809E+03 -0.20146415002E+03  0.33313138478E+03  0.12500000000E+03 0.  0.
         21    1    1    2  503  501 -0.33469688946E+02 -0.48587337074E+02  0.27824413147E+02  0.65231490625E+02  0.00000000000E+00 0. -1.
          2    1    1    2  501    0 -0.16758769208E+03  0.16833559517E+03  0.25954707425E+04  0.26063174945E+04  0.00000000000E+00 0. -1.
<mgrwt>
<rscale>  4 0.26822877E+03</rscale>
<asrwt>0</asrwt>
<pdfrwt beam="1">  1       21 0.44834568E-01 0.26822877E+03</pdfrwt>
<pdfrwt beam="2">  1        2 0.41742394E+00 0.26822877E+03</pdfrwt>
<totfact> 0.17949631E+02</totfact>
</mgrwt>
</event>
<event>
 5    0  0.3040647E+000  0.2744116E+03  0.7546771E-02  0.1098781E+00
         21   -1    0    0  503  502  0.00000000000E+00  0.00000000000E+00  0.84277472080E+03  0.84277472080E+03  0.00000000000E+00 0.  1.
          1   -1    0    0  502    0 -0.00000000000E+00 -0.00000000000E+00 -0.12887502120E+03  0.12887502120E+03  0.00000000000E+00 0. -1.
         25    1    1    2    0    0 -0.24758845418E+03 -0.10480428472E+02  0.51288872753E+03  0.58317212626E+03  0.12500000000E+03 0.  0.
         21    1    1    2  503  501  0.10689133281E+02 -0.49788346298E+02  0.12098673941E+03  0.13126662984E+03  0.00000000000E+00 0. -1.
          1    1    1    2  501    0  0.23689932089E+03  0.60268774770E+02  0.80024232674E+02  0.25721098590E+03  0.00000000000E+00 0. -1.
<mgrwt>
<rscale>  4 0.27441162E+03</rscale>
<asrwt>0</asrwt>
<pdfrwt beam="1">  1       21 0.12965765E+00 0.27441162E+03</pdfrwt>
<pdfrwt beam="2">  1        1 0.19826927E-01 0.27441162E+03</pdfrwt>
<totfact> 0.11669707E+03</totfact>
</mgrwt>
</event>
<event>
 5    0  0.3040647E+000  0.3719097E+03  0.7546771E-02  0.1053965E+00
         21   -1    0    0  503  502  0.00000000000E+00  0.00000000000E+00  0.13139470418E+04  0.13139470418E+04  0.00000000000E+00 0.  1.
          1   -1    0    0  502    0 -0.00000000000E+00 -0.00000000000E+00 -0.62766306639E+03  0.62766306639E+03  0.00000000000E+00 0. -1.
         25    1    1    2    0    0  0.17570223656E+03 -0.34760828505E+03  0.20455926006E+02  0.40956835898E+03  0.12500000000E+03 0.  0.
         21    1    1    2  503  501 -0.13671825577E+02  0.50688097595E+02  0.10321224001E+04  0.10334567484E+04  0.00000000000E+00 0.  1.
          1    1    1    2  501    0 -0.16203041098E+03  0.29692018746E+03 -0.36629435062E+03  0.49858500088E+03  0.00000000000E+00 0. -1.
<mgrwt>
<rscale>  4 0.37190970E+03</rscale>
<asrwt>0</asrwt>
<pdfrwt beam="1">  1       21 0.20214570E+00 0.37190970E+03</pdfrwt>
<pdfrwt beam="2">  1        1 0.96563549E-01 0.37190970E+03</pdfrwt>
<totfact> 0.41639679E+01</totfact>
</mgrwt>
</event>
<event>
 5    0  0.3040647E+000  0.2234039E+03  0.7546771E-02  0.1131370E+00
         -2   -1    0    0    0  501 -0.00000000000E+00  0.00000000000E+00  0.63103144113E+02  0.63103144113E+02  0.00000000000E+00 0.  1.
         21   -1    0    0  501  502  0.00000000000E+00 -0.00000000000E+00 -0.21563804721E+04  0.21563804721E+04  0.00000000000E+00 0. -1.
         25    1    1    2    0    0  0.79489679027E+02  0.19953782849E+03 -0.59056705114E+03  0.64072489882E+03  0.12500000000E+03 0.  0.
         21    1    1    2  503  502 -0.31357092593E+02 -0.17687946888E+03 -0.15137956541E+04  0.15244169036E+04  0.00000000000E+00 0. -1.
         -2    1    1    2    0  503 -0.48132586434E+02 -0.22658359612E+02  0.11085377218E+02  0.54341813782E+02  0.00000000000E+00 0.  1.
<mgrwt>
<rscale>  4 0.22340386E+03</rscale>
<asrwt>0</asrwt>
<pdfrwt beam="1">  1       21 0.33175078E+00 0.22340386E+03</pdfrwt>
<pdfrwt beam="2">  1       -2 0.97081779E-02 0.22340386E+03</pdfrwt>
<totfact> 0.11823683E+02</totfact>
</mgrwt>
</event>
<event>
 5    0  0.3040647E+000  0.2822752E+03  0.7546771E-02  0.1094453E+00
         21   -1    0    0  503  502  0.00000000000E+00  0.00000000000E+00  0.16212819377E+03  0.16212819377E+03  0.00000000000E+00 0.  1.
          2   -1    0    0  502    0 -0.00000000000E+00 -0.00000000000E+00 -0.19223070537E+04  0.19223070537E+04  0.00000000000E+00 0. -1.
         25    1    1    2    0    0  0.20091085532E+03 -0.19537994751E+03 -0.65393936326E+02  0.31375127503E+03  0.12500000000E+03 0.  0.
         21    1    1    2  503  501 -0.88924885406E+01  0.33521920235E+02  0.18351851973E+02  0.39237558022E+02  0.00000000000E+00 0. -1.
          2    1    1    2  501    0 -0.19201836678E+03  0.16185802727E+03 -0.17131367756E+04  0.17314464144E+04  0.00000000000E+00 0. -1.
<mgrwt>
<rscale>  4 0.28227523E+03</rscale>
<asrwt>0</asrwt>
<pdfrwt beam="1">  1       21 0.24942800E-01 0.28227523E+03</pdfrwt>
<pdfrwt beam="2">  1        2 0.29573954E+00 0.28227523E+03</pdfrwt>
<totfact> 0.15326400E+03</totfact>
</mgrwt>
</event>
<event>
 5    0  0.3040647E+000  0.2200717E+03  0.7546771E-02  0.1133830E+00
          4   -1    0    0  502    0 -0.00000000000E+00  0.00000000000E+00  0.90570307956E+03  0.90570307956E+03  0.00000000000E+00 0.  1.
         21   -1    0    0  503  502  0.00000000000E+00 -0.00000000000E+00 -0.17854619672E+03  0.17854619672E+03  0.00000000000E+00 0.  1.
         25    1    1    2    0    0 -0.14776079614E+03 -0.17374409012E+03  0.39536073644E+02  0.26307482366E+03  0.12500000000E+03 0.  0.
         21    1    1    2  503  501  0.66057404555E+02  0.16586938452E+02 -0.35410412059E+02  0.76763301818E+02  0.00000000000E+00 0.  1.
          4    1    1    2  501    0  0.81703391583E+02  0.15715715167E+03  0.72303122126E+03  0.74441115080E+03  0.00000000000E+00 0.  1.
<mgrwt>
<rscale>  4 0.22007167E+03</rscale>
<asrwt>0</asrwt>
<pdfrwt beam="1">  1       21 0.27468646E-01 0.22007167E+03</pdfrwt>
<pdfrwt beam="2">  1        4 0.13933893E+00 0.22007167E+03</pdfrwt>
<totfact> 0.20286232E+02</totfact>
</mgrwt>
</event>
<event>
 5    0  0.3040647E+000  0.5054551E+03  0.7546771E-02  0.1012365E+00
         21   -1    0    0  503  502  0.00000000000E+00  0.00000000000E+00  0.45033836258E+03  0.45033836258E+03  0.00000000000E+00 0. -1.
          2   -1    0    0  502    0 -0.00000000000E+00 -0.00000000000E+00 -0.89672828683E+03  0.89672828683E+03  0.00000000000E+00 0. -1.
         25    1    1    2    0    0 -0.43118655526E+03 -0.28305270587E+02 -0.43682308527E+03  0.62702666738E+03  0.12500000000E+03 0.  0.
         21    1    1    2  503  501  0.50380576172E+03  0.85452369502E+02  0.15267957111E+03  0.53332298322E+03  0.00000000000E+00 0. -1.
          2    1    1    2  501    0 -0.72619206455E+02 -0.57147098915E+02 -0.16224641008E+03  0.18671699881E+03  0.00000000000E+00 0. -1.
<mgrwt>
<rscale>  4 0.50545511E+03</rscale>
<asrwt>0</asrwt>
<pdfrwt beam="1">  1       21 0.69282826E-01 0.50545511E+03</pdfrwt>
<pdfrwt beam="2">  1        2 0.13795820E+00 0.50545511E+03</pdfrwt>
<totfact> 0.65223608E+02</totfact>
</mgrwt>
</event>
<event>
 5    0  0.3040647E+000  0.9129902E+03  0.7546771E-02  0.9409487E-01
         21   -1    0    0  503  502  0.00000000000E+00  0.00000000000E+00  0.94964943126E+03  0.94964943126E+03  0.00000000000E+00 0.  1.
          1   -1    0    0  502    0 -0.00000000000E+00 -0.00000000000E+00 -0.99652419338E+03  0.99652419338E+03  0.00000000000E+00 0.  1.
         25    1    1    2    0    0 -0.90835849111E+03  0.15908753152E+03  0.75637963944E+02  0.93368629242E+03  0.12500000000E+03 0.  0.
         21    1    1    2  503  501  0.87752179387E+03 -0.12348032018E+03 -0.53204687332E+01  0.88618293573E+03  0.00000000000E+00 0.  1.
          1    1    1    2  501    0  0.30836697244E+02 -0.35607211337E+02 -0.11719225733E+03  0.12630439650E+03  0.00000000000E+00 0.  1.
<mgrwt>
<rscale>  4 0.91299024E+03</rscale>
<asrwt>0</asrwt>
<pdfrwt beam="1">  1       21 0.14609991E+00 0.91299024E+03</pdfrwt>
<pdfrwt beam="2">  1        1 0.15331141E+00 0.91299024E+03</pdfrwt>
<totfact> 0.43316062E+01</totfact>
</mgrwt>
</event>
<event>
 5    0  0.3040647E+000  0.4345601E+03  0.7546771E-02  0.1032429E+00
          2   -1    0    0  502    0 -0.00000000000E+00  0.00000000000E+00  0.20524167897E+04  0.20524167897E+04  0.00000000000E+00 0. -1.
         21   -1    0    0  503  502  0.00000000000E+00 -0.00000000000E+00 -0.26515975092E+03  0.26515975092E+03  0.00000000000E+00 0. -1.
         25    1    1    2    0    0  0.13634493043E+03 -0.46450281656E+03  0.85247993425E+03  0.98828125802E+03  0.12500000000E+03 0.  0.
         21    1    1    2  503  501 -0.15296959192E+03  0.37112517972E+03  0.11934839124E+02  0.40159187674E+03  0.00000000000E+00 0. -1.
          2    1    1    2  501    0  0.16624661490E+02  0.93377636834E+02  0.92284226543E+03  0.92770340589E+03  0.00000000000E+00 0. -1.
<mgrwt>
<rscale>  4 0.43456007E+03</rscale>
<asrwt>0</asrwt>
<pdfrwt beam="1">  1       21 0.40793809E-01 0.43456007E+03</pdfrwt>
<pdfrwt beam="2">  1        2 0.31575642E+00 0.43456007E+03</pdfrwt>
<totfact> 0.46230025E+02</totfact>
</mgrwt>
</event>
<event>
 5    0  0.3040647E+000  0.2473152E+03  0.7546771E-02  0.1115013E+00
         21   -1    0    0  503  502  0.00000000000E+00  0.00000000000E+00  0.11372298040E+04  0.11372298040E+04  0.00000000000E+00 0. -1.
          2   -1    0    0  502    0 -0.00000000000E+00 -0.00000000000E+00 -0.44340323417E+03  0.44340323417E+03  0.00000000000E+00 0. -1.
         25    1    1    2    0    0 -0.16122654802E+03 -0.13875890962E+03  0.10436605270E+04  0.10724273078E+04  0.12500000000E+03 0.  0.
         21    1    1    2  503  501 -0.55204461544E+02  0.34018127644E+02  0.19311807692E+02  0.67658787301E+02  0.00000000000E+00 0. -1.
          2    1    1    2  501    0  0.21643100956E+03  0.10474078197E+03 -0.36914576491E+03  0.44054694308E+03  0.00000000000E+00 0. -1.
<mgrwt>
<rscale>  4 0.24731521E+03</rscale>
<asrwt>0</asrwt>
<pdfrwt beam="1">  1       21 0.17495843E+00 0.24731521E+03</pdfrwt>
<pdfrwt beam="2">  1        2 0.68215882E-01 0.24731521E+03</pdfrwt>
<totfact> 0.16817873E+02</totfact>
</mgrwt>
</event>
<event>
 5    0  0.3040647E+000  0.2811358E+03  0.7546771E-02  0.1095070E+00
          1   -1    0    0  502    0 -0.00000000000E+00  0.00000000000E+00  0.16401863082E+04  0.16401863082E+04  0.00000000000E+00 0. -1.
         21   -1    0    0  503  502  0.00000000000E+00 -0.00000000000E+00 -0.71535521608E+02  0.71535521608E+02  0.00000000000E+00 0.  1.
         25    1    1    2    0    0  0.20149585492E+03  0.17557437791E+03  0.97489140409E+03  0.10185603524E+04  0.12500000000E+03 0.  0.
         21    1    1    2  503  501 -0.13805640194E+02 -0.31774094968E+02 -0.16738438991E+02  0.38475500673E+02  0.00000000000E+00 0. -1.
          1    1    1    2  501    0 -0.18769021473E+03 -0.14380028294E+03  0.61049782155E+03  0.65468597678E+03  0.00000000000E+00 0. -1.
<mgrwt>
<rscale>  4 0.28113585E+03</rscale>
<asrwt>0</asrwt>
<pdfrwt beam="1">  1       21 0.11005466E-01 0.28113585E+03</pdfrwt>
<pdfrwt beam="2">  1        1 0.25233633E+00 0.28113585E+03</pdfrwt>
<totfact> 0.43579015E+03</totfact>
</mgrwt>
</event>
<event>
 5    0  0.3040647E+000  0.3554840E+03  0.7546771E-02  0.1060386E+00
         -4   -1    0    0    0  501 -0.00000000000E+00  0.00000000000E+00  0.40017835014E+03  0.40017835014E+03  0.00000000000E+00 0.  1.
         21   -1    0    0  501  502  0.00000000000E+00 -0.00000000000E+00 -0.50245650933E+03  0.50245650933E+03  0.00000000000E+00 0. -1.
         25    1    1    2    0    0 -0.30416934688E+02 -0.31860577311E+03  0.96149575931E+02  0.35679765908E+03  0.12500000000E+03 0.  0.
         21    1    1    2  503  502 -0.17233605812E+01 -0.30046272343E+02 -0.19334159836E+03  0.19566993155E+03  0.00000000000E+00 0. -1.
         -4    1    1    2    0  503  0.32140295269E+02  0.34865204545E+03 -0.50861367623E+01  0.35016726884E+03  0.00000000000E+00 0.  1.
<mgrwt>
<rscale>  4 0.35548401E+03</rscale>
<asrwt>0</asrwt>
<pdfrwt beam="1">  1       21 0.77301002E-01 0.35548401E+03</pdfrwt>
<pdfrwt beam="2">  1       -4 0.61565900E-01 0.35548401E+03</pdfrwt>
<totfact> 0.15240289E+02</totfact>
</mgrwt>
</event>
<event>
 5    0  0.3040647E+000  0.2368437E+03  0.7546771E-02  0.1121913E+00
         21   -1    0    0  503  502  0.00000000000E+00  0.00000000000E+00  0.11959136245E+03  0.11959136245E+03  0.00000000000E+00 0. -1.
          1   -1    0    0  502    0 -0.00000000000E+00 -0.00000000000E+00 -0.61454371974E+03  0.61454371974E+03  0.00000000000E+00 0. -1.
         25    1    1    2    0    0 -0.21547978520E+03 -0.73551571620E+02 -0.11664458047E+03  0.28473203134E+03  0.12500000000E+03 0.  0.
         21    1    1    2  503  501  0.30314033785E+02  0.17150338476E+02 -0.15360510204E+02  0.38065995690E+02  0.00000000000E+00 0. -1.
          1    1    1    2  501    0  0.18516575142E+03  0.56401233144E+02 -0.36294726662E+03  0.41133705515E+03  0.00000000000E+00 0. -1.
<mgrwt>
<rscale>  4 0.23684372E+03</rscale>
<asrwt>0</asrwt>
<pdfrwt beam="1">  1       21 0.18398672E-01 0.23684372E+03</pdfrwt>
<pdfrwt beam="2">  1        1 0.94545186E-01 0.23684372E+03</pdfrwt>
<totfact> 0.10075489E+04</totfact>
</mgrwt>
</event>
<event>
 5    0  0.3040647E+000  0.3040688E+03  0.7546771E-02  0.1083224E+00
         21   -1    0    0  503  502  0.00000000000E+00  0.00000000000E+00  0.11458298980E+04  0.11458298980E+04  0.00000000000E+00 0. -1.
          1   -1    0    0  502    0 -0.00000000000E+00 -0.00000000000E+00 -0.34618396795E+03  0.34618396795E+03  0.00000000000E+00 0. -1.
         25    1    1    2    0    0  0.22502150782E+03 -0.87819497757E+02  0.80217720520E+03  0.84703023070E+03  0.12500000000E+03 0.  0.
         21    1    1    2  503  501  0.40769833406E+02  0.27394604922E+00  0.25886211344E+03  0.26205313991E+03  0.00000000000E+00 0.  1.
          1    1    1    2  501    0 -0.26579134123E+03  0.87545551708E+02 -0.26139338856E+03  0.38293049537E+03  0.00000000000E+00 0. -1.
<mgrwt>
<rscale>  4 0.30406885E+03</rscale>
<asrwt>0</asrwt>
<pdfrwt beam="1">  1       21 0.17628152E+00 0.30406885E+03</pdfrwt>
<pdfrwt beam="2">  1        1 0.53259073E-01 0.30406885E+03</pdfrwt>
<totfact> 0.14318874E+02</totfact>
</mgrwt>
</event>
<event>
 5    0  0.3040647E+000  0.1934793E+03  0.7546771E-02  0.1155360E+00
         21   -1    0    0  503  502  0.00000000000E+00  0.00000000000E+00  0.60244478718E+02  0.60244478718E+02  0.00000000000E+00 0. -1.
          1   -1    0    0  502    0 -0.00000000000E+00 -0.00000000000E+00 -0.21441548943E+04  0.21441548943E+04  0.00000000000E+00 0. -1.
         25    1    1    2    0    0  0.21674249736E+03 -0.25263111137E+02 -0.66730026850E+03  0.71311302280E+03  0.12500000000E+03 0.  0.
         21    1    1    2  503  501 -0.12864901238E+03  0.41710123738E+02 -0.91814545567E+02  0.16346318725E+03  0.00000000000E+00 0. -1.
          1    1    1    2  501    0 -0.88093484977E+02 -0.16447012601E+02 -0.13247956015E+04  0.13278231630E+04  0.00000000000E+00 0. -1.
<mgrwt>
<rscale>  4 0.19347933E+03</rscale>
<asrwt>0</asrwt>
<pdfrwt beam="1">  1       21 0.92683831E-02 0.19347933E+03</pdfrwt>
<pdfrwt beam="2">  1        1 0.32986992E+00 0.19347933E+03</pdfrwt>
<totfact> 0.28921510E+03</totfact>
</mgrwt>
</event>
<event>
 5    0  0.3040647E+000  0.2616552E+03  0.7546771E-02  0.1106153E+00
         21   -1    0    0  503  502  0.00000000000E+00  0.00000000000E+00  0.28945964488E+02  0.28945964488E+02  0.00000000000E+00 0. -1.
          2   -1    0    0  502    0 -0.00000000000E+00 -0.00000000000E+00 -0.29670057614E+04  0.29670057614E+04  0.00000000000E+00 0. -1.
         25    1    1    2    0    0 -0.65505053851E+02 -0.20317016477E+03 -0.11591261264E+04  0.11852288407E+04  0.12500000000E+03 0.  0.
         21    1    1    2  503  501  0.23401779638E+02 -0.34321579547E+02 -0.49812457828E+02  0.64860581772E+02  0.00000000000E+00 0.  1.
          2    1    1    2  501    0  0.42103274213E+02  0.23749174432E+03 -0.17291212127E+04  0.17458623034E+04  0.00000000000E+00 0. -1.
<mgrwt>
<rscale>  4 0.26165522E+03</rscale>
<asrwt>0</asrwt>
<pdfrwt beam="1">  1       21 0.44532273E-02 0.26165522E+03</pdfrwt>
<pdfrwt beam="2">  1        2 0.45646222E+00 0.26165522E+03</pdfrwt>
<totfact> 0.90960254E+03</totfact>
</mgrwt>
</event>
<event>
 5    0  0.3040647E+000  0.2471455E+03  0.7546771E-02  0.1115122E+00
          2   -1    0    0  502    0 -0.00000000000E+00  0.00000000000E+00  0.12645591541E+04  0.12645591541E+04  0.00000000000E+00 0.  1.
         21   -1    0    0  503  502  0.00000000000E+00 -0.00000000000E+00 -0.96958855947E+03  0.96958855947E+03  0.00000000000E+00 0. -1.
         25    1    1    2    0    0  0.29678211327E+03 -0.23261965248E+03  0.45166724321E+03  0.60151460835E+03  0.12500000000E+03 0.  0.
         21    1    1    2  503  501 -0.17240276594E+03  0.11879115160E+03 -0.87248598466E+03  0.89725461539E+03  0.00000000000E+00 0. -1.
          2    1    1    2  501    0 -0.12437934733E+03  0.11382850087E+03  0.71578933611E+03  0.73537848986E+03  0.00000000000E+00 0.  1.
<mgrwt>
<rscale>  4 0.24714547E+03</rscale>
<asrwt>0</asrwt>
<pdfrwt beam="1">  1       21 0.14916747E+00 0.24714547E+03</pdfrwt>
<pdfrwt beam="2">  1        2 0.19454756E+00 0.24714547E+03</pdfrwt>
<totfact> 0.67811490E+01</totfact>
</mgrwt>
</event>
<event>
 5    0  0.3040647E+000  0.2890093E+03  0.7546771E-02  0.1090868E+00
         -2   -1    0    0    0  501 -0.00000000000E+00  0.00000000000E+00  0.25302718653E+03  0.25302718653E+03  0.00000000000E+00 0. -1.
         21   -1    0    0  501  502  0.00000000000E+00 -0.00000000000E+00 -0.31634864588E+03  0.31634864588E+03  0.00000000000E+00 0. -1.
         25    1    1    2    0    0 -0.25850812905E+03 -0.32786300336E+02  0.48027576068E+01  0.28904923586E+03  0.12500000000E+03 0.  0.
         21    1    1    2  503  502  0.28024287780E+02 -0.20378949330E+02 -0.19366443125E+01  0.34704652031E+02  0.00000000000E+00 0.  1.
         -2    1    1    2    0  503  0.23048384127E+03  0.53165249666E+02 -0.66187572639E+02  0.24562194452E+03  0.00000000000E+00 0. -1.
<mgrwt>
<rscale>  4 0.28900933E+03</rscale>
<asrwt>0</asrwt>
<pdfrwt beam="1">  1       21 0.48669022E-01 0.28900933E+03</pdfrwt>
<pdfrwt beam="2">  1       -2 0.38927260E-01 0.28900933E+03</pdfrwt>
<totfact> 0.19932718E+03</totfact>
</mgrwt>
</event>
<event>
 5    0  0.3040647E+000  0.3331322E+03  0.7546771E-02  0.1069759E+00
          2   -1    0    0  502    0 -0.00000000000E+00  0.00000000000E+00  0.17270251802E+04  0.17270251802E+04  0.00000000000E+00 0.  1.
         21   -1    0    0  503  502  0.00000000000E+00 -0.00000000000E+00 -0.10414615762E+03  0.10414615762E+03  0.00000000000E+00 0.  1.
         25    1    1    2    0    0 -0.30849741576E+03  0.11599545317E+03  0.76809539813E+03  0.84511605198E+03  0.12500000000E+03 0.  0.
         21    1    1    2  503  501  0.48715098055E+02  0.27736162728E+02 -0.22113385716E+02  0.60261574234E+02  0.00000000000E+00 0.  1.
          2    1    1    2  501    0  0.25978231770E+03 -0.14373161590E+03  0.87689701020E+03  0.92579371163E+03  0.00000000000E+00 0.  1.
<mgrwt>
<rscale>  4 0.33313221E+03</rscale>
<asrwt>0</asrwt>
<pdfrwt beam="1">  1       21 0.16022487E-01 0.33313221E+03</pdfrwt>
<pdfrwt beam="2">  1        2 0.26569616E+00 0.33313221E+03</pdfrwt>
<totfact> 0.44008903E+03</totfact>
</mgrwt>
</event>
<event>
 5    0  0.3040647E+000  0.2645678E+03  0.7546771E-02  0.1104429E+00
         21   -1    0    0  503  502  0.00000000000E+00  0.00000000000E+00  0.49728312459E+02  0.49728312459E+02  0.00000000000E+00 0. -1.
          2   -1    0    0  502    0 -0.00000000000E+00 -0.00000000000E+00 -0.17389173992E+04  0.17389173992E+04  0.00000000000E+00 0. -1.
         25    1    1    2    0    0 -0.18497271394E+03  0.95834631460E+02 -0.11549700894E+04  0.11802457748E+04  0.12500000000E+03 0.  0.
         21    1    1    2  503  501  0.20522786129E+03 -0.13287535685E+03 -0.48789181776E+03  0.54572223827E+03  0.00000000000E+00 0. -1.
          2    1    1    2  501    0 -0.20255147355E+02  0.37040725395E+02 -0.46327179522E+02  0.62677698543E+02  0.00000000000E+00 0. -1.
<mgrwt>
<rscale>  4 0.26456777E+03</rscale>
<asrwt>0</asrwt>
<pdfrwt beam="1">  1       21 0.76505106E-02 0.26456777E+03</pdfrwt>
<pdfrwt beam="2">  1        2 0.26752572E+00 0.26456777E+03</pdfrwt>
<totfact> 0.16703220E+04</totfact>
</mgrwt>
</event>
<event>
 5    0  0.3040647E+000  0.2435942E+03  0.7546771E-02  0.1117421E+00
          2   -1    0    0  502    0 -0.00000000000E+00  0.00000000000E+00  0.55474856572E+03  0.55474856572E+03  0.00000000000E+00 0.  1.
         21   -1    0    0  503  502  0.00000000000E+00 -0.00000000000E+00 -0.75374516019E+03  0.75374516019E+03  0.00000000000E+00 0.  1.
         25    1    1    2    0    0  0.40809211529E+02  0.36330440280E+03 -0.40867753315E+02  0.38852368538E+03  0.12500000000E+03 0.  0.
         21    1    1    2  503  501 -0.52168306573E+02 -0.17232270600E+03 -0.49822222393E+03  0.52975657772E+03  0.00000000000E+00 0.  1.
          2    1    1    2  501    0  0.11359095044E+02 -0.19098169680E+03  0.34009338278E+03  0.39021346282E+03  0.00000000000E+00 0.  1.
<mgrwt>
<rscale>  4 0.24359420E+03</rscale>
<asrwt>0</asrwt>
<pdfrwt beam="1">  1       21 0.11596079E+00 0.24359420E+03</pdfrwt>
<pdfrwt beam="2">  1        2 0.85345934E-01 0.24359420E+03</pdfrwt>
<totfact> 0.38599657E+02</totfact>
</mgrwt>
</event>
<event>
 5    0  0.3040647E+000  0.2052532E+03  0.7546771E-02  0.1145381E+00
         21   -1    0    0  501  502  0.00000000000E+00  0.00000000000E+00  0.11581830984E+04  0.11581830984E+04  0.00000000000E+00 0. -1.
         -2   -1    0    0    0  501 -0.00000000000E+00 -0.00000000000E+00 -0.53267674110E+03  0.53267674110E+03  0.00000000000E+00 0.  1.
         25    1    1    2    0    0  0.32967396415E+02 -0.30259559697E+03  0.33808860410E+03  0.47178368852E+03  0.12500000000E+03 0.  0.
         21    1    1    2  503  502 -0.51638642091E+02  0.14543613015E+03  0.73151658764E+03  0.74761937863E+03  0.00000000000E+00 0. -1.
         -2    1    1    2    0  503  0.18671245676E+02  0.15715946682E+03 -0.44409883445E+03  0.47145677234E+03  0.00000000000E+00 0.  1.
<mgrwt>
<rscale>  4 0.20525325E+03</rscale>
<asrwt>0</asrwt>
<pdfrwt beam="1">  1       21 0.17818201E+00 0.20525325E+03</pdfrwt>
<pdfrwt beam="2">  1       -2 0.81950268E-01 0.20525325E+03</pdfrwt>
<totfact> 0.20451982E+01</totfact>
</mgrwt>
</event>
<event>
 5    0  0.3040647E+000  0.3120240E+03  0.7546771E-02  0.1079380E+00
         21   -1    0    0  503  502  0.00000000000E+00  0.00000000000E+00  0.51841962777E+03  0.51841962777E+03  0.00000000000E+00 0. -1.
          1   -1    0    0  502    0 -0.00000000000E+00 -0.00000000000E+00 -0.90121338139E+03  0.90121338139E+03  0.00000000000E+00 0.  1.
         25    1    1    2    0    0  0.54066610991E+02  0.24140240486E+03 -0.39201742474E+02  0.27992873399E+03  0.12500000000E+03 0.  0.
         21    1    1    2  503  501  0.23969183834E+02  0.43480788472E+02  0.36690747062E+03  0.37025152632E+03  0.00000000000E+00 0. -1.
          1    1    1    2  501    0 -0.78035794825E+02 -0.28488319334E+03 -0.71049948177E+03  0.76945274885E+03  0.00000000000E+00 0.  1.
<mgrwt>
<rscale>  4 0.31202399E+03</rscale>
<asrwt>0</asrwt>
<pdfrwt beam="1">  1       21 0.79756866E-01 0.31202399E+03</pdfrwt>
<pdfrwt beam="2">  1        1 0.13864821E+00 0.31202399E+03</pdfrwt>
<totfact> 0.27608998E+02</totfact>
</mgrwt>
</event>
<event>
 5    0  0.3040647E+000  0.2082363E+03  0.7546771E-02  0.1142970E+00
          3   -1    0    0  502    0 -0.00000000000E+00  0.00000000000E+00  0.12639923362E+04  0.12639923362E+04  0.00000000000E+00 0. -1.
         21   -1    0    0  503  502  0.00000000000E+00 -0.00000000000E+00 -0.16433141605E+03  0.16433141605E+03  0.00000000000E+00 0. -1.
         25    1    1    2    0    0  0.23893776368E+03 -0.12368034236E+02  0.10463289056E+02  0.27014570810E+03  0.12500000000E+03 0.  0.
         21    1    1    2  503  501 -0.77744915161E+02 -0.12605186090E+02  0.26595720646E+02  0.83129386539E+02  0.00000000000E+00 0. -1.
          3    1    1    2  501    0 -0.16119284852E+03  0.24973220326E+02  0.10626019105E+04  0.10750486577E+04  0.00000000000E+00 0. -1.
<mgrwt>
<rscale>  4 0.20823630E+03</rscale>
<asrwt>0</asrwt>
<pdfrwt beam="1">  1       21 0.25281757E-01 0.20823630E+03</pdfrwt>
<pdfrwt beam="2">  1        3 0.19446035E+00 0.20823630E+03</pdfrwt>
<totfact> 0.12712261E+02</totfact>
</mgrwt>
</event>
<event>
 5    0  0.3040647E+000  0.3171364E+03  0.7546771E-02  0.1076975E+00
         21   -1    0    0  503  502  0.00000000000E+00  0.00000000000E+00  0.62614830344E+02  0.62614830344E+02  0.00000000000E+00 0. -1.
          1   -1    0    0  502    0 -0.00000000000E+00 -0.00000000000E+00 -0.23117081283E+04  0.23117081283E+04  0.00000000000E+00 0.  1.
         25    1    1    2    0    0  0.19027260636E+03 -0.24521501742E+03 -0.68675910294E+03  0.76393529502E+03  0.12500000000E+03 0.  0.
         21    1    1    2  503  501 -0.27817159428E+02  0.10795479525E+02 -0.91147566368E+01  0.31199607776E+02  0.00000000000E+00 0. -1.
          1    1    1    2  501    0 -0.16245544693E+03  0.23441953790E+03 -0.15532194384E+04  0.15791880558E+04  0.00000000000E+00 0.  1.
<mgrwt>
<rscale>  4 0.31713644E+03</rscale>
<asrwt>0</asrwt>
<pdfrwt beam="1">  1       21 0.96330507E-02 0.31713644E+03</pdfrwt>
<pdfrwt beam="2">  1        1 0.35564741E+00 0.31713644E+03</pdfrwt>
<totfact> 0.19873662E+03</totfact>
</mgrwt>
</event>
<event>
 5    0  0.3040647E+000  0.2737823E+03  0.7546771E-02  0.1099134E+00
         21   -1    0    0  503  502  0.00000000000E+00  0.00000000000E+00  0.21259564487E+03  0.21259564487E+03  0.00000000000E+00 0. -1.
          1   -1    0    0  502    0 -0.00000000000E+00 -0.00000000000E+00 -0.18879894532E+04  0.18879894532E+04  0.00000000000E+00 0. -1.
         25    1    1    2    0    0  0.20557915363E+03 -0.11386078210E+03 -0.10335295665E+03  0.28554141513E+03  0.12500000000E+03 0.  0.
         21    1    1    2  503  501  0.16710585499E+02  0.12104144382E+02  0.11172902965E+03  0.11361835259E+03  0.00000000000E+00 0. -1.
          1    1    1    2  501    0 -0.22228973913E+03  0.10175663771E+03 -0.16837698814E+04  0.17014253304E+04  0.00000000000E+00 0. -1.
<mgrwt>
<rscale>  4 0.27378231E+03</rscale>
<asrwt>0</asrwt>
<pdfrwt beam="1">  1       21 0.32707023E-01 0.27378231E+03</pdfrwt>
<pdfrwt beam="2">  1        1 0.29045991E+00 0.27378231E+03</pdfrwt>
<totfact> 0.38913162E+02</totfact>
</mgrwt>
</event>
<event>
 5    0  0.3040647E+000  0.2597893E+03  0.7546771E-02  0.1107270E+00
         -1   -1    0    0    0  501 -0.00000000000E+00  0.00000000000E+00  0.56002321513E+03  0.56002321513E+03  0.00000000000E+00 0.  1.
         21   -1    0    0  501  502  0.00000000000E+00 -0.00000000000E+00 -0.21602787368E+03  0.21602787368E+03  0.00000000000E+00 0.  1.
         25    1    1    2    0    0 -0.18569970877E+03 -0.99343125569E+02 -0.70077375736E+02  0.25473373751E+03  0.12500000000E+03 0.  0.
         21    1    1    2  503  502 -0.20347648679E+02 -0.46025537187E+01 -0.20511759333E+02  0.29256496346E+02  0.00000000000E+00 0. -1.
         -1    1    1    2    0  503  0.20604735745E+03  0.10394567929E+03  0.43458447652E+03  0.49206085496E+03  0.00000000000E+00 0.  1.
<mgrwt>
<rscale>  4 0.25978934E+03</rscale>
<asrwt>0</asrwt>
<pdfrwt beam="1">  1       21 0.33235058E-01 0.25978934E+03</pdfrwt>
<pdfrwt beam="2">  1       -1 0.86157417E-01 0.25978934E+03</pdfrwt>
<totfact> 0.11116932E+03</totfact>
</mgrwt>
</event>
<event>
 5    0  0.3040647E+000  0.2325819E+03  0.7546771E-02  0.1124836E+00
         21   -1    0    0  503  502  0.00000000000E+00  0.00000000000E+00  0.42209018282E+03  0.42209018282E+03  0.00000000000E+00 0.  1.
          2   -1    0    0  502    0 -0.00000000000E+00 -0.00000000000E+00 -0.32880100272E+03  0.32880100272E+03  0.00000000000E+00 0.  1.
         25    1    1    2    0    0  0.24032695288E+03 -0.28008852741E+01  0.27987561036E+03  0.38951283229E+03  0.12500000000E+03 0.  0.
         21    1    1    2  503  501 -0.14189287500E+03  0.11180142852E+02  0.86243417885E+01  0.14259369847E+03  0.00000000000E+00 0.  1.
          2    1    1    2  501    0 -0.98434077876E+02 -0.83792575777E+01 -0.19521077205E+03  0.21878465479E+03  0.00000000000E+00 0.  1.
<mgrwt>
<rscale>  4 0.23258187E+03</rscale>
<asrwt>0</asrwt>
<pdfrwt beam="1">  1       21 0.64936951E-01 0.23258187E+03</pdfrwt>
<pdfrwt beam="2">  1        2 0.50584770E-01 0.23258187E+03</pdfrwt>
<totfact> 0.26450359E+03</totfact>
</mgrwt>
</event>
<event>
 5    0  0.3040647E+000  0.3216400E+03  0.7546771E-02  0.1074897E+00
          1   -1    0    0  502    0 -0.00000000000E+00  0.00000000000E+00  0.11379194052E+04  0.11379194052E+04  0.00000000000E+00 0. -1.
         21   -1    0    0  503  502  0.00000000000E+00 -0.00000000000E+00 -0.12963369215E+03  0.12963369215E+03  0.00000000000E+00 0. -1.
         25    1    1    2    0    0 -0.25707106840E+03 -0.76233018788E+02  0.38212138991E+03  0.48325848569E+03  0.12500000000E+03 0.  0.
         21    1    1    2  503  501 -0.52799515798E+02  0.90569171214E+01 -0.25694272906E+02  0.59413906423E+02  0.00000000000E+00 0. -1.
          1    1    1    2  501    0  0.30987058420E+03  0.67176101666E+02  0.65185859600E+03  0.72488070520E+03  0.00000000000E+00 0. -1.
<mgrwt>
<rscale>  4 0.32164001E+03</rscale>
<asrwt>0</asrwt>
<pdfrwt beam="1">  1       21 0.19943646E-01 0.32164001E+03</pdfrwt>
<pdfrwt beam="2">  1        1 0.17506452E+00 0.32164001E+03</pdfrwt>
<totfact> 0.31683876E+03</totfact>
</mgrwt>
</event>
<event>
 5    0  0.3040647E+000  0.2979181E+03  0.7546771E-02  0.1086286E+00
         21   -1    0    0  503  502  0.00000000000E+00  0.00000000000E+00  0.18634960554E+04  0.18634960554E+04  0.00000000000E+00 0. -1.
          1   -1    0    0  502    0 -0.00000000000E+00 -0.00000000000E+00 -0.20288854135E+03  0.20288854135E+03  0.00000000000E+00 0. -1.
         25    1    1    2    0    0  0.12315512988E+03 -0.23866000881E+03  0.11879057423E+04  0.12242838063E+04  0.12500000000E+03 0.  0.
         21    1    1    2  503  501  0.89911101637E+02  0.68851461737E+02  0.54788158312E+03  0.55946292022E+03  0.00000000000E+00 0.  1.
          1    1    1    2  501    0 -0.21306623152E+03  0.16980854708E+03 -0.75179811317E+02  0.28263787026E+03  0.00000000000E+00 0. -1.
<mgrwt>
<rscale>  4 0.29791805E+03</rscale>
<asrwt>0</asrwt>
<pdfrwt beam="1">  1       21 0.28669169E+00 0.29791805E+03</pdfrwt>
<pdfrwt beam="2">  1        1 0.31213623E-01 0.29791805E+03</pdfrwt>
<totfact> 0.57643260E+01</totfact>
</mgrwt>
</event>
<event>
 5    0  0.3040647E+000  0.2504644E+03  0.7546771E-02  0.1113012E+00
         21   -1    0    0  501  502  0.00000000000E+00  0.00000000000E+00  0.39875143807E+02  0.39875143807E+02  0.00000000000E+00 0.  1.
         -2   -1    0    0    0  501 -0.00000000000E+00 -0.00000000000E+00 -0.20891150661E+04  0.20891150661E+04  0.00000000000E+00 0.  1.
         25    1    1    2    0    0 -0.16922965769E+03 -0.13556751305E+03 -0.11153691925E+04  0.11431057096E+04  0.12500000000E+03 0.  0.
         21    1    1    2  503  502 -0.29578017985E+02  0.41092953187E+02 -0.37826328412E+02  0.63200641378E+02  0.00000000000E+00 0.  1.
         -2    1    1    2    0  503  0.19880767567E+03  0.94474559866E+02 -0.89604440138E+03  0.92268385898E+03  0.00000000000E+00 0.  1.
<mgrwt>
<rscale>  4 0.25046441E+03</rscale>
<asrwt>0</asrwt>
<pdfrwt beam="1">  1       21 0.61346365E-02 0.25046441E+03</pdfrwt>
<pdfrwt beam="2">  1       -2 0.32140237E+00 0.25046441E+03</pdfrwt>
<totfact> 0.42899640E+02</totfact>
</mgrwt>
</event>
<event>
 5    0  0.3040647E+000  0.2808405E+03  0.7546771E-02  0.1095231E+00
         21   -1    0    0  501  502  0.00000000000E+00  0.00000000000E+00  0.14878249105E+03  0.14878249105E+03  0.00000000000E+00 0. -1.
         -4   -1    0    0    0  501 -0.00000000000E+00 -0.00000000000E+00 -0.73358786009E+03  0.73358786009E+03  0.00000000000E+00 0. -1.
         25    1    1    2    0    0  0.45095213781E+02  0.28901876134E+03 -0.33305358133E+03  0.46055956265E+03  0.12500000000E+03 0.  0.
         21    1    1    2  503  502 -0.44255472083E+02 -0.22958107672E+03 -0.91823156177E+02  0.25119217664E+03  0.00000000000E+00 0. -1.
         -4    1    1    2    0  503 -0.83974169789E+00 -0.59437684623E+02 -0.15992863154E+03  0.17061861184E+03  0.00000000000E+00 0. -1.
<mgrwt>
<rscale>  4 0.28084050E+03</rscale>
<asrwt>0</asrwt>
<pdfrwt beam="1">  1       21 0.22889614E-01 0.28084050E+03</pdfrwt>
<pdfrwt beam="2">  1       -4 0.11285967E+00 0.28084050E+03</pdfrwt>
<totfact> 0.48136349E+02</totfact>
</mgrwt>
</event>
<event>
 5    0  0.3040647E+000  0.2873082E+03  0.7546771E-02  0.1091763E+00
         21   -1    0    0  503  502  0.00000000000E+00  0.00000000000E+00  0.35287962065E+03  0.35287962065E+03  0.00000000000E+00 0. -1.
          2   -1    0    0  502    0 -0.00000000000E+00 -0.00000000000E+00 -0.61230063878E+03  0.61230063878E+03  0.00000000000E+00 0.  1.
         25    1    1    2    0    0 -0.22939465775E+03 -0.11855141671E+03  0.22237206037E+03  0.36297476585E+03  0.12500000000E+03 0.  0.
         21    1    1    2  503  501  0.22950938409E+02 -0.38048012609E+02  0.10701372303E+02  0.45704662853E+02  0.00000000000E+00 0.  1.
          2    1    1    2  501    0  0.20644371934E+03  0.15659942932E+03 -0.49249445081E+03  0.55650083072E+03  0.00000000000E+00 0.  1.
<mgrwt>
<rscale>  4 0.28730823E+03</rscale>
<asrwt>0</asrwt>
<pdfrwt beam="1">  1       21 0.54289173E-01 0.28730823E+03</pdfrwt>
<pdfrwt beam="2">  1        2 0.94200098E-01 0.28730823E+03</pdfrwt>
<totfact> 0.19141459E+03</totfact>
</mgrwt>
</event>
<event>
 5    0  0.3040647E+000  0.2857220E+03  0.7546771E-02  0.1092604E+00
         21   -1    0    0  503  502  0.00000000000E+00  0.00000000000E+00  0.32332140437E+03  0.32332140437E+03  0.00000000000E+00 0. -1.
          1   -1    0    0  502    0 -0.00000000000E+00 -0.00000000000E+00 -0.10672639304E+04  0.10672639304E+04  0.00000000000E+00 0.  1.
         25    1    1    2    0    0 -0.20911387207E+03 -0.74291514025E+01  0.20028568461E+03  0.31547291364E+03  0.12500000000E+03 0.  0.
         21    1    1    2  503  501 -0.46912863398E+02  0.55169416791E+02  0.20970382687E+02  0.75393887360E+02  0.00000000000E+00 0. -1.
          1    1    1    2  501    0  0.25602673546E+03 -0.47740265388E+02 -0.96519859329E+03  0.99971853374E+03  0.00000000000E+00 0.  1.
<mgrwt>
<rscale>  4 0.28572203E+03</rscale>
<asrwt>0</asrwt>
<pdfrwt beam="1">  1       21 0.49741754E-01 0.28572203E+03</pdfrwt>
<pdfrwt beam="2">  1        1 0.16419445E+00 0.28572203E+03</pdfrwt>
<totfact> 0.58782060E+02</totfact>
</mgrwt>
</event>
<event>
 5    0  0.3040647E+000  0.2917112E+03  0.7546771E-02  0.1089459E+00
         21   -1    0    0  503  502  0.00000000000E+00  0.00000000000E+00  0.68134125508E+03  0.68134125508E+03  0.00000000000E+00 0.  1.
          2   -1    0    0  502    0 -0.00000000000E+00 -0.00000000000E+00 -0.49036453628E+03  0.49036453628E+03  0.00000000000E+00 0.  1.
         25    1    1    2    0    0 -0.14936605522E+03 -0.15454812515E+03  0.34777116767E+02  0.25105734264E+03  0.12500000000E+03 0.  0.
         21    1    1    2  503  501 -0.52003642965E+02 -0.41902789665E+02  0.48405437328E+03  0.48863980493E+03  0.00000000000E+00 0.  1.
          2    1    1    2  501    0  0.20136969819E+03  0.19645091482E+03 -0.32785477125E+03  0.43200864379E+03  0.00000000000E+00 0.  1.
<mgrwt>
<rscale>  4 0.29171121E+03</rscale>
<asrwt>0</asrwt>
<pdfrwt beam="1">  1       21 0.10482173E+00 0.29171121E+03</pdfrwt>
<pdfrwt beam="2">  1        2 0.75440698E-01 0.29171121E+03</pdfrwt>
<totfact> 0.55521435E+02</totfact>
</mgrwt>
</event>
<event>
 5    0  0.3040647E+000  0.2483039E+03  0.7546771E-02  0.1114381E+00
         21   -1    0    0  501  502  0.00000000000E+00  0.00000000000E+00  0.99520237872E+03  0.99520237872E+03  0.00000000000E+00 0.  1.
         -2   -1    0    0    0  501 -0.00000000000E+00 -0.00000000000E+00 -0.83819437805E+02  0.83819437805E+02  0.00000000000E+00 0.  1.
         25    1    1    2    0    0 -0.22187473600E+03 -0.49751850050E+02  0.72187038940E+03  0.76708898059E+03  0.12500000000E+03 0.  0.
         21    1    1    2  503  502  0.19358851246E+02 -0.10903899609E+02  0.60070139164E+02  0.64047496184E+02  0.00000000000E+00 0. -1.
         -2    1    1    2    0  503  0.20251588476E+03  0.60655749659E+02  0.12944241235E+03  0.24788533974E+03  0.00000000000E+00 0.  1.
<mgrwt>
<rscale>  4 0.24830392E+03</rscale>
<asrwt>0</asrwt>
<pdfrwt beam="1">  1       21 0.15310805E+00 0.24830392E+03</pdfrwt>
<pdfrwt beam="2">  1       -2 0.12895299E-01 0.24830392E+03</pdfrwt>
<totfact> 0.95747140E+02</totfact>
</mgrwt>
</event>
<event>
 5    0  0.3040647E+000  0.2014883E+03  0.7546771E-02  0.1148489E+00
         21   -1    0    0  503  502  0.00000000000E+00  0.00000000000E+00  0.45141743687E+02  0.45141743687E+02  0.00000000000E+00 0.  1.
          1   -1    0    0  502    0 -0.00000000000E+00 -0.00000000000E+00 -0.16389101186E+04  0.16389101186E+04  0.00000000000E+00 0.  1.
         25    1    1    2    0    0 -0.10000834757E+03 -0.19390720684E+03 -0.71890498706E+03  0.76161082901E+03  0.12500000000E+03 0.  0.
         21    1    1    2  503  501  0.91920681295E+02  0.51489790823E+02 -0.14775455262E+03  0.18147181056E+03  0.00000000000E+00 0.  1.
          1    1    1    2  501    0  0.80876662721E+01  0.14241741602E+03 -0.72710883524E+03  0.74096922271E+03  0.00000000000E+00 0.  1.
<mgrwt>
<rscale>  4 0.20148833E+03</rscale>
<asrwt>0</asrwt>
<pdfrwt beam="1">  1       21 0.69448834E-02 0.20148833E+03</pdfrwt>
<pdfrwt beam="2">  1        1 0.25214003E+00 0.20148833E+03</pdfrwt>
<totfact> 0.10086445E+04</totfact>
</mgrwt>
</event>
<event>
 5    0  0.3040647E+000  0.3199094E+03  0.7546771E-02  0.1075691E+00
         -2   -1    0    0    0  501 -0.00000000000E+00  0.00000000000E+00  0.10271606727E+04  0.10271606727E+04  0.00000000000E+00 0.  1.
         21   -1    0    0  501  502  0.00000000000E+00 -0.00000000000E+00 -0.40637779800E+03  0.40637779800E+03  0.00000000000E+00 0. -1.
         25    1    1    2    0    0  0.34474811822E+03 -0.12414255259E+03  0.18262326208E+03  0.42806412398E+03  0.12500000000E+03 0.  0.
         21    1    1    2  503  502 -0.27968134018E+03  0.18965071505E+02 -0.20706263232E+03  0.34850575273E+03  0.00000000000E+00 0. -1.
         -2    1    1    2    0  503 -0.65066778044E+02  0.10517748108E+03  0.64522224491E+03  0.65696859396E+03  0.00000000000E+00 0.  1.
<mgrwt>
<rscale>  4 0.31990936E+03</rscale>
<asrwt>0</asrwt>
<pdfrwt beam="1">  1       21 0.62519662E-01 0.31990936E+03</pdfrwt>
<pdfrwt beam="2">  1       -2 0.15802472E+00 0.31990936E+03</pdfrwt>
<totfact> 0.50915113E+01</totfact>
</mgrwt>
</event>
<event>
 5    0  0.3040647E+000  0.2234564E+03  0.7546771E-02  0.1131332E+00
         21   -1    0    0  503  502  0.00000000000E+00  0.00000000000E+00  0.44314302832E+03  0.44314302832E+03  0.00000000000E+00 0.  1.
          2   -1    0    0  502    0 -0.00000000000E+00 -0.00000000000E+00 -0.44243084638E+03  0.44243084638E+03  0.00000000000E+00 0.  1.
         25    1    1    2    0    0 -0.13712354517E+03 -0.18355072966E+03 -0.83850563205E+02  0.27413437207E+03  0.12500000000E+03 0.  0.
         21    1    1    2  503  501  0.38307893741E+02  0.42592359260E+02  0.31703533039E+03  0.32216921719E+03  0.00000000000E+00 0.  1.
          2    1    1    2  501    0  0.98815651427E+02  0.14095837040E+03 -0.23247258524E+03  0.28927028544E+03  0.00000000000E+00 0.  1.
<mgrwt>
<rscale>  4 0.22345639E+03</rscale>
<asrwt>0</asrwt>
<pdfrwt beam="1">  1       21 0.68175850E-01 0.22345639E+03</pdfrwt>
<pdfrwt beam="2">  1        2 0.68066284E-01 0.22345639E+03</pdfrwt>
<totfact> 0.17279743E+03</totfact>
</mgrwt>
</event>
<event>
 5    0  0.3040647E+000  0.2582759E+03  0.7546771E-02  0.1108184E+00
         21   -1    0    0  503  502  0.00000000000E+00  0.00000000000E+00  0.38144606603E+02  0.38144606603E+02  0.00000000000E+00 0.  1.
          2   -1    0    0  502    0 -0.00000000000E+00 -0.00000000000E+00 -0.18985687251E+04  0.18985687251E+04  0.00000000000E+00 0. -1.
         25    1    1    2    0    0  0.21491107426E+03 -0.24564391930E+02 -0.70737493595E+03  0.75019629378E+03  0.12500000000E+03 0.  0.
         21    1    1    2  503  501  0.17956715834E+02  0.40505888588E+02 -0.13634288845E+03  0.14336161929E+03  0.00000000000E+00 0.  1.
          2    1    1    2  501    0 -0.23286779009E+03 -0.15941496657E+02 -0.10167062941E+04  0.10431554187E+04  0.00000000000E+00 0. -1.
<mgrwt>
<rscale>  4 0.25827586E+03</rscale>
<asrwt>0</asrwt>
<pdfrwt beam="1">  1       21 0.58684016E-02 0.25827586E+03</pdfrwt>
<pdfrwt beam="2">  1        2 0.29208747E+00 0.25827586E+03</pdfrwt>
<totfact> 0.21850993E+04</totfact>
</mgrwt>
</event>
<event>
 5    0  0.3040647E+000  0.3271766E+03  0.7546771E-02  0.1072393E+00
         -2   -1    0    0    0  501 -0.00000000000E+00  0.00000000000E+00  0.13005638335E+03  0.13005638335E+03  0.00000000000E+00 0.  1.
         21   -1    0    0  501  502  0.00000000000E+00 -0.00000000000E+00 -0.22463982805E+04  0.22463982805E+04  0.00000000000E+00 0. -1.
         25    1    1    2    0    0 -0.29914943722E+03 -0.19190677625E+03 -0.14081707234E+04  0.14576996888E+04  0.12500000000E+03 0.  0.
         21    1    1    2  503  502 -0.53503081753E+00  0.17718579407E+03 -0.55354096133E+03  0.58120795568E+03  0.00000000000E+00 0. -1.
         -2    1    1    2    0  503  0.29968446804E+03  0.14720982178E+02 -0.15463021249E+03  0.33754701942E+03  0.00000000000E+00 0.  1.
<mgrwt>
<rscale>  4 0.32717656E+03</rscale>
<asrwt>0</asrwt>
<pdfrwt beam="1">  1       21 0.34559972E+00 0.32717656E+03</pdfrwt>
<pdfrwt beam="2">  1       -2 0.20008675E-01 0.32717656E+03</pdfrwt>
<totfact> 0.27178040E+01</totfact>
</mgrwt>
</event>
<event>
 5    0  0.3040647E+000  0.2438026E+03  0.7546771E-02  0.1117285E+00
         21   -1    0    0  503  502  0.00000000000E+00  0.00000000000E+00  0.17733369648E+04  0.17733369648E+04  0.00000000000E+00 0.  1.
          2   -1    0    0  502    0 -0.00000000000E+00 -0.00000000000E+00 -0.11061924288E+04  0.11061924288E+04  0.00000000000E+00 0.  1.
         25    1    1    2    0    0 -0.16825868297E+03  0.20600466004E+03  0.13137244262E+04  0.13461967807E+04  0.12500000000E+03 0.  0.
         21    1    1    2  503  501  0.35095329403E+02 -0.45058807968E+02  0.43146854561E+03  0.43523221867E+03  0.00000000000E+00 0.  1.
          2    1    1    2  501    0  0.13316335357E+03 -0.16094585207E+03 -0.10780484358E+04  0.10981003943E+04  0.00000000000E+00 0.  1.
<mgrwt>
<rscale>  4 0.24380255E+03</rscale>
<asrwt>0</asrwt>
<pdfrwt beam="1">  1       21 0.27282107E+00 0.24380255E+03</pdfrwt>
<pdfrwt beam="2">  1        2 0.17018345E+00 0.24380255E+03</pdfrwt>
<totfact> 0.13232578E+01</totfact>
</mgrwt>
</event>
<event>
 5    0  0.3040647E+000  0.2552550E+03  0.7546771E-02  0.1110028E+00
         21   -1    0    0  503  502  0.00000000000E+00  0.00000000000E+00  0.10932039546E+03  0.10932039546E+03  0.00000000000E+00 0. -1.
          1   -1    0    0  502    0 -0.00000000000E+00 -0.00000000000E+00 -0.28835476666E+04  0.28835476666E+04  0.00000000000E+00 0.  1.
         25    1    1    2    0    0 -0.11057437551E+03 -0.17338562121E+03 -0.50999194787E+03  0.56392025417E+03  0.12500000000E+03 0.  0.
         21    1    1    2  503  501 -0.31717949919E+02 -0.24531759317E+01  0.73607202150E+02  0.80187696235E+02  0.00000000000E+00 0. -1.
          1    1    1    2  501    0  0.14229232543E+03  0.17583879714E+03 -0.23378425254E+04  0.23487601117E+04  0.00000000000E+00 0.  1.
<mgrwt>
<rscale>  4 0.25525500E+03</rscale>
<asrwt>0</asrwt>
<pdfrwt beam="1">  1       21 0.16818523E-01 0.25525500E+03</pdfrwt>
<pdfrwt beam="2">  1        1 0.44362271E+00 0.25525500E+03</pdfrwt>
<totfact> 0.30737364E+02</totfact>
</mgrwt>
</event>
<event>
 5    0  0.3040647E+000  0.2649312E+03  0.7546771E-02  0.1104216E+00
          2   -1    0    0  502    0 -0.00000000000E+00  0.00000000000E+00  0.11443324931E+04  0.11443324931E+04  0.00000000000E+00 0.  1.
         21   -1    0    0  503  502  0.00000000000E+00 -0.00000000000E+00 -0.13767564361E+03  0.13767564361E+03  0.00000000000E+00 0.  1.
         25    1    1    2    0    0 -0.28808021911E+02 -0.25944991514E+03  0.17735616946E+03  0.33944715559E+03  0.12500000000E+03 0.  0.
         21    1    1    2  503  501 -0.14137914041E+02  0.34855750343E+02 -0.33257481396E+02  0.50208206642E+02  0.00000000000E+00 0.  1.
          2    1    1    2  501    0  0.42945935953E+02  0.22459416480E+03  0.86255816140E+03  0.89235277446E+03  0.00000000000E+00 0.  1.
<mgrwt>
<rscale>  4 0.26493117E+03</rscale>
<asrwt>0</asrwt>
<pdfrwt beam="1">  1       21 0.21180869E-01 0.26493117E+03</pdfrwt>
<pdfrwt beam="2">  1        2 0.17605115E+00 0.26493117E+03</pdfrwt>
<totfact> 0.55503674E+03</totfact>
</mgrwt>
</event>
<event>
 5    0  0.3040647E+000  0.3122578E+03  0.7546771E-02  0.1079269E+00
          3   -1    0    0  502    0 -0.00000000000E+00  0.00000000000E+00  0.60299801695E+03  0.60299801695E+03  0.00000000000E+00 0. -1.
         21   -1    0    0  503  502  0.00000000000E+00 -0.00000000000E+00 -0.32413708525E+03  0.32413708525E+03  0.00000000000E+00 0. -1.
         25    1    1    2    0    0 -0.85232440205E+02 -0.26044174450E+03 -0.13022110386E+03  0.32814174838E+03  0.12500000000E+03 0.  0.
         21    1    1    2  503  501  0.46490070564E+02 -0.26064293114E+02 -0.38784770497E+02  0.65916101668E+02  0.00000000000E+00 0.  1.
          3    1    1    2  501    0  0.38742369642E+02  0.28650603761E+03  0.44786680606E+03  0.53307725215E+03  0.00000000000E+00 0. -1.
<mgrwt>
<rscale>  4 0.31225782E+03</rscale>
<asrwt>0</asrwt>
<pdfrwt beam="1">  1       21 0.49867244E-01 0.31225782E+03</pdfrwt>
<pdfrwt beam="2">  1        3 0.92768925E-01 0.31225782E+03</pdfrwt>
<totfact> 0.19784474E+02</totfact>
</mgrwt>
</event>
<event>
 5    0  0.3040647E+000  0.2619305E+03  0.7546771E-02  0.1105989E+00
          2   -1    0    0  502    0 -0.00000000000E+00  0.00000000000E+00  0.13829350864E+04  0.13829350864E+04  0.00000000000E+00 0. -1.
         21   -1    0    0  503  502  0.00000000000E+00 -0.00000000000E+00 -0.95824067426E+02  0.95824067426E+02  0.00000000000E+00 0. -1.
         25    1    1    2    0    0 -0.23841590096E+03  0.83223073311E+01  0.57227054116E+03  0.63247922883E+03  0.12500000000E+03 0.  0.
         21    1    1    2  503  501  0.14268992638E+02  0.20210888620E+02 -0.46198346903E+02  0.52405833896E+02  0.00000000000E+00 0. -1.
          2    1    1    2  501    0  0.22414690833E+03 -0.28533195951E+02  0.76103882477E+03  0.79387409114E+03  0.00000000000E+00 0. -1.
<mgrwt>
<rscale>  4 0.26193050E+03</rscale>
<asrwt>0</asrwt>
<pdfrwt beam="1">  1       21 0.14742165E-01 0.26193050E+03</pdfrwt>
<pdfrwt beam="2">  1        2 0.21275923E+00 0.26193050E+03</pdfrwt>
<totfact> 0.80124793E+03</totfact>
</mgrwt>
</event>
<event>
 5    0  0.3040647E+000  0.4194492E+03  0.7546771E-02  0.1037246E+00
          2   -1    0    0  502    0 -0.00000000000E+00  0.00000000000E+00  0.31044460743E+04  0.31044460743E+04  0.00000000000E+00 0.  1.
         21   -1    0    0  503  502  0.00000000000E+00 -0.00000000000E+00 -0.97858195442E+02  0.97858195442E+02  0.00000000000E+00 0. -1.
         25    1    1    2    0    0 -0.21254487299E+03  0.26606905340E+03  0.47922243993E+03  0.60103844398E+03  0.12500000000E+03 0.  0.
         21    1    1    2  503  501 -0.79347627582E+02  0.33394964586E+02  0.77087932076E+02  0.11555872505E+03  0.00000000000E+00 0. -1.
          2    1    1    2  501    0  0.29189250057E+03 -0.29946401798E+03  0.24502775068E+04  0.24857071007E+04  0.00000000000E+00 0.  1.
<mgrwt>
<rscale>  4 0.41944923E+03</rscale>
<asrwt>0</asrwt>
<pdfrwt beam="1">  1       21 0.15055109E-01 0.41944923E+03</pdfrwt>
<pdfrwt beam="2">  1        2 0.47760701E+00 0.41944923E+03</pdfrwt>
<totfact> 0.82100291E+02</totfact>
</mgrwt>
</event>
<event>
 5    0  0.3040647E+000  0.3033827E+03  0.7546771E-02  0.1083562E+00
         21   -1    0    0  503  502  0.00000000000E+00  0.00000000000E+00  0.35261840968E+03  0.35261840968E+03  0.00000000000E+00 0. -1.
          1   -1    0    0  502    0 -0.00000000000E+00 -0.00000000000E+00 -0.40316368261E+03  0.40316368261E+03  0.00000000000E+00 0. -1.
         25    1    1    2    0    0  0.23113676027E+03 -0.17437283598E+03  0.82629436450E+02  0.32601029377E+03  0.12500000000E+03 0.  0.
         21    1    1    2  503  501 -0.57114578473E+01  0.21664082872E+02  0.80563492791E+02  0.83620748670E+02  0.00000000000E+00 0. -1.
          1    1    1    2  501    0 -0.22542530242E+03  0.15270875311E+03 -0.21373820217E+03  0.34615104986E+03  0.00000000000E+00 0. -1.
<mgrwt>
<rscale>  4 0.30338272E+03</rscale>
<asrwt>0</asrwt>
<pdfrwt beam="1">  1       21 0.54248986E-01 0.30338272E+03</pdfrwt>
<pdfrwt beam="2">  1        1 0.62025182E-01 0.30338272E+03</pdfrwt>
<totfact> 0.20393490E+03</totfact>
</mgrwt>
</event>
<event>
 5    0  0.3040647E+000  0.3529060E+03  0.7546771E-02  0.1061429E+00
         -1   -1    0    0    0  501 -0.00000000000E+00  0.00000000000E+00  0.12791895207E+04  0.12791895207E+04  0.00000000000E+00 0. -1.
         21   -1    0    0  501  502  0.00000000000E+00 -0.00000000000E+00 -0.57652468162E+03  0.57652468162E+03  0.00000000000E+00 0. -1.
         25    1    1    2    0    0 -0.15208825327E+03  0.31382426172E+03 -0.39637838707E+03  0.54254707608E+03  0.12500000000E+03 0.  0.
         21    1    1    2  503  502  0.31412720300E+02 -0.75666086614E+01 -0.81457171116E+02  0.87631519954E+02  0.00000000000E+00 0. -1.
         -1    1    1    2    0  503  0.12067553297E+03 -0.30625765306E+03  0.11805003972E+04  0.12255356062E+04  0.00000000000E+00 0. -1.
<mgrwt>
<rscale>  4 0.35290600E+03</rscale>
<asrwt>0</asrwt>
<pdfrwt beam="1">  1       21 0.88696105E-01 0.35290600E+03</pdfrwt>
<pdfrwt beam="2">  1       -1 0.19679839E+00 0.35290600E+03</pdfrwt>
<totfact> 0.16324995E+01</totfact>
</mgrwt>
</event>
<event>
 5    0  0.3040647E+000  0.2820054E+03  0.7546771E-02  0.1094599E+00
         21   -1    0    0  503  502  0.00000000000E+00  0.00000000000E+00  0.21761395876E+03  0.21761395876E+03  0.00000000000E+00 0.  1.
          2   -1    0    0  502    0 -0.00000000000E+00 -0.00000000000E+00 -0.95449543014E+03  0.95449543014E+03  0.00000000000E+00 0. -1.
         25    1    1    2    0    0  0.20602372333E+03  0.80391233903E+01 -0.77010300968E+03  0.80696595195E+03  0.12500000000E+03 0.  0.
         21    1    1    2  503  501 -0.25712974261E+03  0.23814715259E+02  0.98455814215E+02  0.27636279155E+03  0.00000000000E+00 0.  1.
          2    1    1    2  501    0  0.51106019282E+02 -0.31853838650E+02 -0.65234275919E+02  0.88780645403E+02  0.00000000000E+00 0. -1.
<mgrwt>
<rscale>  4 0.28200542E+03</rscale>
<asrwt>0</asrwt>
<pdfrwt beam="1">  1       21 0.33479071E-01 0.28200542E+03</pdfrwt>
<pdfrwt beam="2">  1        2 0.14684545E+00 0.28200542E+03</pdfrwt>
<totfact> 0.29562911E+03</totfact>
</mgrwt>
</event>
<event>
 5    0  0.3040647E+000  0.2640851E+03  0.7546771E-02  0.1104713E+00
         21   -1    0    0  501  502  0.00000000000E+00  0.00000000000E+00  0.58813224134E+03  0.58813224134E+03  0.00000000000E+00 0. -1.
         -1   -1    0    0    0  501 -0.00000000000E+00 -0.00000000000E+00 -0.19203822345E+03  0.19203822345E+03  0.00000000000E+00 0. -1.
         25    1    1    2    0    0 -0.91343892296E+02 -0.23350177339E+03  0.14256293088E+03  0.31435008207E+03  0.12500000000E+03 0.  0.
         21    1    1    2  503  502  0.58145552549E+01  0.27263558574E+02  0.24056443131E+03  0.24217422714E+03  0.00000000000E+00 0. -1.
         -1    1    1    2    0  503  0.85529337042E+02  0.20623821482E+03  0.12966655707E+02  0.22364615558E+03  0.00000000000E+00 0. -1.
<mgrwt>
<rscale>  4 0.26408514E+03</rscale>
<asrwt>0</asrwt>
<pdfrwt beam="1">  1       21 0.90481883E-01 0.26408514E+03</pdfrwt>
<pdfrwt beam="2">  1       -1 0.29544342E-01 0.26408514E+03</pdfrwt>
<totfact> 0.96796476E+02</totfact>
</mgrwt>
</event>
<event>
 5    0  0.3040647E+000  0.2816992E+03  0.7546771E-02  0.1094764E+00
          2   -1    0    0  502    0 -0.00000000000E+00  0.00000000000E+00  0.16882150419E+04  0.16882150419E+04  0.00000000000E+00 0. -1.
         21   -1    0    0  503  502  0.00000000000E+00 -0.00000000000E+00 -0.59307798773E+02  0.59307798773E+02  0.00000000000E+00 0. -1.
         25    1    1    2    0    0 -0.18230110828E+03  0.15725117304E+03  0.40144317645E+03  0.48450309537E+03  0.12500000000E+03 0.  0.
         21    1    1    2  503  501  0.52070606725E+01  0.28473372026E+02  0.48768370838E+02  0.56711554287E+02  0.00000000000E+00 0. -1.
          2    1    1    2  501    0  0.17709404760E+03 -0.18572454507E+03  0.11786956958E+04  0.12063081910E+04  0.00000000000E+00 0. -1.
<mgrwt>
<rscale>  4 0.28169916E+03</rscale>
<asrwt>0</asrwt>
<pdfrwt beam="1">  1       21 0.91242780E-02 0.28169916E+03</pdfrwt>
<pdfrwt beam="2">  1        2 0.25972535E+00 0.28169916E+03</pdfrwt>
<totfact> 0.12971494E+04</totfact>
</mgrwt>
</event>
<event>
 5    0  0.3040647E+000  0.2192868E+03  0.7546771E-02  0.1134416E+00
          2   -1    0    0  502    0 -0.00000000000E+00  0.00000000000E+00  0.20330378254E+04  0.20330378254E+04  0.00000000000E+00 0.  1.
         21   -1    0    0  503  502  0.00000000000E+00 -0.00000000000E+00 -0.22425720412E+03  0.22425720412E+03  0.00000000000E+00 0. -1.
         25    1    1    2    0    0 -0.17075676961E+03 -0.15489853562E+03  0.20173871733E+02  0.26302740504E+03  0.12500000000E+03 0.  0.
         21    1    1    2  503  501  0.17918340528E+02  0.62579078412E+02 -0.87848043751E+02  0.10933657564E+03  0.00000000000E+00 0.  1.
          2    1    1    2  501    0  0.15283842908E+03  0.92319457206E+02  0.18764547933E+04  0.18849310488E+04  0.00000000000E+00 0.  1.
<mgrwt>
<rscale>  4 0.21928678E+03</rscale>
<asrwt>0</asrwt>
<pdfrwt beam="1">  1       21 0.34501110E-01 0.21928678E+03</pdfrwt>
<pdfrwt beam="2">  1        2 0.31277504E+00 0.21928678E+03</pdfrwt>
<totfact> 0.73579041E+02</totfact>
</mgrwt>
</event>
<event>
 5    0  0.3040647E+000  0.3066023E+03  0.7546771E-02  0.1081986E+00
         21   -1    0    0  503  502  0.00000000000E+00  0.00000000000E+00  0.10301587394E+03  0.10301587394E+03  0.00000000000E+00 0.  1.
          2   -1    0    0  502    0 -0.00000000000E+00 -0.00000000000E+00 -0.21783569928E+04  0.21783569928E+04  0.00000000000E+00 0.  1.
         25    1    1    2    0    0 -0.11569914163E+03 -0.36085724127E+03 -0.47786412406E+03  0.62256193348E+03  0.12500000000E+03 0.  0.
         21    1    1    2  503  501  0.27230020949E+02  0.20152928899E+03 -0.41252306523E+03  0.45992478484E+03  0.00000000000E+00 0.  1.
          2    1    1    2  501    0  0.88469120677E+02  0.15932795227E+03 -0.11849539295E+04  0.11988861484E+04  0.00000000000E+00 0.  1.
<mgrwt>
<rscale>  4 0.30660229E+03</rscale>
<asrwt>0</asrwt>
<pdfrwt beam="1">  1       21 0.15848598E-01 0.30660229E+03</pdfrwt>
<pdfrwt beam="2">  1        2 0.33513181E+00 0.30660229E+03</pdfrwt>
<totfact> 0.26115615E+03</totfact>
</mgrwt>
</event>
<event>
 5    0  0.3040647E+000  0.2030957E+03  0.7546771E-02  0.1147153E+00
         21   -1    0    0  503  502  0.00000000000E+00  0.00000000000E+00  0.19368204647E+03  0.19368204647E+03  0.00000000000E+00 0.  1.
          2   -1    0    0  502    0 -0.00000000000E+00 -0.00000000000E+00 -0.88882507410E+03  0.88882507410E+03  0.00000000000E+00 0.  1.
         25    1    1    2    0    0 -0.19546318462E+03 -0.47991813805E+02  0.64881862272E+02  0.24564960164E+03  0.12500000000E+03 0.  0.
         21    1    1    2  503  501  0.46525733822E+02 -0.47429915121E+01  0.12445531141E+02  0.48394536071E+02  0.00000000000E+00 0.  1.
          2    1    1    2  501    0  0.14893745080E+03  0.52734805317E+02 -0.77247042105E+03  0.78846298286E+03  0.00000000000E+00 0.  1.
<mgrwt>
<rscale>  4 0.20309567E+03</rscale>
<asrwt>0</asrwt>
<pdfrwt beam="1">  1       21 0.29797238E-01 0.20309567E+03</pdfrwt>
<pdfrwt beam="2">  1        2 0.13674232E+00 0.20309567E+03</pdfrwt>
<totfact> 0.42125587E+03</totfact>
</mgrwt>
</event>
<event>
 5    0  0.3040647E+000  0.2235957E+03  0.7546771E-02  0.1131230E+00
          1   -1    0    0  502    0 -0.00000000000E+00  0.00000000000E+00  0.55590625780E+03  0.55590625780E+03  0.00000000000E+00 0. -1.
         21   -1    0    0  503  502  0.00000000000E+00 -0.00000000000E+00 -0.33053496543E+03  0.33053496543E+03  0.00000000000E+00 0. -1.
         25    1    1    2    0    0  0.28309692815E+03 -0.63253304933E+01 -0.15265754201E+03  0.34512781063E+03  0.12500000000E+03 0.  0.
         21    1    1    2  503  501 -0.10566678042E+03  0.20098447850E+02 -0.16202750623E+02  0.10877474532E+03  0.00000000000E+00 0. -1.
          1    1    1    2  501    0 -0.17743014773E+03 -0.13773117356E+02  0.39423158501E+03  0.43253866729E+03  0.00000000000E+00 0. -1.
<mgrwt>
<rscale>  4 0.22359574E+03</rscale>
<asrwt>0</asrwt>
<pdfrwt beam="1">  1       21 0.50851533E-01 0.22359574E+03</pdfrwt>
<pdfrwt beam="2">  1        1 0.85524040E-01 0.22359574E+03</pdfrwt>
<totfact> 0.15713851E+03</totfact>
</mgrwt>
</event>
<event>
 5    0  0.3040647E+000  0.2486961E+03  0.7546771E-02  0.1114132E+00
         -1   -1    0    0    0  501 -0.00000000000E+00  0.00000000000E+00  0.15952523362E+03  0.15952523362E+03  0.00000000000E+00 0.  1.
         21   -1    0    0  501  502  0.00000000000E+00 -0.00000000000E+00 -0.11036766299E+04  0.11036766299E+04  0.00000000000E+00 0. -1.
         25    1    1    2    0    0 -0.21483750957E+03  0.91085885607E+02 -0.93362065875E+03  0.97042481858E+03  0.12500000000E+03 0.  0.
         21    1    1    2  503  502  0.37045736268E+02  0.27443336292E+02 -0.57796401076E+02  0.73932044878E+02  0.00000000000E+00 0.  1.
         -1    1    1    2    0  503  0.17779177331E+03 -0.11852922190E+03  0.47265663545E+02  0.21884500006E+03  0.00000000000E+00 0.  1.
<mgrwt>
<rscale>  4 0.24869610E+03</rscale>
<asrwt>0</asrwt>
<pdfrwt beam="1">  1       21 0.16979640E+00 0.24869610E+03</pdfrwt>
<pdfrwt beam="2">  1       -1 0.24542344E-01 0.24869610E+03</pdfrwt>
<totfact> 0.27046999E+02</totfact>
</mgrwt>
</event>
<event>
 5    0  0.3040647E+000  0.1881421E+03  0.7546771E-02  0.1160148E+00
         21   -1    0    0  503  502  0.00000000000E+00  0.00000000000E+00  0.25831252980E+03  0.25831252980E+03  0.00000000000E+00 0.  1.
          1   -1    0    0  502    0 -0.00000000000E+00 -0.00000000000E+00 -0.26176080849E+03  0.26176080849E+03  0.00000000000E+00 0.  1.
         25    1    1    2    0    0  0.75216958404E+02 -0.20409361412E+03 -0.43771084502E+01  0.25091024936E+03  0.12500000000E+03 0.  0.
         21    1    1    2  503  501 -0.82533537423E+02  0.89470884900E+02  0.64636918972E+02  0.13782146182E+03  0.00000000000E+00 0.  1.
          1    1    1    2  501    0  0.73165790191E+01  0.11462272922E+03 -0.63708089203E+02  0.13134162711E+03  0.00000000000E+00 0.  1.
<mgrwt>
<rscale>  4 0.18814215E+03</rscale>
<asrwt>0</asrwt>
<pdfrwt beam="1">  1       21 0.39740390E-01 0.18814215E+03</pdfrwt>
<pdfrwt beam="2">  1        1 0.40270893E-01 0.18814215E+03</pdfrwt>
<totfact> 0.69396547E+03</totfact>
</mgrwt>
</event>
<event>
 5    0  0.3040647E+000  0.3512407E+03  0.7546771E-02  0.1062107E+00
          2   -1    0    0  502    0 -0.00000000000E+00  0.00000000000E+00  0.93897771253E+03  0.93897771253E+03  0.00000000000E+00 0.  1.
         21   -1    0    0  503  502  0.00000000000E+00 -0.00000000000E+00 -0.36966817021E+03  0.36966817021E+03  0.00000000000E+00 0.  1.
         25    1    1    2    0    0 -0.25389945260E+03 -0.17167727028E+03 -0.20727650424E+03  0.39054649707E+03  0.12500000000E+03 0.  0.
         21    1    1    2  503  501 -0.44506712493E+00 -0.39792794296E+02 -0.27676768479E+02  0.48473374920E+02  0.00000000000E+00 0.  1.
          2    1    1    2  501    0  0.25434451973E+03  0.21147006458E+03  0.80426281503E+03  0.86962601075E+03  0.00000000000E+00 0.  1.
<mgrwt>
<rscale>  4 0.35124072E+03</rscale>
<asrwt>0</asrwt>
<pdfrwt beam="1">  1       21 0.56872027E-01 0.35124072E+03</pdfrwt>
<pdfrwt beam="2">  1        2 0.14445811E+00 0.35124072E+03</pdfrwt>
<totfact> 0.98710122E+02</totfact>
</mgrwt>
</event>
<event>
 5    0  0.3040647E+000  0.2898648E+03  0.7546771E-02  0.1090420E+00
         21   -1    0    0  501  502  0.00000000000E+00  0.00000000000E+00  0.15837826971E+04  0.15837826971E+04  0.00000000000E+00 0. -1.
         -3   -1    0    0    0  501 -0.00000000000E+00 -0.00000000000E+00 -0.82048453760E+02  0.82048453760E+02  0.00000000000E+00 0. -1.
         25    1    1    2    0    0 -0.24812493439E+03 -0.34026109904E+02  0.12275341172E+04  0.12590427984E+04  0.12500000000E+03 0.  0.
         21    1    1    2  503  502 -0.15352157120E+02  0.16654622596E+02  0.68275648690E+02  0.71934896859E+02  0.00000000000E+00 0. -1.
         -3    1    1    2    0  503  0.26347709151E+03  0.17371487308E+02  0.20592447739E+03  0.33485345558E+03  0.00000000000E+00 0. -1.
<mgrwt>
<rscale>  4 0.28986476E+03</rscale>
<asrwt>0</asrwt>
<pdfrwt beam="1">  1       21 0.24365885E+00 0.28986476E+03</pdfrwt>
<pdfrwt beam="2">  1       -3 0.12622840E-01 0.28986476E+03</pdfrwt>
<totfact> 0.16930256E+02</totfact>
</mgrwt>
</event>
<event>
 5    0  0.3040647E+000  0.3363121E+03  0.7546771E-02  0.1068378E+00
         21   -1    0    0  503  502  0.00000000000E+00  0.00000000000E+00  0.94575981519E+02  0.94575981519E+02  0.00000000000E+00 0. -1.
          2   -1    0    0  502    0 -0.00000000000E+00 -0.00000000000E+00 -0.19820632458E+04  0.19820632458E+04  0.00000000000E+00 0. -1.
         25    1    1    2    0    0 -0.12111633135E+03  0.29304279303E+03 -0.15668829399E+04  0.16035243658E+04  0.12500000000E+03 0.  0.
         21    1    1    2  503  501  0.26026730639E+02 -0.11136912286E+02  0.84124293613E+01  0.29532871361E+02  0.00000000000E+00 0. -1.
          2    1    1    2  501    0  0.95089600707E+02 -0.28190588074E+03 -0.32901675367E+03  0.44358199011E+03  0.00000000000E+00 0. -1.
<mgrwt>
<rscale>  4 0.33631212E+03</rscale>
<asrwt>0</asrwt>
<pdfrwt beam="1">  1       21 0.14550151E-01 0.33631212E+03</pdfrwt>
<pdfrwt beam="2">  1        2 0.30493282E+00 0.33631212E+03</pdfrwt>
<totfact> 0.38480235E+03</totfact>
</mgrwt>
</event>
<event>
 5    0  0.3040647E+000  0.1749057E+03  0.7546771E-02  0.1172826E+00
          1   -1    0    0  502    0 -0.00000000000E+00  0.00000000000E+00  0.11450278554E+04  0.11450278554E+04  0.00000000000E+00 0.  1.
         21   -1    0    0  503  502  0.00000000000E+00 -0.00000000000E+00 -0.19003558375E+03  0.19003558375E+03  0.00000000000E+00 0.  1.
         25    1    1    2    0    0 -0.41583006737E+02  0.22970734891E+03  0.87847820321E+01  0.26494675878E+03  0.12500000000E+03 0.  0.
         21    1    1    2  503  501  0.37215552890E+01 -0.11671833537E+03  0.34580739881E+00  0.11677816306E+03  0.00000000000E+00 0.  1.
          1    1    1    2  501    0  0.37861451448E+02 -0.11298901354E+03  0.94586168223E+03  0.95333851732E+03  0.00000000000E+00 0.  1.
<mgrwt>
<rscale>  4 0.17490565E+03</rscale>
<asrwt>0</asrwt>
<pdfrwt beam="1">  1       21 0.29236244E-01 0.17490565E+03</pdfrwt>
<pdfrwt beam="2">  1        1 0.17615813E+00 0.17490565E+03</pdfrwt>
<totfact> 0.15983809E+03</totfact>
</mgrwt>
</event>
<event>
 5    0  0.3040647E+000  0.4414485E+03  0.7546771E-02  0.1030303E+00
          1   -1    0    0  502    0 -0.00000000000E+00  0.00000000000E+00  0.13279865620E+04  0.13279865620E+04  0.00000000000E+00 0. -1.
         21   -1    0    0  503  502  0.00000000000E+00 -0.00000000000E+00 -0.50136627836E+03  0.50136627836E+03  0.00000000000E+00 0. -1.
         25    1    1    2    0    0 -0.39679550037E+03  0.37290962144E+02 -0.32620679918E+03  0.52997467940E+03  0.12500000000E+03 0.  0.
         21    1    1    2  503  501 -0.25003779977E+02  0.19164212878E+02 -0.29276191798E+02  0.43006412017E+02  0.00000000000E+00 0.  1.
          1    1    1    2  501    0  0.42179928035E+03 -0.56455175022E+02  0.11821032746E+04  0.12563717489E+04  0.00000000000E+00 0. -1.
<mgrwt>
<rscale>  4 0.44144849E+03</rscale>
<asrwt>0</asrwt>
<pdfrwt beam="1">  1       21 0.77133274E-01 0.44144849E+03</pdfrwt>
<pdfrwt beam="2">  1        1 0.20430562E+00 0.44144849E+03</pdfrwt>
<totfact> 0.13784099E+02</totfact>
</mgrwt>
</event>
<event>
 5    0  0.3040647E+000  0.2234930E+03  0.7546771E-02  0.1131305E+00
          2   -1    0    0  502    0 -0.00000000000E+00  0.00000000000E+00  0.28293534786E+03  0.28293534786E+03  0.00000000000E+00 0.  1.
         21   -1    0    0  503  502  0.00000000000E+00 -0.00000000000E+00 -0.32769744096E+03  0.32769744096E+03  0.00000000000E+00 0. -1.
         25    1    1    2    0    0 -0.12471420830E+03  0.16587127112E+03 -0.21254910445E+03  0.32228719202E+03  0.12500000000E+03 0.  0.
         21    1    1    2  503  501  0.28655923858E+02 -0.11059046756E+02 -0.11437983880E+02  0.32776393373E+02  0.00000000000E+00 0. -1.
          2    1    1    2  501    0  0.96058284447E+02 -0.15481222437E+03  0.17922499523E+03  0.25556920342E+03  0.00000000000E+00 0.  1.
<mgrwt>
<rscale>  4 0.22349304E+03</rscale>
<asrwt>0</asrwt>
<pdfrwt beam="1">  1       21 0.50414991E-01 0.22349304E+03</pdfrwt>
<pdfrwt beam="2">  1        2 0.43528515E-01 0.22349304E+03</pdfrwt>
<totfact> 0.53598278E+03</totfact>
</mgrwt>
</event>
<event>
 5    0  0.3040647E+000  0.2370893E+03  0.7546771E-02  0.1121747E+00
         21   -1    0    0  503  502  0.00000000000E+00  0.00000000000E+00  0.15319736062E+04  0.15319736062E+04  0.00000000000E+00 0.  1.
          4   -1    0    0  502    0 -0.00000000000E+00 -0.00000000000E+00 -0.58105825359E+02  0.58105825359E+02  0.00000000000E+00 0.  1.
         25    1    1    2    0    0  0.12142172463E+03  0.18429614667E+03  0.57272578424E+03  0.62637698619E+03  0.12500000000E+03 0.  0.
         21    1    1    2  503  501 -0.30121541036E+02 -0.15253271748E+02  0.63266033540E+03  0.63356062813E+03  0.00000000000E+00 0.  1.
          4    1    1    2  501    0 -0.91300183593E+02 -0.16904287493E+03  0.26848166119E+03  0.33014181723E+03  0.00000000000E+00 0.  1.
<mgrwt>
<rscale>  4 0.23708928E+03</rscale>
<asrwt>0</asrwt>
<pdfrwt beam="1">  1       21 0.23568822E+00 0.23708928E+03</pdfrwt>
<pdfrwt beam="2">  1        4 0.89393589E-02 0.23708928E+03</pdfrwt>
<totfact> 0.30630590E+02</totfact>
</mgrwt>
</event>
<event>
 5    0  0.3040647E+000  0.3400521E+03  0.7546771E-02  0.1066774E+00
         21   -1    0    0  501  502  0.00000000000E+00  0.00000000000E+00  0.26909941044E+03  0.26909941044E+03  0.00000000000E+00 0.  1.
         -4   -1    0    0    0  501 -0.00000000000E+00 -0.00000000000E+00 -0.56352183442E+03  0.56352183442E+03  0.00000000000E+00 0. -1.
         25    1    1    2    0    0  0.28360556119E+03 -0.19489407925E+03 -0.46272501786E+02  0.36902840119E+03  0.12500000000E+03 0.  0.
         21    1    1    2  503  502 -0.23782533466E+02  0.35654898498E+02  0.28939709315E+02  0.51714480180E+02  0.00000000000E+00 0.  1.
         -4    1    1    2    0  503 -0.25982302772E+03  0.15923918076E+03 -0.27708963150E+03  0.41187836349E+03  0.00000000000E+00 0. -1.
<mgrwt>
<rscale>  4 0.34005209E+03</rscale>
<asrwt>0</asrwt>
<pdfrwt beam="1">  1       21 0.41399909E-01 0.34005209E+03</pdfrwt>
<pdfrwt beam="2">  1       -4 0.86695667E-01 0.34005209E+03</pdfrwt>
<totfact> 0.27561312E+02</totfact>
</mgrwt>
</event>
<event>
 5    0  0.3040647E+000  0.2562453E+03  0.7546771E-02  0.1109420E+00
         21   -1    0    0  503  502  0.00000000000E+00  0.00000000000E+00  0.57192859321E+03  0.57192859321E+03  0.00000000000E+00 0. -1.
          2   -1    0    0  502    0 -0.00000000000E+00 -0.00000000000E+00 -0.13565949077E+03  0.13565949077E+03  0.00000000000E+00 0. -1.
         25    1    1    2    0    0  0.33720719058E+01  0.21149125265E+03  0.17531174362E+03  0.30182632136E+03  0.12500000000E+03 0.  0.
         21    1    1    2  503  501 -0.39887421638E+01  0.21927842203E+02  0.14207331008E+03  0.14381086804E+03  0.00000000000E+00 0. -1.
          2    1    1    2  501    0  0.61667025800E+00 -0.23341909486E+03  0.11888404873E+03  0.26195089457E+03  0.00000000000E+00 0. -1.
<mgrwt>
<rscale>  4 0.25624534E+03</rscale>
<asrwt>0</asrwt>
<pdfrwt beam="1">  1       21 0.87989013E-01 0.25624534E+03</pdfrwt>
<pdfrwt beam="2">  1        2 0.20870691E-01 0.25624534E+03</pdfrwt>
<totfact> 0.35106201E+03</totfact>
</mgrwt>
</event>
<event>
 5    0  0.3040647E+000  0.2516264E+03  0.7546771E-02  0.1112281E+00
         21   -1    0    0  501  502  0.00000000000E+00  0.00000000000E+00  0.17798053521E+03  0.17798053521E+03  0.00000000000E+00 0.  1.
         -4   -1    0    0    0  501 -0.00000000000E+00 -0.00000000000E+00 -0.20038769985E+04  0.20038769985E+04  0.00000000000E+00 0.  1.
         25    1    1    2    0    0 -0.19891821776E+03 -0.11187866114E+03 -0.14917331809E+04  0.15142582921E+04  0.12500000000E+03 0.  0.
         21    1    1    2  503  502  0.20071399645E+03  0.85022033610E+02  0.94865166246E+02  0.23772726882E+03  0.00000000000E+00 0.  1.
         -4    1    1    2    0  503 -0.17957786938E+01  0.26856627525E+02 -0.42902844858E+03  0.42987197275E+03  0.00000000000E+00 0.  1.
<mgrwt>
<rscale>  4 0.25162638E+03</rscale>
<asrwt>0</asrwt>
<pdfrwt beam="1">  1       21 0.27381622E-01 0.25162638E+03</pdfrwt>
<pdfrwt beam="2">  1       -4 0.30828875E+00 0.25162638E+03</pdfrwt>
<totfact> 0.17167410E+01</totfact>
</mgrwt>
</event>
<event>
 5    0  0.3040647E+000  0.3621310E+03  0.7546771E-02  0.1057743E+00
          2   -1    0    0  502    0 -0.00000000000E+00  0.00000000000E+00  0.31764055141E+03  0.31764055141E+03  0.00000000000E+00 0.  1.
         21   -1    0    0  503  502  0.00000000000E+00 -0.00000000000E+00 -0.49557052627E+03  0.49557052627E+03  0.00000000000E+00 0.  1.
         25    1    1    2    0    0  0.34034462577E+03  0.75682585591E+02 -0.22812129003E+03  0.43500188622E+03  0.12500000000E+03 0.  0.
         21    1    1    2  503  501 -0.17251464272E+02  0.18302813711E+02 -0.22743755076E+02  0.33909945506E+02  0.00000000000E+00 0.  1.
          2    1    1    2  501    0 -0.32309316150E+03 -0.93985399303E+02  0.72935070245E+02  0.34429924595E+03  0.00000000000E+00 0.  1.
<mgrwt>
<rscale>  4 0.36213104E+03</rscale>
<asrwt>0</asrwt>
<pdfrwt beam="1">  1       21 0.76241619E-01 0.36213104E+03</pdfrwt>
<pdfrwt beam="2">  1        2 0.48867777E-01 0.36213104E+03</pdfrwt>
<totfact> 0.18503170E+03</totfact>
</mgrwt>
</event>
<event>
 5    0  0.3040647E+000  0.2227054E+03  0.7546771E-02  0.1131882E+00
         21   -1    0    0  501  502  0.00000000000E+00  0.00000000000E+00  0.54412937623E+03  0.54412937623E+03  0.00000000000E+00 0. -1.
         -1   -1    0    0    0  501 -0.00000000000E+00 -0.00000000000E+00 -0.21615360321E+03  0.21615360321E+03  0.00000000000E+00 0. -1.
         25    1    1    2    0    0  0.22061358892E+03 -0.30407749117E+02  0.39380336550E+03  0.46936241594E+03  0.12500000000E+03 0.  0.
         21    1    1    2  503  502 -0.48811453162E+02 -0.24309120969E+02  0.52145816831E+02  0.75449834560E+02  0.00000000000E+00 0.  1.
         -1    1    1    2    0  503 -0.17180213576E+03  0.54716870086E+02 -0.11797340930E+03  0.21547072893E+03  0.00000000000E+00 0. -1.
<mgrwt>
<rscale>  4 0.22270545E+03</rscale>
<asrwt>0</asrwt>
<pdfrwt beam="1">  1       21 0.83712211E-01 0.22270545E+03</pdfrwt>
<pdfrwt beam="2">  1       -1 0.33254401E-01 0.22270545E+03</pdfrwt>
<totfact> 0.96034723E+02</totfact>
</mgrwt>
</event>
<event>
 5    0  0.3040647E+000  0.2389079E+03  0.7546771E-02  0.1120523E+00
         21   -1    0    0  503  502  0.00000000000E+00  0.00000000000E+00  0.17926715496E+03  0.17926715496E+03  0.00000000000E+00 0. -1.
          2   -1    0    0  502    0 -0.00000000000E+00 -0.00000000000E+00 -0.51890945930E+03  0.51890945930E+03  0.00000000000E+00 0. -1.
         25    1    1    2    0    0 -0.16797884856E+02 -0.23658449779E+03 -0.31789193011E+03  0.41585414842E+03  0.12500000000E+03 0.  0.
         21    1    1    2  503  501 -0.25721850536E+01  0.19656709795E+03  0.45428281764E+02  0.20176463742E+03  0.00000000000E+00 0. -1.
          2    1    1    2  501    0  0.19370069910E+02  0.40017399842E+02 -0.67178655989E+02  0.80557828415E+02  0.00000000000E+00 0. -1.
<mgrwt>
<rscale>  4 0.23890785E+03</rscale>
<asrwt>0</asrwt>
<pdfrwt beam="1">  1       21 0.27579563E-01 0.23890785E+03</pdfrwt>
<pdfrwt beam="2">  1        2 0.79832224E-01 0.23890785E+03</pdfrwt>
<totfact> 0.92775384E+03</totfact>
</mgrwt>
</event>
<event>
 5    0  0.3040647E+000  0.2559907E+03  0.7546771E-02  0.1109576E+00
         21   -1    0    0  503  502  0.00000000000E+00  0.00000000000E+00  0.20902027565E+04  0.20902027565E+04  0.00000000000E+00 0.  1.
          2   -1    0    0  502    0 -0.00000000000E+00 -0.00000000000E+00 -0.43466006286E+03  0.43466006286E+03  0.00000000000E+00 0. -1.
         25    1    1    2    0    0 -0.34546649482E+03  0.32518086984E+02  0.84179805705E+03  0.91905032173E+03  0.12500000000E+03 0.  0.
         21    1    1    2  503  501  0.19672218686E+03  0.25369589930E+02  0.11851127513E+04  0.12015970490E+04  0.00000000000E+00 0.  1.
          2    1    1    2  501    0  0.14874430796E+03 -0.57887676914E+02 -0.37136811471E+03  0.40421544863E+03  0.00000000000E+00 0. -1.
<mgrwt>
<rscale>  4 0.25599068E+03</rscale>
<asrwt>0</asrwt>
<pdfrwt beam="1">  1       21 0.32156965E+00 0.25599068E+03</pdfrwt>
<pdfrwt beam="2">  1        2 0.66870780E-01 0.25599068E+03</pdfrwt>
<totfact> 0.21567013E+01</totfact>
</mgrwt>
</event>
<event>
 5    0  0.3040647E+000  0.2193207E+03  0.7546771E-02  0.1134391E+00
         21   -1    0    0  503  502  0.00000000000E+00  0.00000000000E+00  0.19430342728E+04  0.19430342728E+04  0.00000000000E+00 0. -1.
          1   -1    0    0  502    0 -0.00000000000E+00 -0.00000000000E+00 -0.17646073735E+03  0.17646073735E+03  0.00000000000E+00 0.  1.
         25    1    1    2    0    0 -0.77596923364E+02  0.22972953899E+03  0.37139089887E+03  0.46081790695E+03  0.12500000000E+03 0.  0.
         21    1    1    2  503  501 -0.83308758908E+01 -0.17459651848E+03  0.15012885631E+04  0.15114300174E+04  0.00000000000E+00 0. -1.
          1    1    1    2  501    0  0.85927799254E+02 -0.55133020511E+02 -0.10610592653E+03  0.14724708581E+03  0.00000000000E+00 0.  1.
<mgrwt>
<rscale>  4 0.21932067E+03</rscale>
<asrwt>0</asrwt>
<pdfrwt beam="1">  1       21 0.29892833E+00 0.21932067E+03</pdfrwt>
<pdfrwt beam="2">  1        1 0.27147807E-01 0.21932067E+03</pdfrwt>
<totfact> 0.62561515E+01</totfact>
</mgrwt>
</event>
<event>
 5    0  0.3638329E+000  0.2569441E+03  0.7546771E-02  0.1108993E+00
         -4   -1    0    0    0  501 -0.00000000000E+00  0.00000000000E+00  0.35485024363E+03  0.35485024363E+03  0.00000000000E+00 0. -1.
         21   -1    0    0  501  502  0.00000000000E+00 -0.00000000000E+00 -0.38080453695E+03  0.38080453695E+03  0.00000000000E+00 0. -1.
         25    1    1    2    0    0  0.17495155999E+03  0.12962614928E+03 -0.27208755240E+03  0.37022644839E+03  0.12500000000E+03 0.  0.
         21    1    1    2  503  502  0.18519520127E+02 -0.13767695404E+02 -0.91333764758E+01  0.24818151187E+02  0.00000000000E+00 0.  1.
         -4    1    1    2    0  503 -0.19347108012E+03 -0.11585845388E+03  0.25526663555E+03  0.34061018100E+03  0.00000000000E+00 0. -1.
<mgrwt>
<rscale>  4 0.25694409E+03</rscale>
<asrwt>0</asrwt>
<pdfrwt beam="1">  1       21 0.58585313E-01 0.25694409E+03</pdfrwt>
<pdfrwt beam="2">  1       -4 0.54592345E-01 0.25694409E+03</pdfrwt>
<totfact> 0.36830347E+02</totfact>
</mgrwt>
</event>
<event>
 5    0  0.3040647E+000  0.2487668E+03  0.7546771E-02  0.1114087E+00
         -4   -1    0    0    0  501 -0.00000000000E+00  0.00000000000E+00  0.34540600312E+03  0.34540600312E+03  0.00000000000E+00 0.  1.
         21   -1    0    0  501  502  0.00000000000E+00 -0.00000000000E+00 -0.12206751191E+04  0.12206751191E+04  0.00000000000E+00 0. -1.
         25    1    1    2    0    0  0.83717910188E+02 -0.22542678079E+03 -0.11394294441E+04  0.11712174777E+04  0.12500000000E+03 0.  0.
         21    1    1    2  503  502 -0.55991378478E+01  0.25869496696E+02 -0.24014607167E+02  0.35739090102E+02  0.00000000000E+00 0.  1.
         -4    1    1    2    0  503 -0.78118772340E+02  0.19955728409E+03  0.28817493532E+03  0.35912455440E+03  0.00000000000E+00 0.  1.
<mgrwt>
<rscale>  4 0.24876680E+03</rscale>
<asrwt>0</asrwt>
<pdfrwt beam="1">  1       21 0.18779617E+00 0.24876680E+03</pdfrwt>
<pdfrwt beam="2">  1       -4 0.53139386E-01 0.24876680E+03</pdfrwt>
<totfact> 0.22525349E+01</totfact>
</mgrwt>
</event>
<event>
 5    0  0.3040647E+000  0.2275333E+03  0.7546771E-02  0.1128388E+00
         21   -1    0    0  503  502  0.00000000000E+00  0.00000000000E+00  0.14407939180E+04  0.14407939180E+04  0.00000000000E+00 0.  1.
          3   -1    0    0  502    0 -0.00000000000E+00 -0.00000000000E+00 -0.31381377691E+03  0.31381377691E+03  0.00000000000E+00 0.  1.
         25    1    1    2    0    0 -0.81686376178E+02 -0.30168590938E+03  0.64991026583E+03  0.73191215702E+03  0.12500000000E+03 0.  0.
         21    1    1    2  503  501  0.72499274324E+02  0.11716363966E+03  0.71121577920E+03  0.72443864324E+03  0.00000000000E+00 0.  1.
          3    1    1    2  501    0  0.91871018539E+01  0.18452226972E+03 -0.23414590395E+03  0.29825689464E+03  0.00000000000E+00 0.  1.
<mgrwt>
<rscale>  4 0.22753330E+03</rscale>
<asrwt>0</asrwt>
<pdfrwt beam="1">  1       21 0.22166060E+00 0.22753330E+03</pdfrwt>
<pdfrwt beam="2">  1        3 0.48279043E-01 0.22753330E+03</pdfrwt>
<totfact> 0.20267853E+01</totfact>
</mgrwt>
</event>
<event>
 5    0  0.3040647E+000  0.3263518E+03  0.7546771E-02  0.1072763E+00
          2   -1    0    0  502    0 -0.00000000000E+00  0.00000000000E+00  0.26232170316E+04  0.26232170316E+04  0.00000000000E+00 0. -1.
         21   -1    0    0  503  502  0.00000000000E+00 -0.00000000000E+00 -0.74607559429E+02  0.74607559429E+02  0.00000000000E+00 0.  1.
         25    1    1    2    0    0 -0.19614857941E+03 -0.16272131090E+03  0.33040621438E+03  0.43559815969E+03  0.12500000000E+03 0.  0.
         21    1    1    2  503  501 -0.22463261304E+02 -0.59513153857E+02  0.83957231014E+02  0.10533389877E+03  0.00000000000E+00 0.  1.
          2    1    1    2  501    0  0.21861184071E+03  0.22223446476E+03  0.21342460268E+04  0.21568925326E+04  0.00000000000E+00 0. -1.
<mgrwt>
<rscale>  4 0.32635180E+03</rscale>
<asrwt>0</asrwt>
<pdfrwt beam="1">  1       21 0.11478088E-01 0.32635180E+03</pdfrwt>
<pdfrwt beam="2">  1        2 0.40357178E+00 0.32635180E+03</pdfrwt>
<totfact> 0.26710526E+03</totfact>
</mgrwt>
</event>
<event>
 5    0  0.3040647E+000  0.3332704E+03  0.7546771E-02  0.1069699E+00
         21   -1    0    0  503  502  0.00000000000E+00  0.00000000000E+00  0.12670632263E+03  0.12670632263E+03  0.00000000000E+00 0.  1.
          2   -1    0    0  502    0 -0.00000000000E+00 -0.00000000000E+00 -0.93781789475E+03  0.93781789475E+03  0.00000000000E+00 0.  1.
         25    1    1    2    0    0 -0.31620357093E+02 -0.30233807818E+03 -0.45518402461E+03  0.56144960304E+03  0.12500000000E+03 0.  0.
         21    1    1    2  503  501 -0.34791524874E+02 -0.62702759832E+01 -0.14878979904E+02  0.38355581171E+02  0.00000000000E+00 0.  1.
          2    1    1    2  501    0  0.66411881968E+02  0.30860835416E+03 -0.34104856761E+03  0.46471903317E+03  0.00000000000E+00 0.  1.
<mgrwt>
<rscale>  4 0.33327044E+03</rscale>
<asrwt>0</asrwt>
<pdfrwt beam="1">  1       21 0.19493281E-01 0.33327044E+03</pdfrwt>
<pdfrwt beam="2">  1        2 0.14427968E+00 0.33327044E+03</pdfrwt>
<totfact> 0.85221420E+03</totfact>
</mgrwt>
</event>
<event>
 5    0  0.3040647E+000  0.2823272E+03  0.7546771E-02  0.1094425E+00
          2   -1    0    0  502    0 -0.00000000000E+00  0.00000000000E+00  0.68552484507E+03  0.68552484507E+03  0.00000000000E+00 0. -1.
         21   -1    0    0  503  502  0.00000000000E+00 -0.00000000000E+00 -0.18658242159E+03  0.18658242159E+03  0.00000000000E+00 0. -1.
         25    1    1    2    0    0  0.43966744807E+02 -0.24205982509E+03  0.77668949147E+02  0.28667664577E+03  0.12500000000E+03 0.  0.
         21    1    1    2  503  501 -0.28985879808E+02 -0.13323399985E+02 -0.44069487048E+02  0.54404171753E+02  0.00000000000E+00 0. -1.
          2    1    1    2  501    0 -0.14980864999E+02  0.25538322507E+03  0.46534296138E+03  0.53102644913E+03  0.00000000000E+00 0. -1.
<mgrwt>
<rscale>  4 0.28232719E+03</rscale>
<asrwt>0</asrwt>
<pdfrwt beam="1">  1       21 0.28704988E-01 0.28232719E+03</pdfrwt>
<pdfrwt beam="2">  1        2 0.10546536E+00 0.28232719E+03</pdfrwt>
<totfact> 0.61399035E+03</totfact>
</mgrwt>
</event>
<event>
 5    0  0.3040647E+000  0.3843709E+03  0.7546771E-02  0.1049330E+00
         21   -1    0    0  503  502  0.00000000000E+00  0.00000000000E+00  0.51279322956E+03  0.51279322956E+03  0.00000000000E+00 0. -1.
          2   -1    0    0  502    0 -0.00000000000E+00 -0.00000000000E+00 -0.11939699882E+04  0.11939699882E+04  0.00000000000E+00 0.  1.
         25    1    1    2    0    0 -0.23813127512E+03  0.21688358940E+03 -0.11587470759E+03  0.36441314933E+03  0.12500000000E+03 0.  0.
         21    1    1    2  503  501 -0.60320968634E+02  0.12034447712E+02  0.34864537455E+03  0.35402972245E+03  0.00000000000E+00 0. -1.
          2    1    1    2  501    0  0.29845224375E+03 -0.22891803712E+03 -0.91394742563E+03  0.98832034601E+03  0.00000000000E+00 0.  1.
<mgrwt>
<rscale>  4 0.38437095E+03</rscale>
<asrwt>0</asrwt>
<pdfrwt beam="1">  1       21 0.78891266E-01 0.38437095E+03</pdfrwt>
<pdfrwt beam="2">  1        2 0.18368769E+00 0.38437095E+03</pdfrwt>
<totfact> 0.33003832E+02</totfact>
</mgrwt>
</event>
<event>
 5    0  0.3040647E+000  0.2056236E+03  0.7546771E-02  0.1145079E+00
         21   -1    0    0  503  502  0.00000000000E+00  0.00000000000E+00  0.10340723700E+03  0.10340723700E+03  0.00000000000E+00 0. -1.
          2   -1    0    0  502    0 -0.00000000000E+00 -0.00000000000E+00 -0.29883214789E+04  0.29883214789E+04  0.00000000000E+00 0.  1.
         25    1    1    2    0    0 -0.11753973697E+03 -0.17861929732E+03 -0.22155763251E+03  0.33231495251E+03  0.12500000000E+03 0.  0.
         21    1    1    2  503  501  0.30126884613E+02  0.43331260470E+02  0.30360695880E+02  0.60885130900E+02  0.00000000000E+00 0. -1.
          2    1    1    2  501    0  0.87412852356E+02  0.13528803685E+03 -0.26937173053E+04  0.26985286325E+04  0.00000000000E+00 0.  1.
<mgrwt>
<rscale>  4 0.20562361E+03</rscale>
<asrwt>0</asrwt>
<pdfrwt beam="1">  1       21 0.15908805E-01 0.20562361E+03</pdfrwt>
<pdfrwt beam="2">  1        2 0.45974179E+00 0.20562361E+03</pdfrwt>
<totfact> 0.97327383E+02</totfact>
</mgrwt>
</event>
<event>
 5    0  0.3040647E+000  0.2576236E+03  0.7546771E-02  0.1108579E+00
         21   -1    0    0  503  502  0.00000000000E+00  0.00000000000E+00  0.86060487631E+02  0.86060487631E+02  0.00000000000E+00 0.  1.
          2   -1    0    0  502    0 -0.00000000000E+00 -0.00000000000E+00 -0.18245796711E+04  0.18245796711E+04  0.00000000000E+00 0.  1.
         25    1    1    2    0    0 -0.24128501500E+03  0.44036164312E+02 -0.35864923181E+03  0.45211935781E+03  0.12500000000E+03 0.  0.
         21    1    1    2  503  501  0.11857327299E+03 -0.22437271359E+03 -0.70588637229E+03  0.75011886142E+03  0.00000000000E+00 0.  1.
          2    1    1    2  501    0  0.12271174201E+03  0.18033654928E+03 -0.67398357937E+03  0.70840193951E+03  0.00000000000E+00 0.  1.
<mgrwt>
<rscale>  4 0.25762363E+03</rscale>
<asrwt>0</asrwt>
<pdfrwt beam="1">  1       21 0.13240076E-01 0.25762363E+03</pdfrwt>
<pdfrwt beam="2">  1        2 0.28070455E+00 0.25762363E+03</pdfrwt>
<totfact> 0.56853731E+03</totfact>
</mgrwt>
</event>
<event>
 5    0  0.3040647E+000  0.1941060E+03  0.7546771E-02  0.1154809E+00
          1   -1    0    0  502    0 -0.00000000000E+00  0.00000000000E+00  0.20156847568E+03  0.20156847568E+03  0.00000000000E+00 0. -1.
         21   -1    0    0  503  502  0.00000000000E+00 -0.00000000000E+00 -0.58144886980E+03  0.58144886980E+03  0.00000000000E+00 0. -1.
         25    1    1    2    0    0  0.17043281241E+03  0.14580409416E+03 -0.30692460040E+03  0.40016732469E+03  0.12500000000E+03 0.  0.
         21    1    1    2  503  501 -0.42472518612E+02 -0.85029372251E+02 -0.18116893115E+03  0.20458761105E+03  0.00000000000E+00 0. -1.
          1    1    1    2  501    0 -0.12796029380E+03 -0.60774721910E+02  0.10821313743E+03  0.17826240973E+03  0.00000000000E+00 0. -1.
<mgrwt>
<rscale>  4 0.19410602E+03</rscale>
<asrwt>0</asrwt>
<pdfrwt beam="1">  1       21 0.89453672E-01 0.19410602E+03</pdfrwt>
<pdfrwt beam="2">  1        1 0.31010535E-01 0.19410602E+03</pdfrwt>
<totfact> 0.16772800E+03</totfact>
</mgrwt>
</event>
<event>
 5    0  0.3040647E+000  0.2686808E+03  0.7546771E-02  0.1102037E+00
         21   -1    0    0  503  502  0.00000000000E+00  0.00000000000E+00  0.43111651029E+03  0.43111651029E+03  0.00000000000E+00 0. -1.
          2   -1    0    0  502    0 -0.00000000000E+00 -0.00000000000E+00 -0.22977918406E+03  0.22977918406E+03  0.00000000000E+00 0. -1.
         25    1    1    2    0    0 -0.20304288180E+03  0.11382354426E+03  0.25623657636E+03  0.36805487925E+03  0.12500000000E+03 0.  0.
         21    1    1    2  503  501 -0.15216663052E+02 -0.15495327355E+02  0.31568223375E+02  0.38317159751E+02  0.00000000000E+00 0.  1.
          2    1    1    2  501    0  0.21825954486E+03 -0.98328216904E+02 -0.86467473502E+02  0.25452365535E+03  0.00000000000E+00 0. -1.
<mgrwt>
<rscale>  4 0.26868079E+03</rscale>
<asrwt>0</asrwt>
<pdfrwt beam="1">  1       21 0.66325617E-01 0.26868079E+03</pdfrwt>
<pdfrwt beam="2">  1        2 0.35350644E-01 0.26868079E+03</pdfrwt>
<totfact> 0.36819615E+03</totfact>
</mgrwt>
</event>
<event>
 5    0  0.3040647E+000  0.3619852E+03  0.7546771E-02  0.1057801E+00
          2   -1    0    0  502    0 -0.00000000000E+00  0.00000000000E+00  0.12143309878E+04  0.12143309878E+04  0.00000000000E+00 0.  1.
         21   -1    0    0  503  502  0.00000000000E+00 -0.00000000000E+00 -0.37475126951E+03  0.37475126951E+03  0.00000000000E+00 0.  1.
         25    1    1    2    0    0 -0.15419033536E+03 -0.24169788644E+03  0.16950482952E+03  0.35573784597E+03  0.12500000000E+03 0.  0.
         21    1    1    2  503  501 -0.12534721096E+02 -0.76769673629E+02 -0.24135894757E+03  0.25358399711E+03  0.00000000000E+00 0.  1.
          2    1    1    2  501    0  0.16672505646E+03  0.31846756006E+03  0.91143383638E+03  0.97976041427E+03  0.00000000000E+00 0.  1.
<mgrwt>
<rscale>  4 0.36198522E+03</rscale>
<asrwt>0</asrwt>
<pdfrwt beam="1">  1       21 0.57654042E-01 0.36198522E+03</pdfrwt>
<pdfrwt beam="2">  1        2 0.18682015E+00 0.36198522E+03</pdfrwt>
<totfact> 0.65142206E+02</totfact>
</mgrwt>
</event>
<event>
 5    0  0.3040647E+000  0.3261970E+03  0.7546771E-02  0.1072832E+00
         21   -1    0    0  503  502  0.00000000000E+00  0.00000000000E+00  0.71105341507E+03  0.71105341507E+03  0.00000000000E+00 0. -1.
          2   -1    0    0  502    0 -0.00000000000E+00 -0.00000000000E+00 -0.80605264705E+03  0.80605264705E+03  0.00000000000E+00 0. -1.
         25    1    1    2    0    0  0.29036388633E+03  0.20477998734E+03 -0.26704658783E+02  0.37760318920E+03  0.12500000000E+03 0.  0.
         21    1    1    2  503  501 -0.49850270721E+02 -0.41836687452E+02  0.49842742865E+03  0.50265819355E+03  0.00000000000E+00 0. -1.
          2    1    1    2  501    0 -0.24051361561E+03 -0.16294329988E+03 -0.56672200185E+03  0.63684467937E+03  0.00000000000E+00 0. -1.
<mgrwt>
<rscale>  4 0.32619696E+03</rscale>
<asrwt>0</asrwt>
<pdfrwt beam="1">  1       21 0.10939283E+00 0.32619696E+03</pdfrwt>
<pdfrwt beam="2">  1        2 0.12400810E+00 0.32619696E+03</pdfrwt>
<totfact> 0.27221481E+02</totfact>
</mgrwt>
</event>
<event>
 5    0  0.3950281E+000  0.1826258E+03  0.7546771E-02  0.1165286E+00
         21   -1    0    0  503  502  0.00000000000E+00  0.00000000000E+00  0.76614864124E+03  0.76614864124E+03  0.00000000000E+00 0. -1.
          1   -1    0    0  502    0 -0.00000000000E+00 -0.00000000000E+00 -0.16004331802E+04  0.16004331802E+04  0.00000000000E+00 0. -1.
         25    1    1    2    0    0  0.12842966614E+02 -0.22035090991E+03 -0.74181967899E+03  0.78399037075E+03  0.12500000000E+03 0.  0.
         21    1    1    2  503  501  0.12075138226E+02  0.10644926437E+03  0.73711423554E+03  0.74485881285E+03  0.00000000000E+00 0. -1.
          1    1    1    2  501    0 -0.24918104839E+02  0.11390164554E+03 -0.82957909550E+03  0.83773263783E+03  0.00000000000E+00 0. -1.
<mgrwt>
<rscale>  4 0.18262581E+03</rscale>
<asrwt>0</asrwt>
<pdfrwt beam="1">  1       21 0.11786902E+00 0.18262581E+03</pdfrwt>
<pdfrwt beam="2">  1        1 0.24622049E+00 0.18262581E+03</pdfrwt>
<totfact> 0.39017742E+01</totfact>
</mgrwt>
</event>
<event>
 5    0  0.3396154E+000  0.3231627E+03  0.7546771E-02  0.1074203E+00
         21   -1    0    0  503  502  0.00000000000E+00  0.00000000000E+00  0.58972516715E+03  0.58972516715E+03  0.00000000000E+00 0.  1.
          4   -1    0    0  502    0 -0.00000000000E+00 -0.00000000000E+00 -0.12215681182E+04  0.12215681182E+04  0.00000000000E+00 0. -1.
         25    1    1    2    0    0 -0.16190728640E+03  0.20137785065E+03  0.50913825864E+03  0.58447735160E+03  0.12500000000E+03 0.  0.
         21    1    1    2  503  501 -0.27050043048E+02  0.30863704503E+02  0.59329920395E+01  0.41466534447E+02  0.00000000000E+00 0. -1.
          4    1    1    2  501    0  0.18895732945E+03 -0.23224155516E+03 -0.11469142017E+04  0.11853493993E+04  0.00000000000E+00 0. -1.
<mgrwt>
<rscale>  4 0.32316274E+03</rscale>
<asrwt>0</asrwt>
<pdfrwt beam="1">  1       21 0.90726950E-01 0.32316274E+03</pdfrwt>
<pdfrwt beam="2">  1        4 0.18793355E+00 0.32316274E+03</pdfrwt>
<totfact> 0.70581146E+00</totfact>
</mgrwt>
</event>
<event>
 5    0  0.3040647E+000  0.3043678E+03  0.7546771E-02  0.1083077E+00
         21   -1    0    0  503  502  0.00000000000E+00  0.00000000000E+00  0.70865824712E+03  0.70865824712E+03  0.00000000000E+00 0.  1.
          4   -1    0    0  502    0 -0.00000000000E+00 -0.00000000000E+00 -0.23512526597E+04  0.23512526597E+04  0.00000000000E+00 0. -1.
         25    1    1    2    0    0  0.19984037985E+03 -0.14030424954E+03  0.46989991798E+03  0.54410696814E+03  0.12500000000E+03 0.  0.
         21    1    1    2  503  501  0.34319720432E+02 -0.96664033131E+01  0.19165145037E+03  0.19493989072E+03  0.00000000000E+00 0.  1.
          4    1    1    2  501    0 -0.23416010029E+03  0.14997065285E+03 -0.23041457809E+04  0.23208640479E+04  0.00000000000E+00 0. -1.
<mgrwt>
<rscale>  4 0.30436780E+03</rscale>
<asrwt>0</asrwt>
<pdfrwt beam="1">  1       21 0.10902435E+00 0.30436780E+03</pdfrwt>
<pdfrwt beam="2">  1        4 0.36173117E+00 0.30436780E+03</pdfrwt>
<totfact> 0.39850474E-01</totfact>
</mgrwt>
</event>
<event>
 5    0  0.3040647E+000  0.2982138E+03  0.7546771E-02  0.1086137E+00
          1   -1    0    0  502    0 -0.00000000000E+00  0.00000000000E+00  0.55825463688E+03  0.55825463688E+03  0.00000000000E+00 0.  1.
         21   -1    0    0  503  502  0.00000000000E+00 -0.00000000000E+00 -0.24589913966E+03  0.24589913966E+03  0.00000000000E+00 0.  1.
         25    1    1    2    0    0  0.94645205535E+02 -0.29668961453E+03  0.32718372433E+02  0.33716158470E+03  0.12500000000E+03 0.  0.
         21    1    1    2  503  501 -0.93207163992E+02  0.21664305687E+03  0.75365235382E+02  0.24759181774E+03  0.00000000000E+00 0.  1.
          1    1    1    2  501    0 -0.14380415424E+01  0.80046557665E+02  0.20427188940E+03  0.21940037411E+03  0.00000000000E+00 0.  1.
<mgrwt>
<rscale>  4 0.29821384E+03</rscale>
<asrwt>0</asrwt>
<pdfrwt beam="1">  1       21 0.37830637E-01 0.29821384E+03</pdfrwt>
<pdfrwt beam="2">  1        1 0.85885329E-01 0.29821384E+03</pdfrwt>
<totfact> 0.28037051E+03</totfact>
</mgrwt>
</event>
<event>
 5    0  0.3040647E+000  0.2681383E+03  0.7546771E-02  0.1102350E+00
          2   -1    0    0  502    0 -0.00000000000E+00  0.00000000000E+00  0.50595407520E+03  0.50595407520E+03  0.00000000000E+00 0. -1.
         21   -1    0    0  503  502  0.00000000000E+00 -0.00000000000E+00 -0.57916999523E+03  0.57916999523E+03  0.00000000000E+00 0. -1.
         25    1    1    2    0    0  0.18568625770E+03 -0.15630807099E+03 -0.47943747876E+03  0.55172175541E+03  0.12500000000E+03 0.  0.
         21    1    1    2  503  501 -0.96373408216E+02 -0.66760140723E+01  0.11716964312E+02  0.97312333380E+02  0.00000000000E+00 0. -1.
          2    1    1    2  501    0 -0.89312849485E+02  0.16298408506E+03  0.39450459442E+03  0.43608998164E+03  0.00000000000E+00 0. -1.
<mgrwt>
<rscale>  4 0.26813826E+03</rscale>
<asrwt>0</asrwt>
<pdfrwt beam="1">  1       21 0.89103076E-01 0.26813826E+03</pdfrwt>
<pdfrwt beam="2">  1        2 0.77839089E-01 0.26813826E+03</pdfrwt>
<totfact> 0.79671784E+02</totfact>
</mgrwt>
</event>
<event>
 5    0  0.3040647E+000  0.2825022E+03  0.7546771E-02  0.1094330E+00
          2   -1    0    0  502    0 -0.00000000000E+00  0.00000000000E+00  0.10479423079E+04  0.10479423079E+04  0.00000000000E+00 0. -1.
         21   -1    0    0  503  502  0.00000000000E+00 -0.00000000000E+00 -0.46419644078E+03  0.46419644078E+03  0.00000000000E+00 0.  1.
         25    1    1    2    0    0  0.78312423008E+02 -0.26128691781E+03 -0.37955914546E+03  0.48383244405E+03  0.12500000000E+03 0.  0.
         21    1    1    2  503  501 -0.24503970709E+01  0.20328960421E+02 -0.99751059215E+01  0.22776606766E+02  0.00000000000E+00 0. -1.
          2    1    1    2  501    0 -0.75862025937E+02  0.24095795739E+03  0.97328011846E+03  0.10055296978E+04  0.00000000000E+00 0. -1.
<mgrwt>
<rscale>  4 0.28250216E+03</rscale>
<asrwt>0</asrwt>
<pdfrwt beam="1">  1       21 0.71414838E-01 0.28250216E+03</pdfrwt>
<pdfrwt beam="2">  1        2 0.16122189E+00 0.28250216E+03</pdfrwt>
<totfact> 0.52618662E+02</totfact>
</mgrwt>
</event>
<event>
 5    0  0.3040647E+000  0.2384354E+03  0.7546771E-02  0.1120840E+00
          2   -1    0    0  502    0 -0.00000000000E+00  0.00000000000E+00  0.11037031726E+04  0.11037031726E+04  0.00000000000E+00 0. -1.
         21   -1    0    0  503  502  0.00000000000E+00 -0.00000000000E+00 -0.13859645269E+03  0.13859645269E+03  0.00000000000E+00 0. -1.
         25    1    1    2    0    0  0.12169584844E+03  0.22964434249E+03  0.74128195740E+03  0.79540577313E+03  0.12500000000E+03 0.  0.
         21    1    1    2  503  501 -0.52296753724E+02 -0.85923283208E+02 -0.62977095610E+02  0.11867550556E+03  0.00000000000E+00 0. -1.
          2    1    1    2  501    0 -0.69399094713E+02 -0.14372105928E+03  0.28680185817E+03  0.32821834665E+03  0.00000000000E+00 0. -1.
<mgrwt>
<rscale>  4 0.23843541E+03</rscale>
<asrwt>0</asrwt>
<pdfrwt beam="1">  1       21 0.21322532E-01 0.23843541E+03</pdfrwt>
<pdfrwt beam="2">  1        2 0.16980048E+00 0.23843541E+03</pdfrwt>
<totfact> 0.58362951E+03</totfact>
</mgrwt>
</event>
<event>
 5    0  0.3040647E+000  0.2531705E+03  0.7546771E-02  0.1111317E+00
         21   -1    0    0  503  502  0.00000000000E+00  0.00000000000E+00  0.43698972590E+02  0.43698972590E+02  0.00000000000E+00 0.  1.
          2   -1    0    0  502    0 -0.00000000000E+00 -0.00000000000E+00 -0.20167790172E+04  0.20167790172E+04  0.00000000000E+00 0.  1.
         25    1    1    2    0    0  0.23240801078E+03 -0.45180683684E+02 -0.50448483296E+03  0.57112583933E+03  0.12500000000E+03 0.  0.
         21    1    1    2  503  501 -0.22939682719E+02 -0.79594155489E+01 -0.68474781074E+02  0.72652439617E+02  0.00000000000E+00 0.  1.
          2    1    1    2  501    0 -0.20946832807E+03  0.53140099233E+02 -0.14001204306E+04  0.14166997109E+04  0.00000000000E+00 0.  1.
<mgrwt>
<rscale>  4 0.25317049E+03</rscale>
<asrwt>0</asrwt>
<pdfrwt beam="1">  1       21 0.67229202E-02 0.25317049E+03</pdfrwt>
<pdfrwt beam="2">  1        2 0.31027363E+00 0.25317049E+03</pdfrwt>
<totfact> 0.15000000E+04</totfact>
</mgrwt>
</event>
<event>
 5    0  0.3040647E+000  0.5851293E+03  0.7546771E-02  0.9936747E-01
         21   -1    0    0  503  502  0.00000000000E+00  0.00000000000E+00  0.24442766473E+03  0.24442766473E+03  0.00000000000E+00 0. -1.
          2   -1    0    0  502    0 -0.00000000000E+00 -0.00000000000E+00 -0.16985954269E+04  0.16985954269E+04  0.00000000000E+00 0. -1.
         25    1    1    2    0    0  0.58083273276E+03  0.74619665244E+01 -0.42443837486E+03  0.73020221750E+03  0.12500000000E+03 0.  0.
         21    1    1    2  503  501 -0.13579920731E+02 -0.16996091304E+02  0.13287234481E+02  0.25491801953E+02  0.00000000000E+00 0.  1.
          2    1    1    2  501    0 -0.56725281203E+03  0.95341247793E+01 -0.10430166218E+04  0.11873290722E+04  0.00000000000E+00 0. -1.
<mgrwt>
<rscale>  4 0.58512933E+03</rscale>
<asrwt>0</asrwt>
<pdfrwt beam="1">  1       21 0.37604256E-01 0.58512933E+03</pdfrwt>
<pdfrwt beam="2">  1        2 0.26132238E+00 0.58512933E+03</pdfrwt>
<totfact> 0.81316867E+02</totfact>
</mgrwt>
</event>
<event>
 5    0  0.3040647E+000  0.2445645E+03  0.7546771E-02  0.1116789E+00
         21   -1    0    0  503  502  0.00000000000E+00  0.00000000000E+00  0.39848741333E+03  0.39848741333E+03  0.00000000000E+00 0. -1.
          2   -1    0    0  502    0 -0.00000000000E+00 -0.00000000000E+00 -0.32487402446E+03  0.32487402446E+03  0.00000000000E+00 0. -1.
         25    1    1    2    0    0 -0.25481442053E+03 -0.14671842301E+03  0.25269567580E+02  0.32049997754E+03  0.12500000000E+03 0.  0.
         21    1    1    2  503  501  0.72961674886E+02  0.10855662704E+03  0.14344507970E+03  0.19412480050E+03  0.00000000000E+00 0. -1.
          2    1    1    2  501    0  0.18185274564E+03  0.38161795965E+02 -0.95101258408E+02  0.20873665974E+03  0.00000000000E+00 0. -1.
<mgrwt>
<rscale>  4 0.24456454E+03</rscale>
<asrwt>0</asrwt>
<pdfrwt beam="1">  1       21 0.61305756E-01 0.24456454E+03</pdfrwt>
<pdfrwt beam="2">  1        2 0.49980619E-01 0.24456454E+03</pdfrwt>
<totfact> 0.30254790E+03</totfact>
</mgrwt>
</event>
<event>
 5    0  0.3040647E+000  0.3112702E+03  0.7546771E-02  0.1079739E+00
          2   -1    0    0  502    0 -0.00000000000E+00  0.00000000000E+00  0.26484309682E+03  0.26484309682E+03  0.00000000000E+00 0.  1.
         21   -1    0    0  503  502  0.00000000000E+00 -0.00000000000E+00 -0.51643530060E+03  0.51643530060E+03  0.00000000000E+00 0.  1.
         25    1    1    2    0    0  0.28155804411E+03 -0.79229525355E+02  0.72451985380E+02  0.32623080798E+03  0.12500000000E+03 0.  0.
         21    1    1    2  503  501 -0.30450489256E+02 -0.17064820019E+02 -0.96989645006E+02  0.10307973427E+03  0.00000000000E+00 0.  1.
          2    1    1    2  501    0 -0.25110755485E+03  0.96294345373E+02 -0.22705454415E+03  0.35196785517E+03  0.00000000000E+00 0.  1.
<mgrwt>
<rscale>  4 0.31127024E+03</rscale>
<asrwt>0</asrwt>
<pdfrwt beam="1">  1       21 0.79451585E-01 0.31127024E+03</pdfrwt>
<pdfrwt beam="2">  1        2 0.40745092E-01 0.31127024E+03</pdfrwt>
<totfact> 0.20797151E+03</totfact>
</mgrwt>
</event>
<event>
 5    0  0.3040647E+000  0.2657897E+03  0.7546771E-02  0.1103714E+00
          1   -1    0    0  502    0 -0.00000000000E+00  0.00000000000E+00  0.65262079765E+02  0.65262079765E+02  0.00000000000E+00 0. -1.
         21   -1    0    0  503  502  0.00000000000E+00 -0.00000000000E+00 -0.10861829633E+04  0.10861829633E+04  0.00000000000E+00 0. -1.
         25    1    1    2    0    0  0.22106966630E+03  0.78405270356E+02 -0.66950970844E+03  0.72033841594E+03  0.12500000000E+03 0.  0.
         21    1    1    2  503  501 -0.46218673737E+02 -0.41209363129E+02 -0.14726666600E+03  0.15975558935E+03  0.00000000000E+00 0. -1.
          1    1    1    2  501    0 -0.17485099256E+03 -0.37195907227E+02 -0.20414450910E+03  0.27135103779E+03  0.00000000000E+00 0. -1.
<mgrwt>
<rscale>  4 0.26578974E+03</rscale>
<asrwt>0</asrwt>
<pdfrwt beam="1">  1       21 0.16710506E+00 0.26578974E+03</pdfrwt>
<pdfrwt beam="2">  1        1 0.10040321E-01 0.26578974E+03</pdfrwt>
<totfact> 0.14684615E+03</totfact>
</mgrwt>
</event>
<event>
 5    0  0.3040647E+000  0.2415840E+03  0.7546771E-02  0.1118742E+00
         21   -1    0    0  503  502  0.00000000000E+00  0.00000000000E+00  0.47050645953E+03  0.47050645953E+03  0.00000000000E+00 0. -1.
          4   -1    0    0  502    0 -0.00000000000E+00 -0.00000000000E+00 -0.90907154678E+03  0.90907154678E+03  0.00000000000E+00 0. -1.
         25    1    1    2    0    0 -0.54674487779E+02  0.20135470629E+03  0.30562466184E+03  0.39059499649E+03  0.12500000000E+03 0.  0.
         21    1    1    2  503  501  0.35928096483E+02  0.45655738222E+01  0.10703932881E+03  0.11300040041E+03  0.00000000000E+00 0.  1.
          4    1    1    2  501    0  0.18746391296E+02 -0.20592028012E+03 -0.85122907789E+03  0.87598260942E+03  0.00000000000E+00 0. -1.
<mgrwt>
<rscale>  4 0.24158400E+03</rscale>
<asrwt>0</asrwt>
<pdfrwt beam="1">  1       21 0.72385610E-01 0.24158400E+03</pdfrwt>
<pdfrwt beam="2">  1        4 0.13985716E+00 0.24158400E+03</pdfrwt>
<totfact> 0.26954891E+01</totfact>
</mgrwt>
</event>
<event>
 5    0  0.3040647E+000  0.2389201E+03  0.7546771E-02  0.1120514E+00
         21   -1    0    0  503  502  0.00000000000E+00  0.00000000000E+00  0.21309229477E+03  0.21309229477E+03  0.00000000000E+00 0. -1.
          1   -1    0    0  502    0 -0.00000000000E+00 -0.00000000000E+00 -0.54859140581E+03  0.54859140581E+03  0.00000000000E+00 0.  1.
         25    1    1    2    0    0 -0.20421812989E+03  0.11382703353E+03 -0.11581079822E+03  0.28930741283E+03  0.12500000000E+03 0.  0.
         21    1    1    2  503  501  0.37109267912E+02 -0.15188040361E+02  0.94747928520E+02  0.10288315846E+03  0.00000000000E+00 0. -1.
          1    1    1    2  501    0  0.16710886198E+03 -0.98638993166E+02 -0.31443624134E+03  0.36949312929E+03  0.00000000000E+00 0.  1.
<mgrwt>
<rscale>  4 0.23892005E+03</rscale>
<asrwt>0</asrwt>
<pdfrwt beam="1">  1       21 0.32783430E-01 0.23892005E+03</pdfrwt>
<pdfrwt beam="2">  1        1 0.84398678E-01 0.23892005E+03</pdfrwt>
<totfact> 0.38894488E+03</totfact>
</mgrwt>
</event>
<event>
 5    0  0.3040647E+000  0.3868387E+03  0.7546771E-02  0.1048435E+00
         21   -1    0    0  503  502  0.00000000000E+00  0.00000000000E+00  0.94026212029E+02  0.94026212029E+02  0.00000000000E+00 0. -1.
          2   -1    0    0  502    0 -0.00000000000E+00 -0.00000000000E+00 -0.17098932109E+04  0.17098932109E+04  0.00000000000E+00 0. -1.
         25    1    1    2    0    0 -0.17605293233E+03  0.32097432628E+03 -0.11002022715E+04  0.11662286188E+04  0.12500000000E+03 0.  0.
         21    1    1    2  503  501  0.65908723348E+02 -0.17032454875E+03 -0.19881020559E+03  0.26996279293E+03  0.00000000000E+00 0. -1.
          2    1    1    2  501    0  0.11014420898E+03 -0.15064977753E+03 -0.31685452176E+03  0.36772801118E+03  0.00000000000E+00 0. -1.
<mgrwt>
<rscale>  4 0.38683867E+03</rscale>
<asrwt>0</asrwt>
<pdfrwt beam="1">  1       21 0.14465572E-01 0.38683867E+03</pdfrwt>
<pdfrwt beam="2">  1        2 0.26306048E+00 0.38683867E+03</pdfrwt>
<totfact> 0.53526878E+03</totfact>
</mgrwt>
</event>
<event>
 5    0  0.3040647E+000  0.2793478E+03  0.7546771E-02  0.1096046E+00
          1   -1    0    0  502    0 -0.00000000000E+00  0.00000000000E+00  0.20302878164E+03  0.20302878164E+03  0.00000000000E+00 0.  1.
         21   -1    0    0  503  502  0.00000000000E+00 -0.00000000000E+00 -0.67545574374E+03  0.67545574374E+03  0.00000000000E+00 0.  1.
         25    1    1    2    0    0 -0.21691381250E+03  0.15046079984E+03 -0.44886059170E+03  0.53552860346E+03  0.12500000000E+03 0.  0.
         21    1    1    2  503  501 -0.11248205228E+02 -0.53714718749E+02 -0.71909697011E+02  0.90458817455E+02  0.00000000000E+00 0. -1.
          1    1    1    2  501    0  0.22816201773E+03 -0.96746081086E+02  0.48343326614E+02  0.25249710447E+03  0.00000000000E+00 0.  1.
<mgrwt>
<rscale>  4 0.27934775E+03</rscale>
<asrwt>0</asrwt>
<pdfrwt beam="1">  1       21 0.10391627E+00 0.27934775E+03</pdfrwt>
<pdfrwt beam="2">  1        1 0.31235196E-01 0.27934775E+03</pdfrwt>
<totfact> 0.11273889E+03</totfact>
</mgrwt>
</event>
<event>
 5    0  0.3040647E+000  0.2483818E+03  0.7546771E-02  0.1114332E+00
          2   -1    0    0  502    0 -0.00000000000E+00  0.00000000000E+00  0.70593782269E+03  0.70593782269E+03  0.00000000000E+00 0.  1.
         21   -1    0    0  503  502  0.00000000000E+00 -0.00000000000E+00 -0.18702806164E+03  0.18702806164E+03  0.00000000000E+00 0. -1.
         25    1    1    2    0    0  0.23800223874E+03 -0.64711415386E+02  0.34172256065E+03  0.43958155260E+03  0.12500000000E+03 0.  0.
         21    1    1    2  503  501 -0.48210972946E+02  0.21509926898E+02 -0.10093990099E+03  0.11391153796E+03  0.00000000000E+00 0. -1.
          2    1    1    2  501    0 -0.18979126580E+03  0.43201488487E+02  0.27812710140E+03  0.33947279378E+03  0.00000000000E+00 0.  1.
<mgrwt>
<rscale>  4 0.24838178E+03</rscale>
<asrwt>0</asrwt>
<pdfrwt beam="1">  1       21 0.28773548E-01 0.24838178E+03</pdfrwt>
<pdfrwt beam="2">  1        2 0.10860582E+00 0.24838178E+03</pdfrwt>
<totfact> 0.59483259E+03</totfact>
</mgrwt>
</event>
<event>
 5    0  0.3040647E+000  0.4580371E+03  0.7546771E-02  0.1025352E+00
          1   -1    0    0  502    0 -0.00000000000E+00  0.00000000000E+00  0.11103918420E+04  0.11103918420E+04  0.00000000000E+00 0.  1.
         21   -1    0    0  503  502  0.00000000000E+00 -0.00000000000E+00 -0.98466608277E+03  0.98466608277E+03  0.00000000000E+00 0. -1.
         25    1    1    2    0    0 -0.20603900867E+03 -0.40917609645E+03 -0.63785617222E+03  0.79521232852E+03  0.12500000000E+03 0.  0.
         21    1    1    2  503  501  0.29602457597E+03  0.29573195927E+03 -0.95045713398E+02  0.42909396284E+03  0.00000000000E+00 0. -1.
          1    1    1    2  501    0 -0.89985567303E+02  0.11344413718E+03  0.85862764485E+03  0.87075163341E+03  0.00000000000E+00 0.  1.
<mgrwt>
<rscale>  4 0.45803711E+03</rscale>
<asrwt>0</asrwt>
<pdfrwt beam="1">  1       21 0.15148709E+00 0.45803711E+03</pdfrwt>
<pdfrwt beam="2">  1        1 0.17082951E+00 0.45803711E+03</pdfrwt>
<totfact> 0.36547351E+01</totfact>
</mgrwt>
</event>
<event>
 5    0  0.3040647E+000  0.2287185E+03  0.7546771E-02  0.1127545E+00
         21   -1    0    0  503  502  0.00000000000E+00  0.00000000000E+00  0.21637980908E+03  0.21637980908E+03  0.00000000000E+00 0.  1.
          2   -1    0    0  502    0 -0.00000000000E+00 -0.00000000000E+00 -0.23075884115E+04  0.23075884115E+04  0.00000000000E+00 0.  1.
         25    1    1    2    0    0 -0.14749475644E+03 -0.23353894668E+03 -0.31581356248E+01  0.30319979652E+03  0.12500000000E+03 0.  0.
         21    1    1    2  503  501  0.53852088960E+02  0.13631509434E+03 -0.19546365512E+02  0.14786450837E+03  0.00000000000E+00 0.  1.
          2    1    1    2  501    0  0.93642667479E+02  0.97223852332E+02 -0.20685041013E+04  0.20729039157E+04  0.00000000000E+00 0.  1.
<mgrwt>
<rscale>  4 0.22871846E+03</rscale>
<asrwt>0</asrwt>
<pdfrwt beam="1">  1       21 0.33289201E-01 0.22871846E+03</pdfrwt>
<pdfrwt beam="2">  1        2 0.35501360E+00 0.22871846E+03</pdfrwt>
<totfact> 0.56222667E+02</totfact>
</mgrwt>
</event>
<event>
 5    0  0.3040647E+000  0.2283794E+03  0.7546771E-02  0.1127786E+00
         21   -1    0    0  503  502  0.00000000000E+00  0.00000000000E+00  0.54628402652E+03  0.54628402652E+03  0.00000000000E+00 0.  1.
          2   -1    0    0  502    0 -0.00000000000E+00 -0.00000000000E+00 -0.20784518720E+03  0.20784518720E+03  0.00000000000E+00 0.  1.
         25    1    1    2    0    0  0.13150948061E+03  0.16179907698E+03 -0.39308198387E+02  0.24625965821E+03  0.12500000000E+03 0.  0.
         21    1    1    2  503  501 -0.12725757500E+01 -0.19555872736E+03  0.28015493126E+03  0.34166009543E+03  0.00000000000E+00 0.  1.
          2    1    1    2  501    0 -0.13023690486E+03  0.33759650384E+02  0.97592106438E+02  0.16620946008E+03  0.00000000000E+00 0.  1.
<mgrwt>
<rscale>  4 0.22837936E+03</rscale>
<asrwt>0</asrwt>
<pdfrwt beam="1">  1       21 0.84043696E-01 0.22837936E+03</pdfrwt>
<pdfrwt beam="2">  1        2 0.31976183E-01 0.22837936E+03</pdfrwt>
<totfact> 0.24432777E+03</totfact>
</mgrwt>
</event>
<event>
 5    0  0.3040647E+000  0.2986391E+03  0.7546771E-02  0.1085923E+00
          3   -1    0    0  502    0 -0.00000000000E+00  0.00000000000E+00  0.16107046226E+03  0.16107046226E+03  0.00000000000E+00 0.  1.
         21   -1    0    0  503  502  0.00000000000E+00 -0.00000000000E+00 -0.15058069746E+04  0.15058069746E+04  0.00000000000E+00 0.  1.
         25    1    1    2    0    0  0.36568313197E+03  0.13071862630E+03 -0.10242648975E+04  0.11025221506E+04  0.12500000000E+03 0.  0.
         21    1    1    2  503  501 -0.12965938813E+03 -0.35542784629E+02 -0.27462528285E+03  0.30576770995E+03  0.00000000000E+00 0. -1.
          3    1    1    2  501    0 -0.23602374384E+03 -0.95175841675E+02 -0.45846332048E+02  0.25858757637E+03  0.00000000000E+00 0.  1.
<mgrwt>
<rscale>  4 0.29863906E+03</rscale>
<asrwt>0</asrwt>
<pdfrwt beam="1">  1       21 0.23166262E+00 0.29863906E+03</pdfrwt>
<pdfrwt beam="2">  1        3 0.24780070E-01 0.29863906E+03</pdfrwt>
<totfact> 0.60562673E+01</totfact>
</mgrwt>
</event>
<event>
 5    0  0.3040647E+000  0.6878936E+03  0.7546771E-02  0.9738163E-01
         21   -1    0    0  503  502  0.00000000000E+00  0.00000000000E+00  0.51921455268E+03  0.51921455268E+03  0.00000000000E+00 0. -1.
          2   -1    0    0  502    0 -0.00000000000E+00 -0.00000000000E+00 -0.11565847464E+04  0.11565847464E+04  0.00000000000E+00 0. -1.
         25    1    1    2    0    0  0.31343436570E+03 -0.56735251419E+03 -0.21806908767E+03  0.69520436129E+03  0.12500000000E+03 0.  0.
         21    1    1    2  503  501 -0.25035152806E+02 -0.68676040262E+02  0.90222768036E+02  0.11611763541E+03  0.00000000000E+00 0. -1.
          2    1    1    2  501    0 -0.28839921289E+03  0.63602855445E+03 -0.50952387409E+03  0.86447730239E+03  0.00000000000E+00 0. -1.
<mgrwt>
<rscale>  4 0.68789359E+03</rscale>
<asrwt>0</asrwt>
<pdfrwt beam="1">  1       21 0.79879163E-01 0.68789359E+03</pdfrwt>
<pdfrwt beam="2">  1        2 0.17793611E+00 0.68789359E+03</pdfrwt>
<totfact> 0.31081444E+02</totfact>
</mgrwt>
</event>
<event>
 5    0  0.3040647E+000  0.2370020E+03  0.7546771E-02  0.1121806E+00
         21   -1    0    0  503  502  0.00000000000E+00  0.00000000000E+00  0.11139491341E+03  0.11139491341E+03  0.00000000000E+00 0.  1.
          2   -1    0    0  502    0 -0.00000000000E+00 -0.00000000000E+00 -0.11390486201E+04  0.11390486201E+04  0.00000000000E+00 0.  1.
         25    1    1    2    0    0  0.95763417906E+02  0.19854699360E+03 -0.15233153768E+03  0.29567116574E+03  0.12500000000E+03 0.  0.
         21    1    1    2  503  501 -0.11981325515E+03 -0.14158140108E+03 -0.18596342136E+03  0.26264596575E+03  0.00000000000E+00 0.  1.
          2    1    1    2  501    0  0.24049837246E+02 -0.56965592518E+02 -0.68935874769E+03  0.69212640206E+03  0.00000000000E+00 0.  1.
<mgrwt>
<rscale>  4 0.23700202E+03</rscale>
<asrwt>0</asrwt>
<pdfrwt beam="1">  1       21 0.17137680E-01 0.23700202E+03</pdfrwt>
<pdfrwt beam="2">  1        2 0.17523824E+00 0.23700202E+03</pdfrwt>
<totfact> 0.83775931E+03</totfact>
</mgrwt>
</event>
<event>
 5    0  0.3040647E+000  0.4092269E+03  0.7546771E-02  0.1040631E+00
         21   -1    0    0  503  502  0.00000000000E+00  0.00000000000E+00  0.11281493981E+04  0.11281493981E+04  0.00000000000E+00 0.  1.
          1   -1    0    0  502    0 -0.00000000000E+00 -0.00000000000E+00 -0.64486152804E+03  0.64486152804E+03  0.00000000000E+00 0. -1.
         25    1    1    2    0    0  0.22656169018E+03  0.32148605440E+03  0.89703665452E+03  0.98741239722E+03  0.12500000000E+03 0.  0.
         21    1    1    2  503  501  0.37662484427E+02 -0.35124432370E+02  0.11662222541E+03  0.12748698735E+03  0.00000000000E+00 0.  1.
          1    1    1    2  501    0 -0.26422417461E+03 -0.28636162203E+03 -0.53037100987E+03  0.65811154156E+03  0.00000000000E+00 0. -1.
<mgrwt>
<rscale>  4 0.40922691E+03</rscale>
<asrwt>0</asrwt>
<pdfrwt beam="1">  1       21 0.17356145E+00 0.40922691E+03</pdfrwt>
<pdfrwt beam="2">  1        1 0.99209466E-01 0.40922691E+03</pdfrwt>
<totfact> 0.61748647E+01</totfact>
</mgrwt>
</event>
<event>
 5    0  0.3040647E+000  0.2163402E+03  0.7546771E-02  0.1136641E+00
         21   -1    0    0  503  502  0.00000000000E+00  0.00000000000E+00  0.33665974404E+03  0.33665974404E+03  0.00000000000E+00 0.  1.
          3   -1    0    0  502    0 -0.00000000000E+00 -0.00000000000E+00 -0.42067813818E+03  0.42067813818E+03  0.00000000000E+00 0.  1.
         25    1    1    2    0    0 -0.18237504061E+03 -0.10326420065E+03  0.14601014896E+03  0.28437319524E+03  0.12500000000E+03 0.  0.
         21    1    1    2  503  501  0.14320478567E+03  0.55525035943E+02  0.68457429556E+02  0.16815784227E+03  0.00000000000E+00 0.  1.
          3    1    1    2  501    0  0.39170254940E+02  0.47739164703E+02 -0.29848597265E+03  0.30480684472E+03  0.00000000000E+00 0.  1.
<mgrwt>
<rscale>  4 0.21634019E+03</rscale>
<asrwt>0</asrwt>
<pdfrwt beam="1">  1       21 0.51793807E-01 0.21634019E+03</pdfrwt>
<pdfrwt beam="2">  1        3 0.64719713E-01 0.21634019E+03</pdfrwt>
<totfact> 0.40905710E+02</totfact>
</mgrwt>
</event>
<event>
 5    0  0.3040647E+000  0.1787697E+03  0.7546771E-02  0.1168999E+00
         21   -1    0    0  503  502  0.00000000000E+00  0.00000000000E+00  0.96948220811E+02  0.96948220811E+02  0.00000000000E+00 0.  1.
          1   -1    0    0  502    0 -0.00000000000E+00 -0.00000000000E+00 -0.18482761847E+04  0.18482761847E+04  0.00000000000E+00 0.  1.
         25    1    1    2    0    0 -0.20688861689E+03  0.48997404894E+02 -0.10786982167E+03  0.26919239201E+03  0.12500000000E+03 0.  0.
         21    1    1    2  503  501  0.98841120988E+02  0.14455878047E+02 -0.16941128285E+03  0.19666906815E+03  0.00000000000E+00 0.  1.
          1    1    1    2  501    0  0.10804749591E+03 -0.63453282941E+02 -0.14740468594E+04  0.14793629454E+04  0.00000000000E+00 0.  1.
<mgrwt>
<rscale>  4 0.17876970E+03</rscale>
<asrwt>0</asrwt>
<pdfrwt beam="1">  1       21 0.14915112E-01 0.17876970E+03</pdfrwt>
<pdfrwt beam="2">  1        1 0.28435016E+00 0.17876970E+03</pdfrwt>
<totfact> 0.19319395E+03</totfact>
</mgrwt>
</event>
<event>
 5    0  0.3040647E+000  0.2120978E+03  0.7546771E-02  0.1139915E+00
          2   -1    0    0  502    0 -0.00000000000E+00  0.00000000000E+00  0.10540441932E+04  0.10540441932E+04  0.00000000000E+00 0.  1.
         21   -1    0    0  503  502  0.00000000000E+00 -0.00000000000E+00 -0.85078913905E+02  0.85078913905E+02  0.00000000000E+00 0. -1.
         25    1    1    2    0    0  0.11563251848E+02 -0.22416979108E+03  0.47155778585E+03  0.53700796030E+03  0.12500000000E+03 0.  0.
         21    1    1    2  503  501 -0.25088050679E+02  0.71444086041E+02 -0.59208965970E+01  0.75952121324E+02  0.00000000000E+00 0. -1.
          2    1    1    2  501    0  0.13524798830E+02  0.15272570504E+03  0.50332839009E+03  0.52616302553E+03  0.00000000000E+00 0.  1.
<mgrwt>
<rscale>  4 0.21209784E+03</rscale>
<asrwt>0</asrwt>
<pdfrwt beam="1">  1       21 0.13089064E-01 0.21209784E+03</pdfrwt>
<pdfrwt beam="2">  1        2 0.16216064E+00 0.21209784E+03</pdfrwt>
<totfact> 0.15481017E+04</totfact>
</mgrwt>
</event>
<event>
 5    0  0.3040647E+000  0.2842321E+03  0.7546771E-02  0.1093400E+00
          2   -1    0    0  502    0 -0.00000000000E+00  0.00000000000E+00  0.74780592392E+03  0.74780592392E+03  0.00000000000E+00 0. -1.
         21   -1    0    0  503  502  0.00000000000E+00 -0.00000000000E+00 -0.58132100298E+03  0.58132100298E+03  0.00000000000E+00 0. -1.
         25    1    1    2    0    0  0.18137272999E+03 -0.17058699379E+03 -0.42831918267E+03  0.51095822909E+03  0.12500000000E+03 0.  0.
         21    1    1    2  503  501 -0.14813960768E+02 -0.23355031293E+02 -0.86323299739E+02  0.90645590064E+02  0.00000000000E+00 0. -1.
          2    1    1    2  501    0 -0.16655876922E+03  0.19394202509E+03  0.68112740335E+03  0.72752310774E+03  0.00000000000E+00 0. -1.
<mgrwt>
<rscale>  4 0.28423212E+03</rscale>
<asrwt>0</asrwt>
<pdfrwt beam="1">  1       21 0.89434001E-01 0.28423212E+03</pdfrwt>
<pdfrwt beam="2">  1        2 0.11504706E+00 0.28423212E+03</pdfrwt>
<totfact> 0.49457313E+02</totfact>
</mgrwt>
</event>
<event>
 5    0  0.3040647E+000  0.2537789E+03  0.7546771E-02  0.1110940E+00
         21   -1    0    0  501  502  0.00000000000E+00  0.00000000000E+00  0.54474424826E+02  0.54474424826E+02  0.00000000000E+00 0.  1.
         -4   -1    0    0    0  501 -0.00000000000E+00 -0.00000000000E+00 -0.21941318589E+04  0.21941318589E+04  0.00000000000E+00 0.  1.
         25    1    1    2    0    0 -0.17340362566E+03 -0.10245394241E+03 -0.51084723225E+03  0.56316562609E+03  0.12500000000E+03 0.  0.
         21    1    1    2  503  502  0.18180113469E+03  0.15973644531E+03 -0.50348686942E+03  0.55862904705E+03  0.00000000000E+00 0.  1.
         -4    1    1    2    0  503 -0.83975090224E+01 -0.57282502904E+02 -0.11253233324E+04  0.11268116106E+04  0.00000000000E+00 0.  1.
<mgrwt>
<rscale>  4 0.25377886E+03</rscale>
<asrwt>0</asrwt>
<pdfrwt beam="1">  1       21 0.83806819E-02 0.25377886E+03</pdfrwt>
<pdfrwt beam="2">  1       -4 0.33755870E+00 0.25377886E+03</pdfrwt>
<totfact> 0.10070647E+02</totfact>
</mgrwt>
</event>
<event>
 5    0  0.3040647E+000  0.3056997E+03  0.7546771E-02  0.1082426E+00
         21   -1    0    0  501  502  0.00000000000E+00  0.00000000000E+00  0.67656994217E+03  0.67656994217E+03  0.00000000000E+00 0.  1.
         -1   -1    0    0    0  501 -0.00000000000E+00 -0.00000000000E+00 -0.15605539517E+03  0.15605539517E+03  0.00000000000E+00 0. -1.
         25    1    1    2    0    0 -0.23088948370E+03 -0.89110604444E+02  0.27433331217E+03  0.39004412529E+03  0.12500000000E+03 0.  0.
         21    1    1    2  503  502 -0.51687895356E+02 -0.21571102467E+02  0.76732683323E+02  0.94999240407E+02  0.00000000000E+00 0.  1.
         -1    1    1    2    0  503  0.28257737906E+03  0.11068170691E+03  0.16944855151E+03  0.34758197163E+03  0.00000000000E+00 0. -1.
<mgrwt>
<rscale>  4 0.30569970E+03</rscale>
<asrwt>0</asrwt>
<pdfrwt beam="1">  1       21 0.10408768E+00 0.30569970E+03</pdfrwt>
<pdfrwt beam="2">  1       -1 0.24008523E-01 0.30569970E+03</pdfrwt>
<totfact> 0.97078047E+02</totfact>
</mgrwt>
</event>
<event>
 5    0  0.3040647E+000  0.2848340E+03  0.7546771E-02  0.1093078E+00
         -3   -1    0    0    0  501 -0.00000000000E+00  0.00000000000E+00  0.54785204923E+03  0.54785204923E+03  0.00000000000E+00 0.  1.
         21   -1    0    0  501  502  0.00000000000E+00 -0.00000000000E+00 -0.63242125209E+03  0.63242125209E+03  0.00000000000E+00 0. -1.
         25    1    1    2    0    0  0.19207008874E+03  0.11285883961E+03 -0.44920387494E+03  0.51675638160E+03  0.12500000000E+03 0.  0.
         21    1    1    2  503  502  0.33596137791E+02  0.12572069149E+02 -0.11409707814E+03  0.11960309627E+03  0.00000000000E+00 0. -1.
         -3    1    1    2    0  503 -0.22566622653E+03 -0.12543090876E+03  0.47873175022E+03  0.54391382345E+03  0.00000000000E+00 0.  1.
<mgrwt>
<rscale>  4 0.28483403E+03</rscale>
<asrwt>0</asrwt>
<pdfrwt beam="1">  1       21 0.97295577E-01 0.28483403E+03</pdfrwt>
<pdfrwt beam="2">  1       -3 0.84284931E-01 0.28483403E+03</pdfrwt>
<totfact> 0.55471453E+01</totfact>
</mgrwt>
</event>
<event>
 5    0  0.3040647E+000  0.6426469E+03  0.7546771E-02  0.9820676E-01
          2   -1    0    0  502    0 -0.00000000000E+00  0.00000000000E+00  0.18219912552E+04  0.18219912552E+04  0.00000000000E+00 0.  1.
         21   -1    0    0  503  502  0.00000000000E+00 -0.00000000000E+00 -0.37029404344E+03  0.37029404344E+03  0.00000000000E+00 0.  1.
         25    1    1    2    0    0 -0.65979979759E+03 -0.43718737352E+02  0.44581844697E+03  0.80723366417E+03  0.12500000000E+03 0.  0.
         21    1    1    2  503  501  0.44941842254E+02 -0.44783080044E+01 -0.10508363873E+03  0.11437830020E+03  0.00000000000E+00 0.  1.
          2    1    1    2  501    0  0.61485795534E+03  0.48197045356E+02  0.11109624035E+04  0.12706733343E+04  0.00000000000E+00 0.  1.
<mgrwt>
<rscale>  4 0.64264685E+03</rscale>
<asrwt>0</asrwt>
<pdfrwt beam="1">  1       21 0.56968315E-01 0.64264685E+03</pdfrwt>
<pdfrwt beam="2">  1        2 0.28030634E+00 0.64264685E+03</pdfrwt>
<totfact> 0.28540103E+02</totfact>
</mgrwt>
</event>
<event>
 5    0  0.3040647E+000  0.3383760E+03  0.7546771E-02  0.1067490E+00
          3   -1    0    0  502    0 -0.00000000000E+00  0.00000000000E+00  0.56848378136E+03  0.56848378136E+03  0.00000000000E+00 0. -1.
         21   -1    0    0  503  502  0.00000000000E+00 -0.00000000000E+00 -0.52193744165E+03  0.52193744165E+03  0.00000000000E+00 0.  1.
         25    1    1    2    0    0 -0.24872643979E+03  0.16705454958E+03 -0.32957963763E+03  0.46262274255E+03  0.12500000000E+03 0.  0.
         21    1    1    2  503  501 -0.40388201992E+01  0.23194509442E+02 -0.73979209319E+02  0.77635177260E+02  0.00000000000E+00 0.  1.
          3    1    1    2  501    0  0.25276525999E+03 -0.19024905902E+03  0.45010518667E+03  0.55016330320E+03  0.00000000000E+00 0. -1.
<mgrwt>
<rscale>  4 0.33837598E+03</rscale>
<asrwt>0</asrwt>
<pdfrwt beam="1">  1       21 0.80298068E-01 0.33837598E+03</pdfrwt>
<pdfrwt beam="2">  1        3 0.87459043E-01 0.33837598E+03</pdfrwt>
<totfact> 0.78888308E+01</totfact>
</mgrwt>
</event>
<event>
 5    0  0.3040647E+000  0.1836396E+03  0.7546771E-02  0.1164326E+00
          2   -1    0    0  502    0 -0.00000000000E+00  0.00000000000E+00  0.53468395690E+03  0.53468395690E+03  0.00000000000E+00 0. -1.
         21   -1    0    0  503  502  0.00000000000E+00 -0.00000000000E+00 -0.52648020637E+03  0.52648020637E+03  0.00000000000E+00 0.  1.
         25    1    1    2    0    0  0.96280169800E+01  0.21522740746E+03 -0.30820809490E+03  0.39627359916E+03  0.12500000000E+03 0.  0.
         21    1    1    2  503  501  0.35063136031E+02 -0.90332426470E+02 -0.15078018214E+03  0.17923178877E+03  0.00000000000E+00 0.  1.
          2    1    1    2  501    0 -0.44691153011E+02 -0.12489498099E+03  0.46719202757E+03  0.48565877534E+03  0.00000000000E+00 0. -1.
<mgrwt>
<rscale>  4 0.18363959E+03</rscale>
<asrwt>0</asrwt>
<pdfrwt beam="1">  1       21 0.80996955E-01 0.18363959E+03</pdfrwt>
<pdfrwt beam="2">  1        2 0.82259070E-01 0.18363959E+03</pdfrwt>
<totfact> 0.97209446E+02</totfact>
</mgrwt>
</event>
<event>
 5    0  0.3040647E+000  0.3016096E+03  0.7546771E-02  0.1084439E+00
         21   -1    0    0  503  502  0.00000000000E+00  0.00000000000E+00  0.75195108865E+03  0.75195108865E+03  0.00000000000E+00 0. -1.
          2   -1    0    0  502    0 -0.00000000000E+00 -0.00000000000E+00 -0.18021448247E+03  0.18021448247E+03  0.00000000000E+00 0.  1.
         25    1    1    2    0    0 -0.16741955098E+03  0.22251580829E+03  0.53215690374E+02  0.30983786194E+03  0.12500000000E+03 0.  0.
         21    1    1    2  503  501 -0.13053081035E+02 -0.24925456728E+02  0.21849031199E+03  0.22029452501E+03  0.00000000000E+00 0. -1.
          2    1    1    2  501    0  0.18047263202E+03 -0.19759035156E+03  0.30003060382E+03  0.40203318416E+03  0.00000000000E+00 0.  1.
<mgrwt>
<rscale>  4 0.30160959E+03</rscale>
<asrwt>0</asrwt>
<pdfrwt beam="1">  1       21 0.11568478E+00 0.30160959E+03</pdfrwt>
<pdfrwt beam="2">  1        2 0.27725305E-01 0.30160959E+03</pdfrwt>
<totfact> 0.13022140E+03</totfact>
</mgrwt>
</event>
<event>
 5    0  0.3040647E+000  0.5041538E+03  0.7546771E-02  0.1012700E+00
          1   -1    0    0  502    0 -0.00000000000E+00  0.00000000000E+00  0.11039323714E+04  0.11039323714E+04  0.00000000000E+00 0.  1.
         21   -1    0    0  503  502  0.00000000000E+00 -0.00000000000E+00 -0.61416097030E+03  0.61416097030E+03  0.00000000000E+00 0.  1.
         25    1    1    2    0    0  0.57224044894E+02 -0.51468327968E+03 -0.14563992865E+03  0.55227661413E+03  0.12500000000E+03 0.  0.
         21    1    1    2  503  501  0.40149538152E+02  0.41336487638E+02 -0.19592567493E+03  0.20422429024E+03  0.00000000000E+00 0.  1.
          1    1    1    2  501    0 -0.97373583046E+02  0.47334679204E+03  0.83133700468E+03  0.96159243735E+03  0.00000000000E+00 0.  1.
<mgrwt>
<rscale>  4 0.50415377E+03</rscale>
<asrwt>0</asrwt>
<pdfrwt beam="1">  1       21 0.94486303E-01 0.50415377E+03</pdfrwt>
<pdfrwt beam="2">  1        1 0.16983575E+00 0.50415377E+03</pdfrwt>
<totfact> 0.12108521E+02</totfact>
</mgrwt>
</event>
<event>
 5    0  0.3040647E+000  0.4191279E+03  0.7546771E-02  0.1037351E+00
          2   -1    0    0  502    0 -0.00000000000E+00  0.00000000000E+00  0.27739999582E+04  0.27739999582E+04  0.00000000000E+00 0. -1.
         21   -1    0    0  503  502  0.00000000000E+00 -0.00000000000E+00 -0.13597116483E+03  0.13597116483E+03  0.00000000000E+00 0.  1.
         25    1    1    2    0    0 -0.61232518854E+02 -0.39320363693E+03  0.26026088937E+03  0.49164952151E+03  0.12500000000E+03 0.  0.
         21    1    1    2  503  501 -0.19235593129E+02 -0.12336231790E+02  0.65263820073E+02  0.69148802364E+02  0.00000000000E+00 0.  1.
          2    1    1    2  501    0  0.80468111983E+02  0.40553986872E+03  0.23125040839E+04  0.23491727992E+04  0.00000000000E+00 0. -1.
<mgrwt>
<rscale>  4 0.41912794E+03</rscale>
<asrwt>0</asrwt>
<pdfrwt beam="1">  1       21 0.20918643E-01 0.41912794E+03</pdfrwt>
<pdfrwt beam="2">  1        2 0.42676918E+00 0.41912794E+03</pdfrwt>
<totfact> 0.69580158E+02</totfact>
</mgrwt>
</event>
<event>
 5    0  0.3040647E+000  0.3236357E+03  0.7546771E-02  0.1073988E+00
          4   -1    0    0  502    0 -0.00000000000E+00  0.00000000000E+00  0.27418734941E+03  0.27418734941E+03  0.00000000000E+00 0. -1.
         21   -1    0    0  503  502  0.00000000000E+00 -0.00000000000E+00 -0.59031557461E+03  0.59031557461E+03  0.00000000000E+00 0. -1.
         25    1    1    2    0    0 -0.24571631103E+03  0.18177232372E+03  0.58891537285E+02  0.33542643954E+03  0.12500000000E+03 0.  0.
         21    1    1    2  503  501 -0.46525704260E+01 -0.43435405382E+02 -0.17415626044E+03  0.17955134057E+03  0.00000000000E+00 0. -1.
          4    1    1    2  501    0  0.25036888145E+03 -0.13833691834E+03 -0.20086350204E+03  0.34952514392E+03  0.00000000000E+00 0. -1.
<mgrwt>
<rscale>  4 0.32363570E+03</rscale>
<asrwt>0</asrwt>
<pdfrwt beam="1">  1       21 0.90817781E-01 0.32363570E+03</pdfrwt>
<pdfrwt beam="2">  1        4 0.42182669E-01 0.32363570E+03</pdfrwt>
<totfact> 0.23156523E+02</totfact>
</mgrwt>
</event>
<event>
 5    0  0.3040647E+000  0.2566493E+03  0.7546771E-02  0.1109173E+00
          2   -1    0    0  502    0 -0.00000000000E+00  0.00000000000E+00  0.41538534504E+03  0.41538534504E+03  0.00000000000E+00 0.  1.
         21   -1    0    0  503  502  0.00000000000E+00 -0.00000000000E+00 -0.22422621526E+03  0.22422621526E+03  0.00000000000E+00 0.  1.
         25    1    1    2    0    0 -0.20018708045E+03 -0.84182149614E+02  0.65970452428E+02  0.25911117708E+03  0.12500000000E+03 0.  0.
         21    1    1    2  503  501 -0.23737100224E+01 -0.20782992098E+02 -0.74456507163E+02  0.77339115063E+02  0.00000000000E+00 0.  1.
          2    1    1    2  501    0  0.20256079047E+03  0.10496514171E+03  0.19964518452E+03  0.30316126816E+03  0.00000000000E+00 0.  1.
<mgrwt>
<rscale>  4 0.25664927E+03</rscale>
<asrwt>0</asrwt>
<pdfrwt beam="1">  1       21 0.34496341E-01 0.25664927E+03</pdfrwt>
<pdfrwt beam="2">  1        2 0.63905437E-01 0.25664927E+03</pdfrwt>
<totfact> 0.76179948E+03</totfact>
</mgrwt>
</event>
<event>
 5    0  0.3040647E+000  0.2502359E+03  0.7546771E-02  0.1113156E+00
         21   -1    0    0  503  502  0.00000000000E+00  0.00000000000E+00  0.41727691524E+03  0.41727691524E+03  0.00000000000E+00 0.  1.
          2   -1    0    0  502    0 -0.00000000000E+00 -0.00000000000E+00 -0.20614327245E+04  0.20614327245E+04  0.00000000000E+00 0. -1.
         25    1    1    2    0    0  0.84191879888E+02  0.24493557445E+03  0.42118678629E+02  0.29065562331E+03  0.12500000000E+03 0.  0.
         21    1    1    2  503  501 -0.12798577036E+02 -0.41859691849E+02  0.24294783118E+03  0.24685964848E+03  0.00000000000E+00 0.  1.
          2    1    1    2  501    0 -0.71393302852E+02 -0.20307588260E+03 -0.19292223190E+04  0.19411943679E+04  0.00000000000E+00 0. -1.
<mgrwt>
<rscale>  4 0.25023589E+03</rscale>
<asrwt>0</asrwt>
<pdfrwt beam="1">  1       21 0.64196447E-01 0.25023589E+03</pdfrwt>
<pdfrwt beam="2">  1        2 0.31714350E+00 0.25023589E+03</pdfrwt>
<totfact> 0.19124027E+02</totfact>
</mgrwt>
</event>
<event>
 5    0  0.3040647E+000  0.2672640E+03  0.7546771E-02  0.1102856E+00
         21   -1    0    0  503  502  0.00000000000E+00  0.00000000000E+00  0.73271778606E+02  0.73271778606E+02  0.00000000000E+00 0.  1.
          1   -1    0    0  502    0 -0.00000000000E+00 -0.00000000000E+00 -0.12793424745E+04  0.12793424745E+04  0.00000000000E+00 0.  1.
         25    1    1    2    0    0  0.12603024712E+03  0.19897115950E+03 -0.26769069233E+03  0.37783124840E+03  0.12500000000E+03 0.  0.
         21    1    1    2  503  501  0.19581929591E+02 -0.95321137967E+01 -0.44849580933E+02  0.49857778428E+02  0.00000000000E+00 0. -1.
          1    1    1    2  501    0 -0.14561217672E+03 -0.18943904571E+03 -0.89353042264E+03  0.92492522629E+03  0.00000000000E+00 0.  1.
<mgrwt>
<rscale>  4 0.26726399E+03</rscale>
<asrwt>0</asrwt>
<pdfrwt beam="1">  1       21 0.11272581E-01 0.26726399E+03</pdfrwt>
<pdfrwt beam="2">  1        1 0.19682193E+00 0.26726399E+03</pdfrwt>
<totfact> 0.73085943E+03</totfact>
</mgrwt>
</event>
<event>
 5    0  0.3040647E+000  0.3376998E+03  0.7546771E-02  0.1067780E+00
         21   -1    0    0  503  502  0.00000000000E+00  0.00000000000E+00  0.21280731451E+03  0.21280731451E+03  0.00000000000E+00 0.  1.
          1   -1    0    0  502    0 -0.00000000000E+00 -0.00000000000E+00 -0.10996046671E+04  0.10996046671E+04  0.00000000000E+00 0.  1.
         25    1    1    2    0    0  0.13470802019E+03 -0.29811572088E+03 -0.74640029128E+03  0.82447415276E+03  0.12500000000E+03 0.  0.
         21    1    1    2  503  501 -0.10653938631E+03  0.29266259671E+03  0.32072044996E+02  0.31309847080E+03  0.00000000000E+00 0.  1.
          1    1    1    2  501    0 -0.28168633879E+02  0.54531241692E+01 -0.17246910628E+03  0.17483935804E+03  0.00000000000E+00 0.  1.
<mgrwt>
<rscale>  4 0.33769984E+03</rscale>
<asrwt>0</asrwt>
<pdfrwt beam="1">  1       21 0.32739587E-01 0.33769984E+03</pdfrwt>
<pdfrwt beam="2">  1        1 0.16916995E+00 0.33769984E+03</pdfrwt>
<totfact> 0.12851583E+03</totfact>
</mgrwt>
</event>
<event>
 5    0  0.3706738E+000  0.2248889E+03  0.7546771E-02  0.1130290E+00
         21   -1    0    0  503  502  0.00000000000E+00  0.00000000000E+00  0.29176469638E+03  0.29176469638E+03  0.00000000000E+00 0.  1.
          2   -1    0    0  502    0 -0.00000000000E+00 -0.00000000000E+00 -0.19353827029E+04  0.19353827029E+04  0.00000000000E+00 0. -1.
         25    1    1    2    0    0  0.48939281926E+02  0.20725851676E+03  0.22387722018E+03  0.33331239971E+03  0.12500000000E+03 0.  0.
         21    1    1    2  503  501 -0.29128645063E+02 -0.21777323950E+02 -0.30706047818E+02  0.47598226587E+02  0.00000000000E+00 0. -1.
          2    1    1    2  501    0 -0.19810636863E+02 -0.18548119281E+03 -0.18367891789E+04  0.18462367730E+04  0.00000000000E+00 0. -1.
<mgrwt>
<rscale>  4 0.22488895E+03</rscale>
<asrwt>0</asrwt>
<pdfrwt beam="1">  1       21 0.44886876E-01 0.22488895E+03</pdfrwt>
<pdfrwt beam="2">  1        2 0.29775119E+00 0.22488895E+03</pdfrwt>
<totfact> 0.48403014E+02</totfact>
</mgrwt>
</event>
<event>
 5    0  0.3040647E+000  0.2171279E+03  0.7546771E-02  0.1136043E+00
         21   -1    0    0  501  502  0.00000000000E+00  0.00000000000E+00  0.38607164178E+03  0.38607164178E+03  0.00000000000E+00 0. -1.
         -2   -1    0    0    0  501 -0.00000000000E+00 -0.00000000000E+00 -0.73856980850E+03  0.73856980850E+03  0.00000000000E+00 0. -1.
         25    1    1    2    0    0 -0.21664236360E+02  0.26198667746E+03 -0.35366849902E+02  0.29322716855E+03  0.12500000000E+03 0.  0.
         21    1    1    2  503  502 -0.41803690394E+02 -0.10424296104E+03  0.23135574541E+03  0.25717625161E+03  0.00000000000E+00 0. -1.
         -2    1    1    2    0  503  0.63467926755E+02 -0.15774371642E+03 -0.54848706223E+03  0.57423803012E+03  0.00000000000E+00 0. -1.
<mgrwt>
<rscale>  4 0.21712786E+03</rscale>
<asrwt>0</asrwt>
<pdfrwt beam="1">  1       21 0.59395638E-01 0.21712786E+03</pdfrwt>
<pdfrwt beam="2">  1       -2 0.11362612E+00 0.21712786E+03</pdfrwt>
<totfact> 0.13630715E+02</totfact>
</mgrwt>
</event>
<event>
 5    0  0.3040647E+000  0.2757681E+03  0.7546771E-02  0.1098023E+00
         21   -1    0    0  503  502  0.00000000000E+00  0.00000000000E+00  0.26902494662E+03  0.26902494662E+03  0.00000000000E+00 0.  1.
          1   -1    0    0  502    0 -0.00000000000E+00 -0.00000000000E+00 -0.43569157402E+03  0.43569157402E+03  0.00000000000E+00 0.  1.
         25    1    1    2    0    0  0.13142724592E+03 -0.21899002110E+03  0.12325101066E+02  0.28461668684E+03  0.12500000000E+03 0.  0.
         21    1    1    2  503  501  0.56907605754E+02  0.60743546317E+02  0.38536654963E+02  0.91724194123E+02  0.00000000000E+00 0.  1.
          1    1    1    2  501    0 -0.18833485167E+03  0.15824647478E+03 -0.21752838343E+03  0.32837563968E+03  0.00000000000E+00 0.  1.
<mgrwt>
<rscale>  4 0.27576806E+03</rscale>
<asrwt>0</asrwt>
<pdfrwt beam="1">  1       21 0.41388454E-01 0.27576806E+03</pdfrwt>
<pdfrwt beam="2">  1        1 0.67029472E-01 0.27576806E+03</pdfrwt>
<totfact> 0.32701396E+03</totfact>
</mgrwt>
</event>
<event>
 5    0  0.3040647E+000  0.3347891E+03  0.7546771E-02  0.1069037E+00
         21   -1    0    0  503  502  0.00000000000E+00  0.00000000000E+00  0.98404370984E+02  0.98404370984E+02  0.00000000000E+00 0. -1.
          2   -1    0    0  502    0 -0.00000000000E+00 -0.00000000000E+00 -0.21585452103E+04  0.21585452103E+04  0.00000000000E+00 0. -1.
         25    1    1    2    0    0 -0.18249958671E+03  0.25254412016E+03 -0.26632009659E+03  0.42852774195E+03  0.12500000000E+03 0.  0.
         21    1    1    2  503  501  0.34399373803E+02  0.17050608353E+02 -0.10459011258E+03  0.11141423523E+03  0.00000000000E+00 0. -1.
          2    1    1    2  501    0  0.14810021290E+03 -0.26959472851E+03 -0.16892306302E+04  0.17170076041E+04  0.00000000000E+00 0. -1.
<mgrwt>
<rscale>  4 0.33478914E+03</rscale>
<asrwt>0</asrwt>
<pdfrwt beam="1">  1       21 0.15139135E-01 0.33478914E+03</pdfrwt>
<pdfrwt beam="2">  1        2 0.33208386E+00 0.33478914E+03</pdfrwt>
<totfact> 0.28823613E+03</totfact>
</mgrwt>
</event>
<event>
 5    0  0.3040647E+000  0.2220085E+03  0.7546771E-02  0.1132394E+00
          2   -1    0    0  502    0 -0.00000000000E+00  0.00000000000E+00  0.22117642980E+04  0.22117642980E+04  0.00000000000E+00 0.  1.
         21   -1    0    0  503  502  0.00000000000E+00 -0.00000000000E+00 -0.70673857437E+02  0.70673857437E+02  0.00000000000E+00 0.  1.
         25    1    1    2    0    0  0.38978560271E+01  0.24090135882E+03  0.32495441176E+03  0.42340173321E+03  0.12500000000E+03 0.  0.
         21    1    1    2  503  501 -0.44690227954E+02 -0.66893551724E+02  0.79072340062E+02  0.11280247648E+03  0.00000000000E+00 0. -1.
          2    1    1    2  501    0  0.40792371927E+02 -0.17400780710E+03  0.17370636887E+04  0.17462339457E+04  0.00000000000E+00 0.  1.
<mgrwt>
<rscale>  4 0.22200848E+03</rscale>
<asrwt>0</asrwt>
<pdfrwt beam="1">  1       21 0.10872903E-01 0.22200848E+03</pdfrwt>
<pdfrwt beam="2">  1        2 0.34027138E+00 0.22200848E+03</pdfrwt>
<totfact> 0.51492010E+03</totfact>
</mgrwt>
</event>
<event>
 5    0  0.3040647E+000  0.4364542E+03  0.7546771E-02  0.1031840E+00
          2   -1    0    0  502    0 -0.00000000000E+00  0.00000000000E+00  0.13323166633E+04  0.13323166633E+04  0.00000000000E+00 0.  1.
         21   -1    0    0  503  502  0.00000000000E+00 -0.00000000000E+00 -0.46781168535E+03  0.46781168535E+03  0.00000000000E+00 0.  1.
         25    1    1    2    0    0 -0.27630774637E+03 -0.51093833590E+02 -0.25962776977E+03  0.40247748928E+03  0.12500000000E+03 0.  0.
         21    1    1    2  503  501 -0.15567789390E+03  0.11704863083E+03  0.34711567246E+01  0.19480256045E+03  0.00000000000E+00 0. -1.
          2    1    1    2  501    0  0.43198564027E+03 -0.65954797243E+02  0.11206615910E+04  0.12028482990E+04  0.00000000000E+00 0.  1.
<mgrwt>
<rscale>  4 0.43645423E+03</rscale>
<asrwt>0</asrwt>
<pdfrwt beam="1">  1       21 0.71971029E-01 0.43645423E+03</pdfrwt>
<pdfrwt beam="2">  1        2 0.20497179E+00 0.43645423E+03</pdfrwt>
<totfact> 0.33314526E+02</totfact>
</mgrwt>
</event>
<event>
 5    0  0.3040647E+000  0.3649159E+03  0.7546771E-02  0.1056654E+00
         21   -1    0    0  503  502  0.00000000000E+00  0.00000000000E+00  0.30348103518E+04  0.30348103518E+04  0.00000000000E+00 0.  1.
          2   -1    0    0  502    0 -0.00000000000E+00 -0.00000000000E+00 -0.12012516751E+04  0.12012516751E+04  0.00000000000E+00 0. -1.
         25    1    1    2    0    0  0.14744652208E+03 -0.41001764700E+03  0.24508182483E+04  0.24923864135E+04  0.12500000000E+03 0.  0.
         21    1    1    2  503  501 -0.47611193995E+02  0.83007419495E+02  0.53410850163E+03  0.54261307485E+03  0.00000000000E+00 0.  1.
          2    1    1    2  501    0 -0.99835328084E+02  0.32701022751E+03 -0.11513680733E+04  0.12010625387E+04  0.00000000000E+00 0. -1.
<mgrwt>
<rscale>  4 0.36491594E+03</rscale>
<asrwt>0</asrwt>
<pdfrwt beam="1">  1       21 0.46689390E+00 0.36491594E+03</pdfrwt>
<pdfrwt beam="2">  1        2 0.18480795E+00 0.36491594E+03</pdfrwt>
<totfact> 0.63485532E-01</totfact>
</mgrwt>
</event>
<event>
 5    0  0.3040647E+000  0.2596338E+03  0.7546771E-02  0.1107363E+00
         21   -1    0    0  501  502  0.00000000000E+00  0.00000000000E+00  0.32644696078E+03  0.32644696078E+03  0.00000000000E+00 0.  1.
         -1   -1    0    0    0  501 -0.00000000000E+00 -0.00000000000E+00 -0.27543643413E+03  0.27543643413E+03  0.00000000000E+00 0.  1.
         25    1    1    2    0    0  0.22721964370E+03  0.69289152418E+01  0.11861460129E+03  0.28525637589E+03  0.12500000000E+03 0.  0.
         21    1    1    2  503  502 -0.29089389268E+01  0.35999776253E+02  0.48465445503E+02  0.60442908796E+02  0.00000000000E+00 0. -1.
         -1    1    1    2    0  503 -0.22431070477E+03 -0.42928691495E+02 -0.11606952014E+03  0.25618411023E+03  0.00000000000E+00 0.  1.
<mgrwt>
<rscale>  4 0.25963383E+03</rscale>
<asrwt>0</asrwt>
<pdfrwt beam="1">  1       21 0.50222609E-01 0.25963383E+03</pdfrwt>
<pdfrwt beam="2">  1       -1 0.42374836E-01 0.25963383E+03</pdfrwt>
<totfact> 0.18972168E+03</totfact>
</mgrwt>
</event>
<event>
 5    0  0.3040647E+000  0.4244133E+03  0.7546771E-02  0.1035639E+00
         21   -1    0    0  503  502  0.00000000000E+00  0.00000000000E+00  0.74629103923E+03  0.74629103923E+03  0.00000000000E+00 0.  1.
          1   -1    0    0  502    0 -0.00000000000E+00 -0.00000000000E+00 -0.60310670946E+03  0.60310670946E+03  0.00000000000E+00 0. -1.
         25    1    1    2    0    0  0.30499186525E+03  0.18441251935E+03  0.31254039736E+03  0.49023924276E+03  0.12500000000E+03 0.  0.
         21    1    1    2  503  501  0.17458045915E+02  0.79542563302E+02  0.25303199292E+03  0.26581382993E+03  0.00000000000E+00 0.  1.
          1    1    1    2  501    0 -0.32244991116E+03 -0.26395508265E+03 -0.42238806051E+03  0.59334467599E+03  0.00000000000E+00 0. -1.
<mgrwt>
<rscale>  4 0.42441332E+03</rscale>
<asrwt>0</asrwt>
<pdfrwt beam="1">  1       21 0.11481401E+00 0.42441332E+03</pdfrwt>
<pdfrwt beam="2">  1        1 0.92785647E-01 0.42441332E+03</pdfrwt>
<totfact> 0.20329173E+02</totfact>
</mgrwt>
</event>
<event>
 5    0  0.3040647E+000  0.2390660E+03  0.7546771E-02  0.1120417E+00
         21   -1    0    0  503  502  0.00000000000E+00  0.00000000000E+00  0.26519525718E+03  0.26519525718E+03  0.00000000000E+00 0. -1.
          1   -1    0    0  502    0 -0.00000000000E+00 -0.00000000000E+00 -0.11029863618E+04  0.11029863618E+04  0.00000000000E+00 0. -1.
         25    1    1    2    0    0  0.21266524072E+03  0.25961642158E+02 -0.15829774656E+03  0.29425106294E+03  0.12500000000E+03 0.  0.
         21    1    1    2  503  501 -0.10531694416E+02 -0.37951001212E+02  0.18340817850E+03  0.18758932544E+03  0.00000000000E+00 0. -1.
          1    1    1    2  501    0 -0.20213354631E+03  0.11989359054E+02 -0.86290153653E+03  0.88634123058E+03  0.00000000000E+00 0. -1.
<mgrwt>
<rscale>  4 0.23906599E+03</rscale>
<asrwt>0</asrwt>
<pdfrwt beam="1">  1       21 0.40799270E-01 0.23906599E+03</pdfrwt>
<pdfrwt beam="2">  1        1 0.16969021E+00 0.23906599E+03</pdfrwt>
<totfact> 0.85311060E+02</totfact>
</mgrwt>
</event>
<event>
 5    0  0.3040647E+000  0.2332040E+03  0.7546771E-02  0.1124405E+00
          2   -1    0    0  502    0 -0.00000000000E+00  0.00000000000E+00  0.14826889559E+04  0.14826889559E+04  0.00000000000E+00 0. -1.
         21   -1    0    0  503  502  0.00000000000E+00 -0.00000000000E+00 -0.50555297435E+03  0.50555297435E+03  0.00000000000E+00 0.  1.
         25    1    1    2    0    0  0.12824251248E+03 -0.16684933689E+03 -0.33725886292E+03  0.41671739086E+03  0.12500000000E+03 0.  0.
         21    1    1    2  503  501  0.28859805297E+01  0.20310956300E+02 -0.12099797369E+03  0.12272478750E+03  0.00000000000E+00 0.  1.
          2    1    1    2  501    0 -0.13112849301E+03  0.14653838059E+03  0.14353928182E+04  0.14487997519E+04  0.00000000000E+00 0. -1.
<mgrwt>
<rscale>  4 0.23320395E+03</rscale>
<asrwt>0</asrwt>
<pdfrwt beam="1">  1       21 0.77777381E-01 0.23320395E+03</pdfrwt>
<pdfrwt beam="2">  1        2 0.22810599E+00 0.23320395E+03</pdfrwt>
<totfact> 0.25460507E+02</totfact>
</mgrwt>
</event>
<event>
 5    0  0.3040647E+000  0.2524593E+03  0.7546771E-02  0.1111760E+00
         21   -1    0    0  503  502  0.00000000000E+00  0.00000000000E+00  0.55368104541E+03  0.55368104541E+03  0.00000000000E+00 0.  1.
          1   -1    0    0  502    0 -0.00000000000E+00 -0.00000000000E+00 -0.10163722118E+04  0.10163722118E+04  0.00000000000E+00 0. -1.
         25    1    1    2    0    0  0.21573359833E+03  0.84393425438E+01  0.43685312013E+03  0.50306844119E+03  0.12500000000E+03 0.  0.
         21    1    1    2  503  501  0.31331068171E+01 -0.24653468872E+02  0.69285880474E+02  0.73608037053E+02  0.00000000000E+00 0. -1.
          1    1    1    2  501    0 -0.21886670515E+03  0.16214126328E+02 -0.96883016696E+03  0.99337677893E+03  0.00000000000E+00 0. -1.
<mgrwt>
<rscale>  4 0.25245926E+03</rscale>
<asrwt>0</asrwt>
<pdfrwt beam="1">  1       21 0.85181700E-01 0.25245926E+03</pdfrwt>
<pdfrwt beam="2">  1        1 0.15636495E+00 0.25245926E+03</pdfrwt>
<totfact> 0.19986978E+02</totfact>
</mgrwt>
</event>
<event>
 5    0  0.3040647E+000  0.2500554E+03  0.7546771E-02  0.1113270E+00
          2   -1    0    0  502    0 -0.00000000000E+00  0.00000000000E+00  0.15058108494E+04  0.15058108494E+04  0.00000000000E+00 0. -1.
         21   -1    0    0  503  502  0.00000000000E+00 -0.00000000000E+00 -0.67918964705E+02  0.67918964705E+02  0.00000000000E+00 0. -1.
         25    1    1    2    0    0 -0.11876512778E+03 -0.16648892022E+03  0.31315612561E+03  0.39435450440E+03  0.12500000000E+03 0.  0.
         21    1    1    2  503  501 -0.93078039560E+02  0.20316571610E+02  0.24908922172E+03  0.26668656679E+03  0.00000000000E+00 0. -1.
          2    1    1    2  501    0  0.21184316734E+03  0.14617234861E+03  0.87564653739E+03  0.91268874294E+03  0.00000000000E+00 0. -1.
<mgrwt>
<rscale>  4 0.25005536E+03</rscale>
<asrwt>0</asrwt>
<pdfrwt beam="1">  1       21 0.10449073E-01 0.25005536E+03</pdfrwt>
<pdfrwt beam="2">  1        2 0.23166318E+00 0.25005536E+03</pdfrwt>
<totfact> 0.12850636E+04</totfact>
</mgrwt>
</event>
<event>
 5    0  0.3040647E+000  0.6036603E+03  0.7546771E-02  0.9897841E-01
         21   -1    0    0  503  502  0.00000000000E+00  0.00000000000E+00  0.46801470643E+03  0.46801470643E+03  0.00000000000E+00 0. -1.
          1   -1    0    0  502    0 -0.00000000000E+00 -0.00000000000E+00 -0.11248629652E+04  0.11248629652E+04  0.00000000000E+00 0. -1.
         25    1    1    2    0    0 -0.54576380440E+03 -0.16318954696E+03 -0.35459278432E+03  0.68253205135E+03  0.12500000000E+03 0.  0.
         21    1    1    2  503  501  0.31524778912E+02 -0.21315412390E+03 -0.30670581623E+02  0.21764461123E+03  0.00000000000E+00 0. -1.
          1    1    1    2  501    0  0.51423902548E+03  0.37634367086E+03 -0.27158489281E+03  0.69270100904E+03  0.00000000000E+00 0. -1.
<mgrwt>
<rscale>  4 0.60366025E+03</rscale>
<asrwt>0</asrwt>
<pdfrwt beam="1">  1       21 0.72002264E-01 0.60366025E+03</pdfrwt>
<pdfrwt beam="2">  1        1 0.17305584E+00 0.60366025E+03</pdfrwt>
<totfact> 0.21471663E+02</totfact>
</mgrwt>
</event>
<event>
 5    0  0.3040647E+000  0.2452773E+03  0.7546771E-02  0.1116326E+00
         21   -1    0    0  503  502  0.00000000000E+00  0.00000000000E+00  0.11817315175E+04  0.11817315175E+04  0.00000000000E+00 0.  1.
          1   -1    0    0  502    0 -0.00000000000E+00 -0.00000000000E+00 -0.21481145483E+03  0.21481145483E+03  0.00000000000E+00 0. -1.
         25    1    1    2    0    0 -0.15406438420E+03 -0.14866079406E+03  0.77131576449E+03  0.81017829811E+03  0.12500000000E+03 0.  0.
         21    1    1    2  503  501  0.20513576026E+02 -0.14584334918E+02  0.33345087798E+03  0.33439945821E+03  0.00000000000E+00 0. -1.
          1    1    1    2  501    0  0.13355080817E+03  0.16324512898E+03 -0.13784657983E+03  0.25196521599E+03  0.00000000000E+00 0. -1.
<mgrwt>
<rscale>  4 0.24527730E+03</rscale>
<asrwt>0</asrwt>
<pdfrwt beam="1">  1       21 0.18180484E+00 0.24527730E+03</pdfrwt>
<pdfrwt beam="2">  1        1 0.33047917E-01 0.24527730E+03</pdfrwt>
<totfact> 0.24795122E+02</totfact>
</mgrwt>
</event>
<event>
 5    0  0.3040647E+000  0.2439835E+03  0.7546771E-02  0.1117167E+00
          2   -1    0    0  502    0 -0.00000000000E+00  0.00000000000E+00  0.16386309746E+04  0.16386309746E+04  0.00000000000E+00 0. -1.
         21   -1    0    0  503  502  0.00000000000E+00 -0.00000000000E+00 -0.13416943831E+04  0.13416943831E+04  0.00000000000E+00 0.  1.
         25    1    1    2    0    0  0.20646090013E+03  0.16279452385E+03  0.17019845598E+02  0.29162104763E+03  0.12500000000E+03 0.  0.
         21    1    1    2  503  501 -0.33481371472E+02 -0.49501339654E+02 -0.11964428401E+04  0.11979344116E+04  0.00000000000E+00 0.  1.
          2    1    1    2  501    0 -0.17297952866E+03 -0.11329318419E+03  0.14763595860E+04  0.14907698985E+04  0.00000000000E+00 0. -1.
<mgrwt>
<rscale>  4 0.24398349E+03</rscale>
<asrwt>0</asrwt>
<pdfrwt beam="1">  1       21 0.20641452E+00 0.24398349E+03</pdfrwt>
<pdfrwt beam="2">  1        2 0.25209708E+00 0.24398349E+03</pdfrwt>
<totfact> 0.17056454E+01</totfact>
</mgrwt>
</event>
<event>
 5    0  0.3040647E+000  0.2683059E+03  0.7546771E-02  0.1102253E+00
         21   -1    0    0  503  502  0.00000000000E+00  0.00000000000E+00  0.14460264767E+04  0.14460264767E+04  0.00000000000E+00 0.  1.
          1   -1    0    0  502    0 -0.00000000000E+00 -0.00000000000E+00 -0.92600723731E+02  0.92600723731E+02  0.00000000000E+00 0.  1.
         25    1    1    2    0    0  0.27771779779E+03 -0.13190642545E+03  0.77645427517E+03  0.84441264895E+03  0.12500000000E+03 0.  0.
         21    1    1    2  503  501 -0.20076001449E+03  0.23554937695E+02  0.50304191729E+03  0.54213521289E+03  0.00000000000E+00 0.  1.
          1    1    1    2  501    0 -0.76957783306E+02  0.10835148775E+03  0.73929560530E+02  0.15207933860E+03  0.00000000000E+00 0.  1.
<mgrwt>
<rscale>  4 0.26830587E+03</rscale>
<asrwt>0</asrwt>
<pdfrwt beam="1">  1       21 0.22246560E+00 0.26830587E+03</pdfrwt>
<pdfrwt beam="2">  1        1 0.14246266E-01 0.26830587E+03</pdfrwt>
<totfact> 0.39408889E+02</totfact>
</mgrwt>
</event>
<event>
 5    0  0.3040647E+000  0.2650044E+03  0.7546771E-02  0.1104173E+00
         21   -1    0    0  503  502  0.00000000000E+00  0.00000000000E+00  0.13146491410E+03  0.13146491410E+03  0.00000000000E+00 0.  1.
          1   -1    0    0  502    0 -0.00000000000E+00 -0.00000000000E+00 -0.11980909684E+04  0.11980909684E+04  0.00000000000E+00 0.  1.
         25    1    1    2    0    0 -0.24786924107E+03 -0.13532045429E+03 -0.21278111745E+03  0.37503545161E+03  0.12500000000E+03 0.  0.
         21    1    1    2  503  501  0.17856543960E+03  0.88556945432E+02 -0.15982757921E+03  0.25548542792E+03  0.00000000000E+00 0.  1.
          1    1    1    2  501    0  0.69303801469E+02  0.46763508862E+02 -0.69401735765E+03  0.69903500297E+03  0.00000000000E+00 0.  1.
<mgrwt>
<rscale>  4 0.26500436E+03</rscale>
<asrwt>0</asrwt>
<pdfrwt beam="1">  1       21 0.20225371E-01 0.26500436E+03</pdfrwt>
<pdfrwt beam="2">  1        1 0.18432169E+00 0.26500436E+03</pdfrwt>
<totfact> 0.28464587E+03</totfact>
</mgrwt>
</event>
<event>
 5    0  0.3040647E+000  0.3126714E+03  0.7546771E-02  0.1079072E+00
         21   -1    0    0  503  502  0.00000000000E+00  0.00000000000E+00  0.10784951364E+03  0.10784951364E+03  0.00000000000E+00 0. -1.
          1   -1    0    0  502    0 -0.00000000000E+00 -0.00000000000E+00 -0.16077435042E+04  0.16077435042E+04  0.00000000000E+00 0.  1.
         25    1    1    2    0    0  0.35253878542E+03  0.20391509728E+02 -0.50246278723E+03  0.62673220872E+03  0.12500000000E+03 0.  0.
         21    1    1    2  503  501 -0.85662448466E+02 -0.10986597934E+02 -0.40539250871E+02  0.95405404839E+02  0.00000000000E+00 0. -1.
          1    1    1    2  501    0 -0.26687633696E+03 -0.94049117939E+01 -0.95689195242E+03  0.99345540423E+03  0.00000000000E+00 0.  1.
<mgrwt>
<rscale>  4 0.31267137E+03</rscale>
<asrwt>0</asrwt>
<pdfrwt beam="1">  1       21 0.16592233E-01 0.31267137E+03</pdfrwt>
<pdfrwt beam="2">  1        1 0.24734515E+00 0.31267137E+03</pdfrwt>
<totfact> 0.21425498E+03</totfact>
</mgrwt>
</event>
<event>
 5    0  0.3040647E+000  0.2458641E+03  0.7546771E-02  0.1115947E+00
          1   -1    0    0  502    0 -0.00000000000E+00  0.00000000000E+00  0.55752617280E+03  0.55752617280E+03  0.00000000000E+00 0.  1.
         21   -1    0    0  503  502  0.00000000000E+00 -0.00000000000E+00 -0.46347962704E+03  0.46347962704E+03  0.00000000000E+00 0.  1.
         25    1    1    2    0    0  0.11393029284E+03  0.18269363223E+03 -0.37116004426E+03  0.44692488556E+03  0.12500000000E+03 0.  0.
         21    1    1    2  503  501 -0.12565886530E+03 -0.15073392830E+03  0.12608730873E+03  0.23325710491E+03  0.00000000000E+00 0.  1.
          1    1    1    2  501    0  0.11728572457E+02 -0.31959703928E+02  0.33911928129E+03  0.34082380936E+03  0.00000000000E+00 0.  1.
<mgrwt>
<rscale>  4 0.24586410E+03</rscale>
<asrwt>0</asrwt>
<pdfrwt beam="1">  1       21 0.71304558E-01 0.24586410E+03</pdfrwt>
<pdfrwt beam="2">  1        1 0.85773257E-01 0.24586410E+03</pdfrwt>
<totfact> 0.74678951E+02</totfact>
</mgrwt>
</event>
<event>
 5    0  0.3040647E+000  0.2383846E+03  0.7546771E-02  0.1120874E+00
          1   -1    0    0  502    0 -0.00000000000E+00  0.00000000000E+00  0.97979748666E+03  0.97979748666E+03  0.00000000000E+00 0.  1.
         21   -1    0    0  503  502  0.00000000000E+00 -0.00000000000E+00 -0.89798595076E+02  0.89798595076E+02  0.00000000000E+00 0.  1.
         25    1    1    2    0    0 -0.21022922787E+03  0.83684700485E+02  0.26797294437E+03  0.37233581114E+03  0.12500000000E+03 0.  0.
         21    1    1    2  503  501  0.17892787494E+03 -0.51247722487E+02  0.20142564985E+03  0.27425135534E+03  0.00000000000E+00 0.  1.
          1    1    1    2  501    0  0.31301352925E+02 -0.32436977998E+02  0.42060029737E+03  0.42300891525E+03  0.00000000000E+00 0.  1.
<mgrwt>
<rscale>  4 0.23838463E+03</rscale>
<asrwt>0</asrwt>
<pdfrwt beam="1">  1       21 0.13815169E-01 0.23838463E+03</pdfrwt>
<pdfrwt beam="2">  1        1 0.15073807E+00 0.23838463E+03</pdfrwt>
<totfact> 0.83615060E+03</totfact>
</mgrwt>
</event>
<event>
 5    0  0.3040647E+000  0.3260486E+03  0.7546771E-02  0.1072899E+00
          1   -1    0    0  502    0 -0.00000000000E+00  0.00000000000E+00  0.12087096940E+04  0.12087096940E+04  0.00000000000E+00 0.  1.
         21   -1    0    0  503  502  0.00000000000E+00 -0.00000000000E+00 -0.37611604855E+03  0.37611604855E+03  0.00000000000E+00 0. -1.
         25    1    1    2    0    0  0.30204398748E+03  0.60810879649E+02 -0.26266402810E+03  0.42372859842E+03  0.12500000000E+03 0.  0.
         21    1    1    2  503  501 -0.11561525280E+02  0.17141452887E+02 -0.43254266592E+01  0.21123626338E+02  0.00000000000E+00 0. -1.
          1    1    1    2  501    0 -0.29048246220E+03 -0.77952332536E+02  0.10995831003E+04  0.11399735178E+04  0.00000000000E+00 0.  1.
<mgrwt>
<rscale>  4 0.32604863E+03</rscale>
<asrwt>0</asrwt>
<pdfrwt beam="1">  1       21 0.57864008E-01 0.32604863E+03</pdfrwt>
<pdfrwt beam="2">  1        1 0.18595534E+00 0.32604863E+03</pdfrwt>
<totfact> 0.33121837E+02</totfact>
</mgrwt>
</event>
<event>
 5    0  0.3040647E+000  0.1879310E+03  0.7546771E-02  0.1160341E+00
          2   -1    0    0  502    0 -0.00000000000E+00  0.00000000000E+00  0.16717545248E+04  0.16717545248E+04  0.00000000000E+00 0. -1.
         21   -1    0    0  503  502  0.00000000000E+00 -0.00000000000E+00 -0.34357442407E+02  0.34357442407E+02  0.00000000000E+00 0. -1.
         25    1    1    2    0    0 -0.17623223947E+02  0.20404270992E+03  0.70377368922E+03  0.74354987132E+03  0.12500000000E+03 0.  0.
         21    1    1    2  503  501 -0.14326966486E+01 -0.11462916171E+03  0.27973482335E+03  0.30231352720E+03  0.00000000000E+00 0. -1.
          2    1    1    2  501    0  0.19055920595E+02 -0.89413548216E+02  0.65388856978E+03  0.66024856865E+03  0.00000000000E+00 0. -1.
<mgrwt>
<rscale>  4 0.18793103E+03</rscale>
<asrwt>0</asrwt>
<pdfrwt beam="1">  1       21 0.52857616E-02 0.18793103E+03</pdfrwt>
<pdfrwt beam="2">  1        2 0.25719294E+00 0.18793103E+03</pdfrwt>
<totfact> 0.34950723E+04</totfact>
</mgrwt>
</event>
<event>
 5    0  0.3040647E+000  0.2325892E+03  0.7546771E-02  0.1124831E+00
          1   -1    0    0  502    0 -0.00000000000E+00  0.00000000000E+00  0.13120342948E+04  0.13120342948E+04  0.00000000000E+00 0. -1.
         21   -1    0    0  503  502  0.00000000000E+00 -0.00000000000E+00 -0.47127727084E+02  0.47127727084E+02  0.00000000000E+00 0.  1.
         25    1    1    2    0    0 -0.70163057780E+02  0.20000080489E+03  0.44377334829E+03  0.50742778923E+03  0.12500000000E+03 0.  0.
         21    1    1    2  503  501  0.45135013817E+01 -0.21097429834E+02  0.24594497909E+02  0.32716396007E+02  0.00000000000E+00 0.  1.
          1    1    1    2  501    0  0.65649556398E+02 -0.17890337506E+03  0.79653872155E+03  0.81901783667E+03  0.00000000000E+00 0. -1.
<mgrwt>
<rscale>  4 0.23258919E+03</rscale>
<asrwt>0</asrwt>
<pdfrwt beam="1">  1       21 0.72504206E-02 0.23258919E+03</pdfrwt>
<pdfrwt beam="2">  1        1 0.20185140E+00 0.23258919E+03</pdfrwt>
<totfact> 0.15266886E+04</totfact>
</mgrwt>
</event>
<event>
 5    0  0.3040647E+000  0.2560863E+03  0.7546771E-02  0.1109518E+00
          1   -1    0    0  502    0 -0.00000000000E+00  0.00000000000E+00  0.36308790991E+03  0.36308790991E+03  0.00000000000E+00 0.  1.
         21   -1    0    0  503  502  0.00000000000E+00 -0.00000000000E+00 -0.25669511815E+03  0.25669511815E+03  0.00000000000E+00 0. -1.
         25    1    1    2    0    0  0.13747210672E+03  0.19364252092E+03 -0.49716825681E+02  0.27293363441E+03  0.12500000000E+03 0.  0.
         21    1    1    2  503  501  0.23007982612E+02 -0.42855507231E+02 -0.31172722069E+02  0.57772834145E+02  0.00000000000E+00 0.  1.
          1    1    1    2  501    0 -0.16048008934E+03 -0.15078701368E+03  0.18728233951E+03  0.28907655951E+03  0.00000000000E+00 0.  1.
<mgrwt>
<rscale>  4 0.25608630E+03</rscale>
<asrwt>0</asrwt>
<pdfrwt beam="1">  1       21 0.39491557E-01 0.25608630E+03</pdfrwt>
<pdfrwt beam="2">  1        1 0.55859679E-01 0.25608630E+03</pdfrwt>
<totfact> 0.45743188E+03</totfact>
</mgrwt>
</event>
<event>
 5    0  0.3040647E+000  0.4220822E+03  0.7546771E-02  0.1036803E+00
         21   -1    0    0  503  502  0.00000000000E+00  0.00000000000E+00  0.77898629782E+03  0.77898629782E+03  0.00000000000E+00 0.  1.
          2   -1    0    0  502    0 -0.00000000000E+00 -0.00000000000E+00 -0.22873649037E+03  0.22873649037E+03  0.00000000000E+00 0. -1.
         25    1    1    2    0    0 -0.96095041373E+02  0.38606134532E+03  0.32897221187E+03  0.53115471899E+03  0.12500000000E+03 0.  0.
         21    1    1    2  503  501  0.55287861255E+02 -0.28811420011E+03  0.22604214544E+03  0.37035333321E+03  0.00000000000E+00 0.  1.
          2    1    1    2  501    0  0.40807180118E+02 -0.97947145215E+02 -0.47645498474E+01  0.10621473598E+03  0.00000000000E+00 0. -1.
<mgrwt>
<rscale>  4 0.42080996E+03</rscale>
<asrwt>0</asrwt>
<pdfrwt beam="1">  1       21 0.11984404E+00 0.42208216E+03</pdfrwt>
<pdfrwt beam="2">  1        2 0.35190230E-01 0.42208216E+03</pdfrwt>
<totfact> 0.88414098E+02</totfact>
</mgrwt>
</event>
<event>
 5    0  0.3040647E+000  0.2394730E+03  0.7546771E-02  0.1120144E+00
         21   -1    0    0  503  502  0.00000000000E+00  0.00000000000E+00  0.99672846693E+03  0.99672846693E+03  0.00000000000E+00 0. -1.
          1   -1    0    0  502    0 -0.00000000000E+00 -0.00000000000E+00 -0.12498946531E+03  0.12498946531E+03  0.00000000000E+00 0. -1.
         25    1    1    2    0    0 -0.24342036677E+03  0.12801030966E+03  0.25284693827E+03  0.39395010919E+03  0.12500000000E+03 0.  0.
         21    1    1    2  503  501  0.17539611239E+03 -0.72965568869E+02  0.61106529671E+03  0.63991293730E+03  0.00000000000E+00 0. -1.
          1    1    1    2  501    0  0.68024254381E+02 -0.55044740792E+02  0.78267666398E+01  0.87854885743E+02  0.00000000000E+00 0. -1.
<mgrwt>
<rscale>  4 0.23947297E+03</rscale>
<asrwt>0</asrwt>
<pdfrwt beam="1">  1       21 0.15334284E+00 0.23947297E+03</pdfrwt>
<pdfrwt beam="2">  1        1 0.19229149E-01 0.23947297E+03</pdfrwt>
<totfact> 0.79482729E+02</totfact>
</mgrwt>
</event>
<event>
 5    0  0.3040647E+000  0.2607913E+03  0.7546771E-02  0.1106669E+00
         21   -1    0    0  501  502  0.00000000000E+00  0.00000000000E+00  0.11581808244E+03  0.11581808244E+03  0.00000000000E+00 0. -1.
         -3   -1    0    0    0  501 -0.00000000000E+00 -0.00000000000E+00 -0.17829816533E+04  0.17829816533E+04  0.00000000000E+00 0.  1.
         25    1    1    2    0    0 -0.21689313725E+03  0.98422227221E+02 -0.85822024960E+02  0.28234728220E+03  0.12500000000E+03 0.  0.
         21    1    1    2  503  502  0.16968035242E+02  0.11519597070E+02 -0.18781454966E+01  0.20594726683E+02  0.00000000000E+00 0. -1.
         -3    1    1    2    0  503  0.19992510201E+03 -0.10994182429E+03 -0.15794634004E+04  0.15958577269E+04  0.00000000000E+00 0.  1.
<mgrwt>
<rscale>  4 0.26079133E+03</rscale>
<asrwt>0</asrwt>
<pdfrwt beam="1">  1       21 0.17818169E-01 0.26079133E+03</pdfrwt>
<pdfrwt beam="2">  1       -3 0.27430483E+00 0.26079133E+03</pdfrwt>
<totfact> 0.84098918E+01</totfact>
</mgrwt>
</event>
<event>
 5    0  0.3040647E+000  0.2415999E+03  0.7546771E-02  0.1118732E+00
         21   -1    0    0  503  502  0.00000000000E+00  0.00000000000E+00  0.31365677014E+03  0.31365677014E+03  0.00000000000E+00 0. -1.
          1   -1    0    0  502    0 -0.00000000000E+00 -0.00000000000E+00 -0.18186266042E+04  0.18186266042E+04  0.00000000000E+00 0. -1.
         25    1    1    2    0    0 -0.82920677379E+02 -0.23839079314E+03 -0.14259895378E+03  0.31569838550E+03  0.12500000000E+03 0.  0.
         21    1    1    2  503  501  0.33565304447E+02  0.41089038516E+02  0.21739780406E+03  0.22377833666E+03  0.00000000000E+00 0. -1.
          1    1    1    2  501    0  0.49355372932E+02  0.19730175462E+03 -0.15797686843E+04  0.15928066522E+04  0.00000000000E+00 0. -1.
<mgrwt>
<rscale>  4 0.24159992E+03</rscale>
<asrwt>0</asrwt>
<pdfrwt beam="1">  1       21 0.48254888E-01 0.24159992E+03</pdfrwt>
<pdfrwt beam="2">  1        1 0.27978871E+00 0.24159992E+03</pdfrwt>
<totfact> 0.19960766E+02</totfact>
</mgrwt>
</event>
<event>
 5    0  0.3040647E+000  0.2618744E+03  0.7546771E-02  0.1106022E+00
          1   -1    0    0  502    0 -0.00000000000E+00  0.00000000000E+00  0.10009635754E+04  0.10009635754E+04  0.00000000000E+00 0. -1.
         21   -1    0    0  503  502  0.00000000000E+00 -0.00000000000E+00 -0.16484856059E+03  0.16484856059E+03  0.00000000000E+00 0. -1.
         25    1    1    2    0    0 -0.17076729595E+00  0.20940901860E+03  0.84191840559E+02  0.25800277566E+03  0.12500000000E+03 0.  0.
         21    1    1    2  503  501  0.55431135036E+02  0.19140715939E+02 -0.46905116522E+02  0.75093726063E+02  0.00000000000E+00 0. -1.
          1    1    1    2  501    0 -0.55260367740E+02 -0.22854973454E+03  0.79882829078E+03  0.83271563426E+03  0.00000000000E+00 0. -1.
<mgrwt>
<rscale>  4 0.26187440E+03</rscale>
<asrwt>0</asrwt>
<pdfrwt beam="1">  1       21 0.25361318E-01 0.26187440E+03</pdfrwt>
<pdfrwt beam="2">  1        1 0.15399439E+00 0.26187440E+03</pdfrwt>
<totfact> 0.25713879E+03</totfact>
</mgrwt>
</event>
<event>
 5    0  0.3040647E+000  0.2331753E+03  0.7546771E-02  0.1124425E+00
          2   -1    0    0  502    0 -0.00000000000E+00  0.00000000000E+00  0.35139807272E+04  0.35139807272E+04  0.00000000000E+00 0. -1.
         21   -1    0    0  503  502  0.00000000000E+00 -0.00000000000E+00 -0.11720448759E+03  0.11720448759E+03  0.00000000000E+00 0.  1.
         25    1    1    2    0    0  0.20373712264E+03  0.10701446106E+02  0.26340618255E+02  0.24071178671E+03  0.12500000000E+03 0.  0.
         21    1    1    2  503  501 -0.72560319007E+01 -0.19356884513E+02  0.78053587999E+01  0.22096664974E+02  0.00000000000E+00 0.  1.
          2    1    1    2  501    0 -0.19648109074E+03  0.86554384071E+01  0.33626302626E+04  0.33683767631E+04  0.00000000000E+00 0. -1.
<mgrwt>
<rscale>  4 0.23317529E+03</rscale>
<asrwt>0</asrwt>
<pdfrwt beam="1">  1       21 0.18031462E-01 0.23317529E+03</pdfrwt>
<pdfrwt beam="2">  1        2 0.54061234E+00 0.23317529E+03</pdfrwt>
<totfact> 0.35639204E+02</totfact>
</mgrwt>
</event>
<event>
 5    0  0.3040647E+000  0.3128505E+03  0.7546771E-02  0.1078988E+00
         21   -1    0    0  503  502  0.00000000000E+00  0.00000000000E+00  0.23203138147E+03  0.23203138147E+03  0.00000000000E+00 0.  1.
          2   -1    0    0  502    0 -0.00000000000E+00 -0.00000000000E+00 -0.67002241393E+03  0.67002241393E+03  0.00000000000E+00 0.  1.
         25    1    1    2    0    0  0.28350335209E+03 -0.25744879716E+02 -0.29911953974E+03  0.43143301743E+03  0.12500000000E+03 0.  0.
         21    1    1    2  503  501  0.20513382803E+01 -0.21224590323E+02  0.95733388307E+02  0.98079421185E+02  0.00000000000E+00 0.  1.
          2    1    1    2  501    0 -0.28555469037E+03  0.46969470039E+02 -0.23460488103E+03  0.37254135678E+03  0.00000000000E+00 0.  1.
<mgrwt>
<rscale>  4 0.31285054E+03</rscale>
<asrwt>0</asrwt>
<pdfrwt beam="1">  1       21 0.35697136E-01 0.31285054E+03</pdfrwt>
<pdfrwt beam="2">  1        2 0.10308037E+00 0.31285054E+03</pdfrwt>
<totfact> 0.40658918E+03</totfact>
</mgrwt>
</event>
<event>
 5    0  0.3040647E+000  0.3044385E+03  0.7546771E-02  0.1083043E+00
          1   -1    0    0  502    0 -0.00000000000E+00  0.00000000000E+00  0.60161817780E+03  0.60161817780E+03  0.00000000000E+00 0. -1.
         21   -1    0    0  503  502  0.00000000000E+00 -0.00000000000E+00 -0.24032995103E+03  0.24032995103E+03  0.00000000000E+00 0. -1.
         25    1    1    2    0    0  0.82847516275E+02 -0.25953013943E+03  0.22311225805E+03  0.37366252678E+03  0.12500000000E+03 0.  0.
         21    1    1    2  503  501 -0.14413902727E+02 -0.14434071921E+02 -0.98034911117E+02  0.10013464346E+03  0.00000000000E+00 0. -1.
          1    1    1    2  501    0 -0.68433613548E+02  0.27396421135E+03  0.23621087983E+03  0.36815095859E+03  0.00000000000E+00 0. -1.
<mgrwt>
<rscale>  4 0.30443854E+03</rscale>
<asrwt>0</asrwt>
<pdfrwt beam="1">  1       21 0.36973839E-01 0.30443854E+03</pdfrwt>
<pdfrwt beam="2">  1        1 0.92556642E-01 0.30443854E+03</pdfrwt>
<totfact> 0.26429375E+03</totfact>
</mgrwt>
</event>
<event>
 5    0  0.3040647E+000  0.2855260E+03  0.7546771E-02  0.1092708E+00
         21   -1    0    0  503  502  0.00000000000E+00  0.00000000000E+00  0.17219139726E+03  0.17219139726E+03  0.00000000000E+00 0.  1.
          1   -1    0    0  502    0 -0.00000000000E+00 -0.00000000000E+00 -0.66720639185E+03  0.66720639185E+03  0.00000000000E+00 0.  1.
         25    1    1    2    0    0 -0.26204499312E+03  0.51034182662E+02 -0.46975843515E+03  0.55458998694E+03  0.12500000000E+03 0.  0.
         21    1    1    2  503  501  0.36312551576E+02  0.11673758492E+02  0.24457549231E+02  0.45310592069E+02  0.00000000000E+00 0.  1.
          1    1    1    2  501    0  0.22573244154E+03 -0.62707941153E+02 -0.49714108668E+02  0.23949721011E+03  0.00000000000E+00 0.  1.
<mgrwt>
<rscale>  4 0.28552595E+03</rscale>
<asrwt>0</asrwt>
<pdfrwt beam="1">  1       21 0.26490984E-01 0.28552595E+03</pdfrwt>
<pdfrwt beam="2">  1        1 0.10264714E+00 0.28552595E+03</pdfrwt>
<totfact> 0.44346686E+03</totfact>
</mgrwt>
</event>
<event>
 5    0  0.3040647E+000  0.2296169E+03  0.7546771E-02  0.1126910E+00
         21   -1    0    0  503  502  0.00000000000E+00  0.00000000000E+00  0.47403956758E+02  0.47403956758E+02  0.00000000000E+00 0. -1.
          2   -1    0    0  502    0 -0.00000000000E+00 -0.00000000000E+00 -0.22875902762E+04  0.22875902762E+04  0.00000000000E+00 0. -1.
         25    1    1    2    0    0  0.20010406320E+03  0.18510060725E+02 -0.48783636273E+03  0.54221174394E+03  0.12500000000E+03 0.  0.
         21    1    1    2  503  501 -0.13706948255E+02 -0.68663845775E+02 -0.68664776379E+02  0.98068627309E+02  0.00000000000E+00 0. -1.
          2    1    1    2  501    0 -0.18639711495E+03  0.50153785050E+02 -0.16836851803E+04  0.16947138617E+04  0.00000000000E+00 0. -1.
<mgrwt>
<rscale>  4 0.22961693E+03</rscale>
<asrwt>0</asrwt>
<pdfrwt beam="1">  1       21 0.72929155E-02 0.22961693E+03</pdfrwt>
<pdfrwt beam="2">  1        2 0.35193701E+00 0.22961693E+03</pdfrwt>
<totfact> 0.94456407E+03</totfact>
</mgrwt>
</event>
<event>
 5    0  0.3040647E+000  0.2860863E+03  0.7546771E-02  0.1092410E+00
         21   -1    0    0  503  502  0.00000000000E+00  0.00000000000E+00  0.33411425144E+03  0.33411425144E+03  0.00000000000E+00 0. -1.
          2   -1    0    0  502    0 -0.00000000000E+00 -0.00000000000E+00 -0.14081137847E+04  0.14081137847E+04  0.00000000000E+00 0.  1.
         25    1    1    2    0    0 -0.21015323063E+02 -0.28997856045E+03  0.23197750861E+03  0.39238727531E+03  0.12500000000E+03 0.  0.
         21    1    1    2  503  501 -0.10758081171E+02  0.35968787643E+02 -0.28949498570E+02  0.47408474584E+02  0.00000000000E+00 0. -1.
          2    1    1    2  501    0  0.31773404234E+02  0.25400977281E+03 -0.12770275433E+04  0.13024322862E+04  0.00000000000E+00 0.  1.
<mgrwt>
<rscale>  4 0.28608630E+03</rscale>
<asrwt>0</asrwt>
<pdfrwt beam="1">  1       21 0.51402193E-01 0.28608630E+03</pdfrwt>
<pdfrwt beam="2">  1        2 0.21663289E+00 0.28608630E+03</pdfrwt>
<totfact> 0.66949472E+02</totfact>
</mgrwt>
</event>
<event>
 5    0  0.3040647E+000  0.2356849E+03  0.7546771E-02  0.1122701E+00
          2   -1    0    0  502    0 -0.00000000000E+00  0.00000000000E+00  0.33582963957E+03  0.33582963957E+03  0.00000000000E+00 0. -1.
         21   -1    0    0  503  502  0.00000000000E+00 -0.00000000000E+00 -0.32201048729E+03  0.32201048729E+03  0.00000000000E+00 0. -1.
         25    1    1    2    0    0 -0.21966454388E+03 -0.33551308178E+02  0.21061245529E+03  0.33069745757E+03  0.12500000000E+03 0.  0.
         21    1    1    2  503  501  0.23700259848E+02  0.16410379627E+02  0.19478742117E+02  0.34791152192E+02  0.00000000000E+00 0.  1.
          2    1    1    2  501    0  0.19596428404E+03  0.17140928551E+02 -0.21627204513E+03  0.29235151710E+03  0.00000000000E+00 0. -1.
<mgrwt>
<rscale>  4 0.23568495E+03</rscale>
<asrwt>0</asrwt>
<pdfrwt beam="1">  1       21 0.49540075E-01 0.23568495E+03</pdfrwt>
<pdfrwt beam="2">  1        2 0.51666099E-01 0.23568495E+03</pdfrwt>
<totfact> 0.46068598E+03</totfact>
</mgrwt>
</event>
<event>
 5    0  0.3040647E+000  0.3147585E+03  0.7546771E-02  0.1078087E+00
          3   -1    0    0  502    0 -0.00000000000E+00  0.00000000000E+00  0.24419001981E+03  0.24419001981E+03  0.00000000000E+00 0. -1.
         21   -1    0    0  503  502  0.00000000000E+00 -0.00000000000E+00 -0.58902211420E+03  0.58902211420E+03  0.00000000000E+00 0. -1.
         25    1    1    2    0    0  0.19878191031E+03  0.25039690427E+03 -0.32428244867E+03  0.47222554363E+03  0.12500000000E+03 0.  0.
         21    1    1    2  503  501 -0.29851046107E+02 -0.27490904705E+02 -0.66150990955E+02  0.77606626003E+02  0.00000000000E+00 0. -1.
          3    1    1    2  501    0 -0.16893086421E+03 -0.22290599957E+03  0.45601345229E+02  0.28337996438E+03  0.00000000000E+00 0. -1.
<mgrwt>
<rscale>  4 0.31475855E+03</rscale>
<asrwt>0</asrwt>
<pdfrwt beam="1">  1       21 0.90618786E-01 0.31475855E+03</pdfrwt>
<pdfrwt beam="2">  1        3 0.37567696E-01 0.31475855E+03</pdfrwt>
<totfact> 0.34808817E+02</totfact>
</mgrwt>
</event>
<event>
 5    0  0.3040647E+000  0.2990410E+03  0.7546771E-02  0.1085721E+00
          2   -1    0    0  502    0 -0.00000000000E+00  0.00000000000E+00  0.32163068964E+04  0.32163068964E+04  0.00000000000E+00 0.  1.
         21   -1    0    0  503  502  0.00000000000E+00 -0.00000000000E+00 -0.79323050881E+02  0.79323050881E+02  0.00000000000E+00 0.  1.
         25    1    1    2    0    0  0.21126193524E+03  0.22134779289E+02  0.15755324499E+04  0.15946940316E+04  0.12500000000E+03 0.  0.
         21    1    1    2  503  501 -0.28089458438E+03 -0.30044162178E+02  0.22104684987E+03  0.35870061200E+03  0.00000000000E+00 0.  1.
          2    1    1    2  501    0  0.69632649143E+02  0.79093828892E+01  0.13404045457E+04  0.13422353036E+04  0.00000000000E+00 0.  1.
<mgrwt>
<rscale>  4 0.29904103E+03</rscale>
<asrwt>0</asrwt>
<pdfrwt beam="1">  1       21 0.12203549E-01 0.29904103E+03</pdfrwt>
<pdfrwt beam="2">  1        2 0.49481634E+00 0.29904103E+03</pdfrwt>
<totfact> 0.10839556E+03</totfact>
</mgrwt>
</event>
<event>
 5    0  0.3040647E+000  0.2824003E+03  0.7546771E-02  0.1094385E+00
         21   -1    0    0  503  502  0.00000000000E+00  0.00000000000E+00  0.33867979414E+03  0.33867979414E+03  0.00000000000E+00 0.  1.
          3   -1    0    0  502    0 -0.00000000000E+00 -0.00000000000E+00 -0.32311488149E+03  0.32311488149E+03  0.00000000000E+00 0.  1.
         25    1    1    2    0    0 -0.18831273487E+03 -0.20201080527E+03 -0.61512597846E+02  0.30931998198E+03  0.12500000000E+03 0.  0.
         21    1    1    2  503  501  0.47227081384E+02  0.14576149122E+02  0.10516440360E+03  0.11619988435E+03  0.00000000000E+00 0. -1.
          3    1    1    2  501    0  0.14108565349E+03  0.18743465614E+03 -0.28086893103E+02  0.23627480930E+03  0.00000000000E+00 0.  1.
<mgrwt>
<rscale>  4 0.28240033E+03</rscale>
<asrwt>0</asrwt>
<pdfrwt beam="1">  1       21 0.52104584E-01 0.28240033E+03</pdfrwt>
<pdfrwt beam="2">  1        3 0.49709982E-01 0.28240033E+03</pdfrwt>
<totfact> 0.68877790E+02</totfact>
</mgrwt>
</event>
<event>
 5    0  0.3040647E+000  0.2639548E+03  0.7546771E-02  0.1104790E+00
          2   -1    0    0  502    0 -0.00000000000E+00  0.00000000000E+00  0.16280583590E+04  0.16280583590E+04  0.00000000000E+00 0.  1.
         21   -1    0    0  503  502  0.00000000000E+00 -0.00000000000E+00 -0.72264473275E+02  0.72264473275E+02  0.00000000000E+00 0.  1.
         25    1    1    2    0    0 -0.21946562961E+03  0.12411081874E+02  0.27222485331E+03  0.37155156882E+03  0.12500000000E+03 0.  0.
         21    1    1    2  503  501 -0.15422648631E+02 -0.30735583942E+02  0.13352143574E+02  0.36889211825E+02  0.00000000000E+00 0. -1.
          2    1    1    2  501    0  0.23488827824E+03  0.18324502068E+02  0.12702168888E+04  0.12918820516E+04  0.00000000000E+00 0.  1.
<mgrwt>
<rscale>  4 0.26395484E+03</rscale>
<asrwt>0</asrwt>
<pdfrwt beam="1">  1       21 0.11117613E-01 0.26395484E+03</pdfrwt>
<pdfrwt beam="2">  1        2 0.25047049E+00 0.26395484E+03</pdfrwt>
<totfact> 0.98646758E+03</totfact>
</mgrwt>
</event>
<event>
 5    0  0.3040647E+000  0.2642372E+03  0.7546771E-02  0.1104624E+00
         21   -1    0    0  501  502  0.00000000000E+00  0.00000000000E+00  0.46563042313E+02  0.46563042313E+02  0.00000000000E+00 0. -1.
         -4   -1    0    0    0  501 -0.00000000000E+00 -0.00000000000E+00 -0.16573373769E+04  0.16573373769E+04  0.00000000000E+00 0.  1.
         25    1    1    2    0    0 -0.15344877499E+03  0.18912376860E+03 -0.61768593992E+03  0.67562951887E+03  0.12500000000E+03 0.  0.
         21    1    1    2  503  502 -0.12592968307E+02 -0.44048358639E+02 -0.15124882800E+03  0.15803496044E+03  0.00000000000E+00 0. -1.
         -4    1    1    2    0  503  0.16604174330E+03 -0.14507540996E+03 -0.84183956666E+03  0.87023593990E+03  0.00000000000E+00 0.  1.
<mgrwt>
<rscale>  4 0.26423718E+03</rscale>
<asrwt>0</asrwt>
<pdfrwt beam="1">  1       21 0.71635453E-02 0.26423718E+03</pdfrwt>
<pdfrwt beam="2">  1       -4 0.25497497E+00 0.26423718E+03</pdfrwt>
<totfact> 0.41004499E+02</totfact>
</mgrwt>
</event>
<event>
 5    0  0.3040647E+000  0.3144148E+03  0.7546771E-02  0.1078249E+00
         21   -1    0    0  501  502  0.00000000000E+00  0.00000000000E+00  0.17381359771E+03  0.17381359771E+03  0.00000000000E+00 0. -1.
         -1   -1    0    0    0  501 -0.00000000000E+00 -0.00000000000E+00 -0.88217494676E+03  0.88217494676E+03  0.00000000000E+00 0. -1.
         25    1    1    2    0    0  0.78883277065E+02  0.28574612721E+03 -0.19198796805E+03  0.37464356460E+03  0.12500000000E+03 0.  0.
         21    1    1    2  503  502  0.13467303712E+02 -0.15414149944E+02  0.46125029388E+02  0.50462685460E+02  0.00000000000E+00 0.  1.
         -1    1    1    2    0  503 -0.92350580777E+02 -0.27033197727E+03 -0.56249841039E+03  0.63088229441E+03  0.00000000000E+00 0. -1.
<mgrwt>
<rscale>  4 0.31441483E+03</rscale>
<asrwt>0</asrwt>
<pdfrwt beam="1">  1       21 0.26740553E-01 0.31441483E+03</pdfrwt>
<pdfrwt beam="2">  1       -1 0.13571922E+00 0.31441483E+03</pdfrwt>
<totfact> 0.58814749E+02</totfact>
</mgrwt>
</event>
<event>
 5    0  0.3040647E+000  0.2456757E+03  0.7546771E-02  0.1116069E+00
         21   -1    0    0  503  502  0.00000000000E+00  0.00000000000E+00  0.39474464839E+03  0.39474464839E+03  0.00000000000E+00 0.  1.
          2   -1    0    0  502    0 -0.00000000000E+00 -0.00000000000E+00 -0.29947756090E+03  0.29947756090E+03  0.00000000000E+00 0.  1.
         25    1    1    2    0    0 -0.55345707496E+02 -0.22461211895E+03  0.26416387726E+03  0.37272148498E+03  0.12500000000E+03 0.  0.
         21    1    1    2  503  501  0.13386393504E+00  0.23355882333E+02  0.26700923025E+02  0.35474701542E+02  0.00000000000E+00 0.  1.
          2    1    1    2  501    0  0.55211843561E+02  0.20125623662E+03 -0.19559771279E+03  0.28602602276E+03  0.00000000000E+00 0.  1.
<mgrwt>
<rscale>  4 0.24567568E+03</rscale>
<asrwt>0</asrwt>
<pdfrwt beam="1">  1       21 0.60729946E-01 0.24567568E+03</pdfrwt>
<pdfrwt beam="2">  1        2 0.46073471E-01 0.24567568E+03</pdfrwt>
<totfact> 0.33704827E+03</totfact>
</mgrwt>
</event>
<event>
 5    0  0.3040647E+000  0.3017724E+03  0.7546771E-02  0.1084358E+00
         21   -1    0    0  503  502  0.00000000000E+00  0.00000000000E+00  0.11218663999E+04  0.11218663999E+04  0.00000000000E+00 0. -1.
          2   -1    0    0  502    0 -0.00000000000E+00 -0.00000000000E+00 -0.86444154363E+03  0.86444154363E+03  0.00000000000E+00 0. -1.
         25    1    1    2    0    0 -0.30266972959E+03 -0.48629597822E+02  0.45605310140E+03  0.56354523713E+03  0.12500000000E+03 0.  0.
         21    1    1    2  503  501  0.26008780955E+03 -0.17555080282E+02  0.58224345731E+03  0.63793517939E+03  0.00000000000E+00 0. -1.
          2    1    1    2  501    0  0.42581920041E+02  0.66184678104E+02 -0.78087170243E+03  0.78482752703E+03  0.00000000000E+00 0. -1.
<mgrwt>
<rscale>  4 0.30177245E+03</rscale>
<asrwt>0</asrwt>
<pdfrwt beam="1">  1       21 0.17259483E+00 0.30177245E+03</pdfrwt>
<pdfrwt beam="2">  1        2 0.13299101E+00 0.30177245E+03</pdfrwt>
<totfact> 0.76229716E+01</totfact>
</mgrwt>
</event>
<event>
 5    0  0.3040647E+000  0.1730368E+03  0.7546771E-02  0.1174717E+00
         21   -1    0    0  503  502  0.00000000000E+00  0.00000000000E+00  0.11150259902E+04  0.11150259902E+04  0.00000000000E+00 0. -1.
          2   -1    0    0  502    0 -0.00000000000E+00 -0.00000000000E+00 -0.32713168194E+03  0.32713168194E+03  0.00000000000E+00 0.  1.
         25    1    1    2    0    0  0.18334555581E+03 -0.88513769977E+02  0.21392444362E+03  0.32068512265E+03  0.12500000000E+03 0.  0.
         21    1    1    2  503  501 -0.10311087943E+03  0.47712110758E+02  0.83637575341E+03  0.84405728470E+03  0.00000000000E+00 0. -1.
          2    1    1    2  501    0 -0.80234676385E+02  0.40801659219E+02 -0.26240588875E+03  0.27741526480E+03  0.00000000000E+00 0.  1.
<mgrwt>
<rscale>  4 0.17303681E+03</rscale>
<asrwt>0</asrwt>
<pdfrwt beam="1">  1       21 0.17154246E+00 0.17303681E+03</pdfrwt>
<pdfrwt beam="2">  1        2 0.50327952E-01 0.17303681E+03</pdfrwt>
<totfact> 0.26148962E+02</totfact>
</mgrwt>
</event>
<event>
 5    0  0.3040647E+000  0.2729126E+03  0.7546771E-02  0.1099624E+00
         21   -1    0    0  503  502  0.00000000000E+00  0.00000000000E+00  0.68061779146E+03  0.68061779146E+03  0.00000000000E+00 0.  1.
          2   -1    0    0  502    0 -0.00000000000E+00 -0.00000000000E+00 -0.22469093713E+03  0.22469093713E+03  0.00000000000E+00 0. -1.
         25    1    1    2    0    0 -0.24919282674E+03 -0.81118269011E+02  0.53654380709E+03  0.61006679585E+03  0.12500000000E+03 0.  0.
         21    1    1    2  503  501  0.22750743118E+02  0.17541370646E+01  0.24322735884E+02  0.33350693998E+02  0.00000000000E+00 0. -1.
          2    1    1    2  501    0  0.22644208363E+03  0.79364131946E+02 -0.10493968865E+03  0.26189123875E+03  0.00000000000E+00 0. -1.
<mgrwt>
<rscale>  4 0.27291264E+03</rscale>
<asrwt>0</asrwt>
<pdfrwt beam="1">  1       21 0.10471043E+00 0.27291264E+03</pdfrwt>
<pdfrwt beam="2">  1        2 0.34567837E-01 0.27291264E+03</pdfrwt>
<totfact> 0.13158045E+03</totfact>
</mgrwt>
</event>
<event>
 5    0  0.3040647E+000  0.2421520E+03  0.7546771E-02  0.1118367E+00
         21   -1    0    0  501  502  0.00000000000E+00  0.00000000000E+00  0.31266135028E+03  0.31266135028E+03  0.00000000000E+00 0.  1.
         -2   -1    0    0    0  501 -0.00000000000E+00 -0.00000000000E+00 -0.33624341533E+03  0.33624341533E+03  0.00000000000E+00 0.  1.
         25    1    1    2    0    0  0.15733566068E+03  0.18706317040E+03  0.13047901883E+03  0.30396860726E+03  0.12500000000E+03 0.  0.
         21    1    1    2  503  502  0.51128760719E+01 -0.68767642271E+02  0.27374537814E+02  0.74192286970E+02  0.00000000000E+00 0. -1.
         -2    1    1    2    0  503 -0.16244853675E+03 -0.11829552813E+03 -0.18143562170E+03  0.27074387138E+03  0.00000000000E+00 0.  1.
<mgrwt>
<rscale>  4 0.24215204E+03</rscale>
<asrwt>0</asrwt>
<pdfrwt beam="1">  1       21 0.48101746E-01 0.24215204E+03</pdfrwt>
<pdfrwt beam="2">  1       -2 0.51729756E-01 0.24215204E+03</pdfrwt>
<totfact> 0.11834231E+03</totfact>
</mgrwt>
</event>
<event>
 5    0  0.3040647E+000  0.2730578E+03  0.7546771E-02  0.1099542E+00
          2   -1    0    0  502    0 -0.00000000000E+00  0.00000000000E+00  0.17298849668E+04  0.17298849668E+04  0.00000000000E+00 0. -1.
         21   -1    0    0  503  502  0.00000000000E+00 -0.00000000000E+00 -0.77264092505E+02  0.77264092505E+02  0.00000000000E+00 0.  1.
         25    1    1    2    0    0 -0.95042879607E+02 -0.24484526759E+03  0.41706357213E+03  0.50847750906E+03  0.12500000000E+03 0.  0.
         21    1    1    2  503  501  0.26918017031E+02  0.16782607179E+02 -0.78577955061E+01  0.32679970851E+02  0.00000000000E+00 0. -1.
          2    1    1    2  501    0  0.68124862576E+02  0.22806266041E+03  0.12434150976E+04  0.12659915794E+04  0.00000000000E+00 0. -1.
<mgrwt>
<rscale>  4 0.27305776E+03</rscale>
<asrwt>0</asrwt>
<pdfrwt beam="1">  1       21 0.11886785E-01 0.27305776E+03</pdfrwt>
<pdfrwt beam="2">  1        2 0.26613612E+00 0.27305776E+03</pdfrwt>
<totfact> 0.77074506E+03</totfact>
</mgrwt>
</event>
<event>
 5    0  0.3040647E+000  0.4011062E+03  0.7546771E-02  0.1043397E+00
         21   -1    0    0  501  502  0.00000000000E+00  0.00000000000E+00  0.78641546095E+03  0.78641546095E+03  0.00000000000E+00 0. -1.
         -2   -1    0    0    0  501 -0.00000000000E+00 -0.00000000000E+00 -0.32871772257E+03  0.32871772257E+03  0.00000000000E+00 0. -1.
         25    1    1    2    0    0  0.34293080901E+03 -0.18903657867E+03  0.40963163837E+03  0.58030978537E+03  0.12500000000E+03 0.  0.
         21    1    1    2  503  502 -0.86500180120E+00  0.27732546163E+02  0.14237341814E+03  0.14505182708E+03  0.00000000000E+00 0.  1.
         -2    1    1    2    0  503 -0.34206580721E+03  0.16130403250E+03 -0.94307318137E+02  0.38977157108E+03  0.00000000000E+00 0. -1.
<mgrwt>
<rscale>  4 0.40110624E+03</rscale>
<asrwt>0</asrwt>
<pdfrwt beam="1">  1       21 0.12098699E+00 0.40110624E+03</pdfrwt>
<pdfrwt beam="2">  1       -2 0.50571957E-01 0.40110624E+03</pdfrwt>
<totfact> 0.14389425E+02</totfact>
</mgrwt>
</event>
<event>
 5    0  0.3040647E+000  0.2992629E+03  0.7546771E-02  0.1085610E+00
         21   -1    0    0  503  502  0.00000000000E+00  0.00000000000E+00  0.23432692655E+03  0.23432692655E+03  0.00000000000E+00 0.  1.
          2   -1    0    0  502    0 -0.00000000000E+00 -0.00000000000E+00 -0.22891855941E+04  0.22891855941E+04  0.00000000000E+00 0.  1.
         25    1    1    2    0    0 -0.25734147638E+03  0.33332596351E+03 -0.23540262203E+03  0.49836756303E+03  0.12500000000E+03 0.  0.
         21    1    1    2  503  501  0.95108636954E+02 -0.20070195428E+03 -0.30759800831E+02  0.22421661986E+03  0.00000000000E+00 0.  1.
          2    1    1    2  501    0  0.16223283943E+03 -0.13262400923E+03 -0.17886962447E+04  0.18009283378E+04  0.00000000000E+00 0.  1.
<mgrwt>
<rscale>  4 0.29926287E+03</rscale>
<asrwt>0</asrwt>
<pdfrwt beam="1">  1       21 0.36050296E-01 0.29926287E+03</pdfrwt>
<pdfrwt beam="2">  1        2 0.35218240E+00 0.29926287E+03</pdfrwt>
<totfact> 0.47010820E+02</totfact>
</mgrwt>
</event>
<event>
 5    0  0.3040647E+000  0.2837039E+03  0.7546771E-02  0.1093683E+00
          2   -1    0    0  502    0 -0.00000000000E+00  0.00000000000E+00  0.24371830503E+04  0.24371830503E+04  0.00000000000E+00 0.  1.
         21   -1    0    0  503  502  0.00000000000E+00 -0.00000000000E+00 -0.36963464694E+03  0.36963464694E+03  0.00000000000E+00 0. -1.
         25    1    1    2    0    0  0.12655760809E+03 -0.24195566031E+03 -0.28190999923E+03  0.41189515339E+03  0.12500000000E+03 0.  0.
         21    1    1    2  503  501 -0.10895484979E+01  0.20736436861E+02 -0.91146609042E+01  0.22677389026E+02  0.00000000000E+00 0.  1.
          2    1    1    2  501    0 -0.12546805959E+03  0.22121922344E+03  0.23585730635E+04  0.23722451548E+04  0.00000000000E+00 0.  1.
<mgrwt>
<rscale>  4 0.28370394E+03</rscale>
<asrwt>0</asrwt>
<pdfrwt beam="1">  1       21 0.56866870E-01 0.28370394E+03</pdfrwt>
<pdfrwt beam="2">  1        2 0.37495123E+00 0.28370394E+03</pdfrwt>
<totfact> 0.15304712E+02</totfact>
</mgrwt>
</event>
<event>
 5    0  0.3040647E+000  0.1765006E+03  0.7546771E-02  0.1171233E+00
         21   -1    0    0  503  502  0.00000000000E+00  0.00000000000E+00  0.21680219593E+03  0.21680219593E+03  0.00000000000E+00 0. -1.
          2   -1    0    0  502    0 -0.00000000000E+00 -0.00000000000E+00 -0.10705973480E+04  0.10705973480E+04  0.00000000000E+00 0. -1.
         25    1    1    2    0    0  0.19532311028E+03  0.63833300241E+02 -0.40835009058E+03  0.47392046179E+03  0.12500000000E+03 0.  0.
         21    1    1    2  503  501 -0.88124859171E+02 -0.31163706062E+02  0.16672297778E+03  0.19113795724E+03  0.00000000000E+00 0. -1.
          2    1    1    2  501    0 -0.10719825111E+03 -0.32669594178E+02 -0.61216803926E+03  0.62234112488E+03  0.00000000000E+00 0. -1.
<mgrwt>
<rscale>  4 0.17650061E+03</rscale>
<asrwt>0</asrwt>
<pdfrwt beam="1">  1       21 0.33354185E-01 0.17650061E+03</pdfrwt>
<pdfrwt beam="2">  1        2 0.16470728E+00 0.17650061E+03</pdfrwt>
<totfact> 0.26442310E+03</totfact>
</mgrwt>
</event>
<event>
 5    0  0.3040647E+000  0.2382595E+03  0.7546771E-02  0.1120958E+00
         21   -1    0    0  503  502  0.00000000000E+00  0.00000000000E+00  0.28869905597E+03  0.28869905597E+03  0.00000000000E+00 0. -1.
          2   -1    0    0  502    0 -0.00000000000E+00 -0.00000000000E+00 -0.45075620523E+03  0.45075620523E+03  0.00000000000E+00 0. -1.
         25    1    1    2    0    0  0.15993368905E+03 -0.17124211135E+03  0.13448440996E+03  0.29768053702E+03  0.12500000000E+03 0.  0.
         21    1    1    2  503  501 -0.20417306080E+02  0.29526440822E+02  0.38197240402E+02  0.52418567984E+02  0.00000000000E+00 0. -1.
          2    1    1    2  501    0 -0.13951638297E+03  0.14171567053E+03 -0.33473879963E+03  0.38935615619E+03  0.00000000000E+00 0. -1.
<mgrwt>
<rscale>  4 0.23825946E+03</rscale>
<asrwt>0</asrwt>
<pdfrwt beam="1">  1       21 0.44415239E-01 0.23825946E+03</pdfrwt>
<pdfrwt beam="2">  1        2 0.69347109E-01 0.23825946E+03</pdfrwt>
<totfact> 0.41916761E+03</totfact>
</mgrwt>
</event>
<event>
 5    0  0.3040647E+000  0.2815310E+03  0.7546771E-02  0.1094856E+00
          2   -1    0    0  502    0 -0.00000000000E+00  0.00000000000E+00  0.12077793449E+03  0.12077793449E+03  0.00000000000E+00 0.  1.
         21   -1    0    0  503  502  0.00000000000E+00 -0.00000000000E+00 -0.65324795683E+03  0.65324795683E+03  0.00000000000E+00 0.  1.
         25    1    1    2    0    0  0.15221930588E+03  0.20830621716E+03 -0.27310610586E+03  0.39594714578E+03  0.12500000000E+03 0.  0.
         21    1    1    2  503  501 -0.22418596860E+02  0.29786124223E+01 -0.44718792588E+02  0.50112234312E+02  0.00000000000E+00 0.  1.
          2    1    1    2  501    0 -0.12980070902E+03 -0.21128482959E+03 -0.21464512389E+03  0.32796651122E+03  0.00000000000E+00 0.  1.
<mgrwt>
<rscale>  4 0.28153099E+03</rscale>
<asrwt>0</asrwt>
<pdfrwt beam="1">  1       21 0.10049969E+00 0.28153099E+03</pdfrwt>
<pdfrwt beam="2">  1        2 0.18581220E-01 0.28153099E+03</pdfrwt>
<totfact> 0.29133647E+03</totfact>
</mgrwt>
</event>
<event>
 5    0  0.3040647E+000  0.2183653E+03  0.7546771E-02  0.1135108E+00
         21   -1    0    0  503  502  0.00000000000E+00  0.00000000000E+00  0.20371207348E+03  0.20371207348E+03  0.00000000000E+00 0. -1.
          1   -1    0    0  502    0 -0.00000000000E+00 -0.00000000000E+00 -0.11845427668E+04  0.11845427668E+04  0.00000000000E+00 0. -1.
         25    1    1    2    0    0  0.46380281704E+02 -0.21015202992E+03 -0.17110592267E+03  0.30202192467E+03  0.12500000000E+03 0.  0.
         21    1    1    2  503  501 -0.75152846058E+01  0.39939295536E+02  0.12701656318E+03  0.13335979212E+03  0.00000000000E+00 0. -1.
          1    1    1    2  501    0 -0.38864997099E+02  0.17021273438E+03 -0.93674133382E+03  0.95287312347E+03  0.00000000000E+00 0. -1.
<mgrwt>
<rscale>  4 0.21836530E+03</rscale>
<asrwt>0</asrwt>
<pdfrwt beam="1">  1       21 0.31340320E-01 0.21836530E+03</pdfrwt>
<pdfrwt beam="2">  1        1 0.18223735E+00 0.21836530E+03</pdfrwt>
<totfact> 0.12787686E+03</totfact>
</mgrwt>
</event>
<event>
 5    0  0.3040647E+000  0.2580080E+03  0.7546771E-02  0.1108346E+00
         21   -1    0    0  503  502  0.00000000000E+00  0.00000000000E+00  0.49039712221E+03  0.49039712221E+03  0.00000000000E+00 0.  1.
          1   -1    0    0  502    0 -0.00000000000E+00 -0.00000000000E+00 -0.40174764535E+03  0.40174764535E+03  0.00000000000E+00 0.  1.
         25    1    1    2    0    0  0.21773558087E+03  0.99893148125E+01  0.16605270222E+03  0.30117614364E+03  0.12500000000E+03 0.  0.
         21    1    1    2  503  501  0.80997346157E+01 -0.36727002646E+02  0.21628268521E+03  0.21952830875E+03  0.00000000000E+00 0.  1.
          1    1    1    2  501    0 -0.22583531548E+03  0.26737687834E+02 -0.29368591057E+03  0.37144031517E+03  0.00000000000E+00 0.  1.
<mgrwt>
<rscale>  4 0.25800799E+03</rscale>
<asrwt>0</asrwt>
<pdfrwt beam="1">  1       21 0.75445711E-01 0.25800799E+03</pdfrwt>
<pdfrwt beam="2">  1        1 0.61807330E-01 0.25800799E+03</pdfrwt>
<totfact> 0.10092222E+03</totfact>
</mgrwt>
</event>
<event>
 5    0  0.3553645E+000  0.2813347E+03  0.7546771E-02  0.1094962E+00
         21   -1    0    0  503  502  0.00000000000E+00  0.00000000000E+00  0.61119765572E+03  0.61119765572E+03  0.00000000000E+00 0.  1.
          2   -1    0    0  502    0 -0.00000000000E+00 -0.00000000000E+00 -0.90432024001E+03  0.90432024001E+03  0.00000000000E+00 0.  1.
         25    1    1    2    0    0  0.18406088504E+03 -0.16411975973E+03  0.53607830044E+03  0.60317381338E+03  0.12500000000E+03 0.  0.
         21    1    1    2  503  501 -0.23296324511E+02 -0.30338139353E+02  0.70191081557E+01  0.38889449912E+02  0.00000000000E+00 0. -1.
          2    1    1    2  501    0 -0.16076456053E+03  0.19445789908E+03 -0.83621999289E+03  0.87345463245E+03  0.00000000000E+00 0.  1.
<mgrwt>
<rscale>  4 0.28133472E+03</rscale>
<asrwt>0</asrwt>
<pdfrwt beam="1">  1       21 0.94030408E-01 0.28133472E+03</pdfrwt>
<pdfrwt beam="2">  1        2 0.13912619E+00 0.28133472E+03</pdfrwt>
<totfact> 0.34410320E+02</totfact>
</mgrwt>
</event>
<event>
 5    0  0.3040647E+000  0.3642472E+03  0.7546771E-02  0.1056915E+00
          1   -1    0    0  502    0 -0.00000000000E+00  0.00000000000E+00  0.89579686867E+03  0.89579686867E+03  0.00000000000E+00 0.  1.
         21   -1    0    0  503  502  0.00000000000E+00 -0.00000000000E+00 -0.19694384044E+04  0.19694384044E+04  0.00000000000E+00 0.  1.
         25    1    1    2    0    0  0.23875359244E+03  0.24077276261E+03 -0.13434949539E+04  0.13912506935E+04  0.12500000000E+03 0.  0.
         21    1    1    2  503  501  0.22978437159E+02 -0.20271249230E+02 -0.56805433444E+03  0.56888017983E+03  0.00000000000E+00 0. -1.
          1    1    1    2  501    0 -0.26173202960E+03 -0.22050151338E+03  0.83790775255E+03  0.90510439978E+03  0.00000000000E+00 0.  1.
<mgrwt>
<rscale>  4 0.36424722E+03</rscale>
<asrwt>0</asrwt>
<pdfrwt beam="1">  1       21 0.30299052E+00 0.36424722E+03</pdfrwt>
<pdfrwt beam="2">  1        1 0.13781490E+00 0.36424722E+03</pdfrwt>
<totfact> 0.58553563E+00</totfact>
</mgrwt>
</event>
<event>
 5    0  0.3040647E+000  0.3264837E+03  0.7546771E-02  0.1072703E+00
         21   -1    0    0  503  502  0.00000000000E+00  0.00000000000E+00  0.11492442523E+03  0.11492442523E+03  0.00000000000E+00 0. -1.
          2   -1    0    0  502    0 -0.00000000000E+00 -0.00000000000E+00 -0.10480769291E+04  0.10480769291E+04  0.00000000000E+00 0. -1.
         25    1    1    2    0    0  0.16763085356E+03 -0.26057838099E+03 -0.43274812917E+03  0.54671486079E+03  0.12500000000E+03 0.  0.
         21    1    1    2  503  501 -0.44288487540E+02 -0.94662137000E+01 -0.15783911740E+02  0.47960517097E+02  0.00000000000E+00 0.  1.
          2    1    1    2  501    0 -0.12334236602E+03  0.27004459469E+03 -0.48462046293E+03  0.56832597641E+03  0.00000000000E+00 0. -1.
<mgrwt>
<rscale>  4 0.32648374E+03</rscale>
<asrwt>0</asrwt>
<pdfrwt beam="1">  1       21 0.17680681E-01 0.32648374E+03</pdfrwt>
<pdfrwt beam="2">  1        2 0.16124260E+00 0.32648374E+03</pdfrwt>
<totfact> 0.87523095E+03</totfact>
</mgrwt>
</event>
<event>
 5    0  0.3040647E+000  0.4184091E+03  0.7546771E-02  0.1037585E+00
          2   -1    0    0  502    0 -0.00000000000E+00  0.00000000000E+00  0.21876432483E+04  0.21876432483E+04  0.00000000000E+00 0. -1.
         21   -1    0    0  503  502  0.00000000000E+00 -0.00000000000E+00 -0.18139553160E+03  0.18139553160E+03  0.00000000000E+00 0. -1.
         25    1    1    2    0    0 -0.43552801497E+03  0.14150553440E+03  0.33202502107E+03  0.57928756478E+03  0.12500000000E+03 0.  0.
         21    1    1    2  503  501  0.89602489743E+02  0.37331103735E+02  0.32331172785E+02  0.10231090952E+03  0.00000000000E+00 0. -1.
          2    1    1    2  501    0  0.34592552523E+03 -0.17883663814E+03  0.16418915228E+04  0.16874403055E+04  0.00000000000E+00 0. -1.
<mgrwt>
<rscale>  4 0.41840910E+03</rscale>
<asrwt>0</asrwt>
<pdfrwt beam="1">  1       21 0.27907006E-01 0.41840910E+03</pdfrwt>
<pdfrwt beam="2">  1        2 0.33656048E+00 0.41840910E+03</pdfrwt>
<totfact> 0.84427732E+02</totfact>
</mgrwt>
</event>
<event>
 5    0  0.3040647E+000  0.2653570E+03  0.7546771E-02  0.1103967E+00
          2   -1    0    0  502    0 -0.00000000000E+00  0.00000000000E+00  0.37700621518E+03  0.37700621518E+03  0.00000000000E+00 0. -1.
         21   -1    0    0  503  502  0.00000000000E+00 -0.00000000000E+00 -0.11193835700E+04  0.11193835700E+04  0.00000000000E+00 0. -1.
         25    1    1    2    0    0 -0.15468582740E+03  0.24162414035E+03  0.18211933903E+02  0.31347504675E+03  0.12500000000E+03 0.  0.
         21    1    1    2  503  501  0.14551118088E+03 -0.17794129057E+03 -0.95284497493E+03  0.98017863315E+03  0.00000000000E+00 0. -1.
          2    1    1    2  501    0  0.91746465166E+01 -0.63682849786E+02  0.19225568621E+03  0.20273610526E+03  0.00000000000E+00 0. -1.
<mgrwt>
<rscale>  4 0.26535703E+03</rscale>
<asrwt>0</asrwt>
<pdfrwt beam="1">  1       21 0.17221286E+00 0.26535703E+03</pdfrwt>
<pdfrwt beam="2">  1        2 0.58000956E-01 0.26535703E+03</pdfrwt>
<totfact> 0.20760104E+02</totfact>
</mgrwt>
</event>
<event>
 5    0  0.3040647E+000  0.2830886E+03  0.7546771E-02  0.1094014E+00
         -2   -1    0    0    0  501 -0.00000000000E+00  0.00000000000E+00  0.20831538238E+03  0.20831538238E+03  0.00000000000E+00 0.  1.
         21   -1    0    0  501  502  0.00000000000E+00 -0.00000000000E+00 -0.13755362415E+04  0.13755362415E+04  0.00000000000E+00 0. -1.
         25    1    1    2    0    0 -0.24519121443E+03  0.13048558508E+03 -0.47181486656E+03  0.56158658090E+03  0.12500000000E+03 0.  0.
         21    1    1    2  503  502  0.12828891765E+02 -0.38623601255E+02 -0.76247341133E+03  0.76355881634E+03  0.00000000000E+00 0. -1.
         -2    1    1    2    0  503  0.23236232266E+03 -0.91861983828E+02  0.67067418720E+02  0.25870622667E+03  0.00000000000E+00 0.  1.
<mgrwt>
<rscale>  4 0.28308855E+03</rscale>
<asrwt>0</asrwt>
<pdfrwt beam="1">  1       21 0.21162096E+00 0.28308855E+03</pdfrwt>
<pdfrwt beam="2">  1       -2 0.32048520E-01 0.28308855E+03</pdfrwt>
<totfact> 0.77237640E+01</totfact>
</mgrwt>
</event>
<event>
 5    0  0.3040647E+000  0.2151229E+03  0.7546771E-02  0.1137572E+00
         -2   -1    0    0    0  501 -0.00000000000E+00  0.00000000000E+00  0.59871156683E+03  0.59871156683E+03  0.00000000000E+00 0. -1.
         21   -1    0    0  501  502  0.00000000000E+00 -0.00000000000E+00 -0.16468624083E+03  0.16468624083E+03  0.00000000000E+00 0. -1.
         25    1    1    2    0    0  0.23233143891E+03 -0.61965788082E+01  0.54838512916E+02  0.26953396371E+03  0.12500000000E+03 0.  0.
         21    1    1    2  503  502 -0.72691847208E+02  0.55356414267E+02  0.14195281504E+02  0.92465903272E+02  0.00000000000E+00 0. -1.
         -2    1    1    2    0  503 -0.15963959170E+03 -0.49159835459E+02  0.36499153157E+03  0.40139794068E+03  0.00000000000E+00 0. -1.
<mgrwt>
<rscale>  4 0.21512291E+03</rscale>
<asrwt>0</asrwt>
<pdfrwt beam="1">  1       21 0.25336345E-01 0.21512291E+03</pdfrwt>
<pdfrwt beam="2">  1       -2 0.92109471E-01 0.21512291E+03</pdfrwt>
<totfact> 0.12475713E+03</totfact>
</mgrwt>
</event>
<event>
 5    0  0.3040647E+000  0.2715364E+03  0.7546771E-02  0.1100403E+00
          2   -1    0    0  502    0 -0.00000000000E+00  0.00000000000E+00  0.34918182122E+03  0.34918182122E+03  0.00000000000E+00 0.  1.
         21   -1    0    0  503  502  0.00000000000E+00 -0.00000000000E+00 -0.86130141168E+03  0.86130141168E+03  0.00000000000E+00 0. -1.
         25    1    1    2    0    0 -0.12228968261E+03 -0.23301936820E+03 -0.76049203756E+03  0.81438684396E+03  0.12500000000E+03 0.  0.
         21    1    1    2  503  501  0.16429553124E+02  0.17865828889E+02 -0.23364490708E+02  0.33690020537E+02  0.00000000000E+00 0.  1.
          2    1    1    2  501    0  0.10586012949E+03  0.21515353931E+03  0.27173693781E+03  0.36240636841E+03  0.00000000000E+00 0.  1.
<mgrwt>
<rscale>  4 0.27153642E+03</rscale>
<asrwt>0</asrwt>
<pdfrwt beam="1">  1       21 0.13250791E+00 0.27153642E+03</pdfrwt>
<pdfrwt beam="2">  1        2 0.53720280E-01 0.27153642E+03</pdfrwt>
<totfact> 0.45390263E+02</totfact>
</mgrwt>
</event>
<event>
 5    0  0.3040647E+000  0.5232668E+03  0.7546771E-02  0.1007878E+00
         21   -1    0    0  503  502  0.00000000000E+00  0.00000000000E+00  0.39922595225E+03  0.39922595225E+03  0.00000000000E+00 0.  1.
          2   -1    0    0  502    0 -0.00000000000E+00 -0.00000000000E+00 -0.13527480121E+04  0.13527480121E+04  0.00000000000E+00 0.  1.
         25    1    1    2    0    0  0.10857134911E+03 -0.50434000509E+03  0.58617435927E+02  0.53404829592E+03  0.12500000000E+03 0.  0.
         21    1    1    2  503  501  0.25196502808E+02  0.15587827964E+02  0.40200595344E+02  0.49939283139E+02  0.00000000000E+00 0.  1.
          2    1    1    2  501    0 -0.13376785192E+03  0.48875217712E+03 -0.10523400911E+04  0.11679863853E+04  0.00000000000E+00 0.  1.
<mgrwt>
<rscale>  4 0.52326677E+03</rscale>
<asrwt>0</asrwt>
<pdfrwt beam="1">  1       21 0.61419379E-01 0.52326677E+03</pdfrwt>
<pdfrwt beam="2">  1        2 0.20811507E+00 0.52326677E+03</pdfrwt>
<totfact> 0.45076495E+02</totfact>
</mgrwt>
</event>
<event>
 5    0  0.3040647E+000  0.2306758E+03  0.7546771E-02  0.1126165E+00
          2   -1    0    0  502    0 -0.00000000000E+00  0.00000000000E+00  0.16041753962E+04  0.16041753962E+04  0.00000000000E+00 0.  1.
         21   -1    0    0  503  502  0.00000000000E+00 -0.00000000000E+00 -0.34777098916E+02  0.34777098916E+02  0.00000000000E+00 0.  1.
         25    1    1    2    0    0  0.17670746218E+03  0.10302176376E+03  0.81026662330E+03  0.84498284707E+03  0.12500000000E+03 0.  0.
         21    1    1    2  503  501  0.16378614863E+01 -0.43897196814E+02  0.17114081881E+03  0.17668850088E+03  0.00000000000E+00 0. -1.
          2    1    1    2  501    0 -0.17834532367E+03 -0.59124566944E+02  0.58799085515E+03  0.61728114715E+03  0.00000000000E+00 0.  1.
<mgrwt>
<rscale>  4 0.23067579E+03</rscale>
<asrwt>0</asrwt>
<pdfrwt beam="1">  1       21 0.53503242E-02 0.23067579E+03</pdfrwt>
<pdfrwt beam="2">  1        2 0.24679616E+00 0.23067579E+03</pdfrwt>
<totfact> 0.36777004E+04</totfact>
</mgrwt>
</event>
<event>
 5    0  0.3040647E+000  0.2690898E+03  0.7546771E-02  0.1101802E+00
         21   -1    0    0  503  502  0.00000000000E+00  0.00000000000E+00  0.81211947457E+02  0.81211947457E+02  0.00000000000E+00 0. -1.
          1   -1    0    0  502    0 -0.00000000000E+00 -0.00000000000E+00 -0.16931225752E+04  0.16931225752E+04  0.00000000000E+00 0.  1.
         25    1    1    2    0    0 -0.12662806746E+03 -0.25805030849E+03 -0.34623519585E+03  0.46704222510E+03  0.12500000000E+03 0.  0.
         21    1    1    2  503  501  0.46567537733E+02  0.43017926020E+02 -0.94126414128E+02  0.11348506230E+03  0.00000000000E+00 0. -1.
          1    1    1    2  501    0  0.80060529724E+02  0.21503238247E+03 -0.11715490178E+04  0.11938072353E+04  0.00000000000E+00 0.  1.
<mgrwt>
<rscale>  4 0.26908976E+03</rscale>
<asrwt>0</asrwt>
<pdfrwt beam="1">  1       21 0.12494146E-01 0.26908976E+03</pdfrwt>
<pdfrwt beam="2">  1        1 0.26048039E+00 0.26908976E+03</pdfrwt>
<totfact> 0.32152189E+03</totfact>
</mgrwt>
</event>
<event>
 5    0  0.3040647E+000  0.2826343E+03  0.7546771E-02  0.1094259E+00
         21   -1    0    0  503  502  0.00000000000E+00  0.00000000000E+00  0.49164142844E+03  0.49164142844E+03  0.00000000000E+00 0.  1.
          4   -1    0    0  502    0 -0.00000000000E+00 -0.00000000000E+00 -0.29684472264E+04  0.29684472264E+04  0.00000000000E+00 0.  1.
         25    1    1    2    0    0 -0.40571851237E+03 -0.19392428537E+03 -0.13043830804E+03  0.48461664431E+03  0.12500000000E+03 0.  0.
         21    1    1    2  503  501  0.23090050849E+03  0.18292255191E+02  0.26523718883E+03  0.35213693041E+03  0.00000000000E+00 0.  1.
          4    1    1    2  501    0  0.17481800388E+03  0.17563203018E+03 -0.26116046788E+04  0.26233350801E+04  0.00000000000E+00 0.  1.
<mgrwt>
<rscale>  4 0.28263434E+03</rscale>
<asrwt>0</asrwt>
<pdfrwt beam="1">  1       21 0.75637144E-01 0.28263434E+03</pdfrwt>
<pdfrwt beam="2">  1        4 0.45668418E+00 0.28263434E+03</pdfrwt>
<totfact> 0.21498663E-01</totfact>
</mgrwt>
</event>
<event>
 5    0  0.3040647E+000  0.1798058E+03  0.7546771E-02  0.1167991E+00
          1   -1    0    0  502    0 -0.00000000000E+00  0.00000000000E+00  0.12262130062E+04  0.12262130062E+04  0.00000000000E+00 0.  1.
         21   -1    0    0  503  502  0.00000000000E+00 -0.00000000000E+00 -0.14498837437E+03  0.14498837437E+03  0.00000000000E+00 0.  1.
         25    1    1    2    0    0  0.20575893639E+03 -0.44171928997E+02 -0.44143660132E+00  0.24477151403E+03  0.12500000000E+03 0.  0.
         21    1    1    2  503  501 -0.93375565765E+02 -0.14504617289E+02  0.10376288063E+03  0.14034285020E+03  0.00000000000E+00 0.  1.
          1    1    1    2  501    0 -0.11238337062E+03  0.58676546286E+02  0.97790318777E+03  0.98608701630E+03  0.00000000000E+00 0.  1.
<mgrwt>
<rscale>  4 0.17980581E+03</rscale>
<asrwt>0</asrwt>
<pdfrwt beam="1">  1       21 0.22305905E-01 0.17980581E+03</pdfrwt>
<pdfrwt beam="2">  1        1 0.18864815E+00 0.17980581E+03</pdfrwt>
<totfact> 0.23477554E+03</totfact>
</mgrwt>
</event>
<event>
 5    0  0.3040647E+000  0.2318005E+03  0.7546771E-02  0.1125379E+00
         -1   -1    0    0    0  501 -0.00000000000E+00  0.00000000000E+00  0.14503081901E+04  0.14503081901E+04  0.00000000000E+00 0.  1.
         21   -1    0    0  501  502  0.00000000000E+00 -0.00000000000E+00 -0.49189669436E+03  0.49189669436E+03  0.00000000000E+00 0.  1.
         25    1    1    2    0    0  0.15116972644E+03  0.14402524770E+03 -0.16679539762E+03  0.29502756284E+03  0.12500000000E+03 0.  0.
         21    1    1    2  503  502 -0.23770549870E+02  0.33847404256E+01 -0.25356916065E+03  0.25470338581E+03  0.00000000000E+00 0.  1.
         -1    1    1    2    0  503 -0.12739917657E+03 -0.14740998813E+03  0.13787760541E+04  0.13924739359E+04  0.00000000000E+00 0.  1.
<mgrwt>
<rscale>  4 0.23180047E+03</rscale>
<asrwt>0</asrwt>
<pdfrwt beam="1">  1       21 0.75676415E-01 0.23180047E+03</pdfrwt>
<pdfrwt beam="2">  1       -1 0.22312433E+00 0.23180047E+03</pdfrwt>
<totfact> 0.16963120E+01</totfact>
</mgrwt>
</event>
<event>
 5    0  0.3040647E+000  0.2099278E+03  0.7546771E-02  0.1141623E+00
          1   -1    0    0  502    0 -0.00000000000E+00  0.00000000000E+00  0.35613720155E+03  0.35613720155E+03  0.00000000000E+00 0.  1.
         21   -1    0    0  503  502  0.00000000000E+00 -0.00000000000E+00 -0.18007811881E+03  0.18007811881E+03  0.00000000000E+00 0.  1.
         25    1    1    2    0    0  0.16008544018E+03  0.12689750470E+03  0.15957457252E+03  0.28778354549E+03  0.12500000000E+03 0.  0.
         21    1    1    2  503  501 -0.15169138053E+03 -0.51923941386E+02 -0.25104748082E+02  0.16228560932E+03  0.00000000000E+00 0.  1.
          1    1    1    2  501    0 -0.83940596443E+01 -0.74973563319E+02  0.41589258293E+02  0.86146165553E+02  0.00000000000E+00 0.  1.
<mgrwt>
<rscale>  4 0.20992779E+03</rscale>
<asrwt>0</asrwt>
<pdfrwt beam="1">  1       21 0.27704326E-01 0.20992779E+03</pdfrwt>
<pdfrwt beam="2">  1        1 0.54790339E-01 0.20992779E+03</pdfrwt>
<totfact> 0.95655115E+03</totfact>
</mgrwt>
</event>
<event>
 5    0  0.3040647E+000  0.2857873E+03  0.7546771E-02  0.1092569E+00
         21   -1    0    0  501  502  0.00000000000E+00  0.00000000000E+00  0.62024325934E+02  0.62024325934E+02  0.00000000000E+00 0.  1.
         -3   -1    0    0    0  501 -0.00000000000E+00 -0.00000000000E+00 -0.25050577476E+04  0.25050577476E+04  0.00000000000E+00 0. -1.
         25    1    1    2    0    0 -0.43136855951E+02 -0.25712318875E+03 -0.42301693624E+03  0.51238798862E+03  0.12500000000E+03 0.  0.
         21    1    1    2  503  502 -0.22117537082E+02  0.90726149278E+01 -0.63185544714E+01  0.24726947219E+02  0.00000000000E+00 0. -1.
         -3    1    1    2    0  503  0.65254393033E+02  0.24805057383E+03 -0.20136979309E+04  0.20299671377E+04  0.00000000000E+00 0. -1.
<mgrwt>
<rscale>  4 0.28578734E+03</rscale>
<asrwt>0</asrwt>
<pdfrwt beam="1">  1       21 0.95422026E-02 0.28578734E+03</pdfrwt>
<pdfrwt beam="2">  1       -3 0.38539355E+00 0.28578734E+03</pdfrwt>
<totfact> 0.65877860E+01</totfact>
</mgrwt>
</event>
<event>
 5    0  0.3040647E+000  0.4275082E+03  0.7546771E-02  0.1034650E+00
         21   -1    0    0  503  502  0.00000000000E+00  0.00000000000E+00  0.10987330894E+04  0.10987330894E+04  0.00000000000E+00 0.  1.
          4   -1    0    0  502    0 -0.00000000000E+00 -0.00000000000E+00 -0.21825334250E+03  0.21825334250E+03  0.00000000000E+00 0.  1.
         25    1    1    2    0    0 -0.19811503637E+03 -0.37856229431E+03  0.40104998858E+03  0.59918700892E+03  0.12500000000E+03 0.  0.
         21    1    1    2  503  501 -0.29965599245E+02  0.52872399529E+02  0.25307996434E+03  0.26027465516E+03  0.00000000000E+00 0. -1.
          4    1    1    2  501    0  0.22808063562E+03  0.32568989478E+03  0.22634979393E+03  0.45752476777E+03  0.00000000000E+00 0.  1.
<mgrwt>
<rscale>  4 0.42750817E+03</rscale>
<asrwt>0</asrwt>
<pdfrwt beam="1">  1       21 0.16903586E+00 0.42750817E+03</pdfrwt>
<pdfrwt beam="2">  1        4 0.33577438E-01 0.42750817E+03</pdfrwt>
<totfact> 0.72771630E+01</totfact>
</mgrwt>
</event>
<event>
 5    0  0.3040647E+000  0.4053765E+03  0.7546771E-02  0.1041934E+00
         21   -1    0    0  503  502  0.00000000000E+00  0.00000000000E+00  0.15865558553E+03  0.15865558553E+03  0.00000000000E+00 0. -1.
          2   -1    0    0  502    0 -0.00000000000E+00 -0.00000000000E+00 -0.16327592229E+04  0.16327592229E+04  0.00000000000E+00 0. -1.
         25    1    1    2    0    0  0.16214660534E+03 -0.33407181009E+03 -0.31839207851E+03  0.50487029184E+03  0.12500000000E+03 0.  0.
         21    1    1    2  503  501 -0.10192362189E+03 -0.56978786431E+02 -0.83198415578E+02  0.14337706636E+03  0.00000000000E+00 0. -1.
          2    1    1    2  501    0 -0.60222983454E+02  0.39105059652E+03 -0.10725131432E+04  0.11431674502E+04  0.00000000000E+00 0. -1.
<mgrwt>
<rscale>  4 0.40537654E+03</rscale>
<asrwt>0</asrwt>
<pdfrwt beam="1">  1       21 0.24408551E-01 0.40537654E+03</pdfrwt>
<pdfrwt beam="2">  1        2 0.25119374E+00 0.40537654E+03</pdfrwt>
<totfact> 0.21820375E+03</totfact>
</mgrwt>
</event>
<event>
 5    0  0.3040647E+000  0.2493678E+03  0.7546771E-02  0.1113705E+00
          2   -1    0    0  502    0 -0.00000000000E+00  0.00000000000E+00  0.40752118097E+03  0.40752118097E+03  0.00000000000E+00 0.  1.
         21   -1    0    0  503  502  0.00000000000E+00 -0.00000000000E+00 -0.88247384476E+03  0.88247384476E+03  0.00000000000E+00 0. -1.
         25    1    1    2    0    0  0.21975083306E+03 -0.69527488969E+02  0.30298785686E+03  0.40068833494E+03  0.12500000000E+03 0.  0.
         21    1    1    2  503  501 -0.20022895590E+03  0.78901557506E+02 -0.81687783718E+03  0.84475232549E+03  0.00000000000E+00 0. -1.
          2    1    1    2  501    0 -0.19521877159E+02 -0.93740685370E+01  0.38937316523E+02  0.44554365294E+02  0.00000000000E+00 0.  1.
<mgrwt>
<rscale>  4 0.24936777E+03</rscale>
<asrwt>0</asrwt>
<pdfrwt beam="1">  1       21 0.13576521E+00 0.24936777E+03</pdfrwt>
<pdfrwt beam="2">  1        2 0.62695567E-01 0.24936777E+03</pdfrwt>
<totfact> 0.36456102E+02</totfact>
</mgrwt>
</event>
<event>
 5    0  0.3040647E+000  0.2722401E+03  0.7546771E-02  0.1100004E+00
          1   -1    0    0  502    0 -0.00000000000E+00  0.00000000000E+00  0.10546625667E+03  0.10546625667E+03  0.00000000000E+00 0. -1.
         21   -1    0    0  503  502  0.00000000000E+00 -0.00000000000E+00 -0.12711947830E+04  0.12711947830E+04  0.00000000000E+00 0.  1.
         25    1    1    2    0    0  0.21274890674E+03  0.10759113821E+03 -0.25436183130E+03  0.37035508848E+03  0.12500000000E+03 0.  0.
         21    1    1    2  503  501 -0.63565908564E+01  0.26436650317E+02 -0.63764068693E+03  0.63822014098E+03  0.00000000000E+00 0.  1.
          1    1    1    2  501    0 -0.20639231589E+03 -0.13402778853E+03 -0.27372600808E+03  0.36808581018E+03  0.00000000000E+00 0. -1.
<mgrwt>
<rscale>  4 0.27224010E+03</rscale>
<asrwt>0</asrwt>
<pdfrwt beam="1">  1       21 0.19556843E+00 0.27224010E+03</pdfrwt>
<pdfrwt beam="2">  1        1 0.16225577E-01 0.27224010E+03</pdfrwt>
<totfact> 0.49223353E+02</totfact>
</mgrwt>
</event>
<event>
 5    0  0.3040647E+000  0.2193549E+03  0.7546771E-02  0.1134365E+00
         -1   -1    0    0    0  501 -0.00000000000E+00  0.00000000000E+00  0.21503302490E+04  0.21503302490E+04  0.00000000000E+00 0. -1.
         21   -1    0    0  501  502  0.00000000000E+00 -0.00000000000E+00 -0.62938451134E+02  0.62938451134E+02  0.00000000000E+00 0. -1.
         25    1    1    2    0    0 -0.13119260631E+03  0.24374530748E+03  0.51666820018E+03  0.59932821054E+03  0.12500000000E+03 0.  0.
         21    1    1    2  503  502  0.23906338298E+02 -0.11341409505E+03  0.18734797596E+03  0.22030327746E+03  0.00000000000E+00 0. -1.
         -1    1    1    2    0  503  0.10728626802E+03 -0.13033121243E+03  0.13833756217E+04  0.13936372121E+04  0.00000000000E+00 0. -1.
<mgrwt>
<rscale>  4 0.21935493E+03</rscale>
<asrwt>0</asrwt>
<pdfrwt beam="1">  1       21 0.96828403E-02 0.21935493E+03</pdfrwt>
<pdfrwt beam="2">  1       -1 0.33081998E+00 0.21935493E+03</pdfrwt>
<totfact> 0.20240170E+02</totfact>
</mgrwt>
</event>
<event>
 5    0  0.3040647E+000  0.2178329E+03  0.7546771E-02  0.1135509E+00
          2   -1    0    0  502    0 -0.00000000000E+00  0.00000000000E+00  0.11918217541E+04  0.11918217541E+04  0.00000000000E+00 0.  1.
         21   -1    0    0  503  502  0.00000000000E+00 -0.00000000000E+00 -0.15450406105E+03  0.15450406105E+03  0.00000000000E+00 0. -1.
         25    1    1    2    0    0  0.21052505743E+03 -0.31015629997E+02 -0.30752285969E+02  0.24870358301E+03  0.12500000000E+03 0.  0.
         21    1    1    2  503  501 -0.37576981404E+02 -0.45115956794E+01  0.42265334719E+02  0.56733962896E+02  0.00000000000E+00 0. -1.
          2    1    1    2  501    0 -0.17294807603E+03  0.35527225676E+02  0.10258046443E+04  0.10408882693E+04  0.00000000000E+00 0.  1.
<mgrwt>
<rscale>  4 0.21783293E+03</rscale>
<asrwt>0</asrwt>
<pdfrwt beam="1">  1       21 0.23769856E-01 0.21783293E+03</pdfrwt>
<pdfrwt beam="2">  1        2 0.18335719E+00 0.21783293E+03</pdfrwt>
<totfact> 0.42576818E+03</totfact>
</mgrwt>
</event>
<event>
 5    0  0.3040647E+000  0.3690188E+03  0.7546771E-02  0.1055069E+00
         21   -1    0    0  503  502  0.00000000000E+00  0.00000000000E+00  0.62425940001E+03  0.62425940001E+03  0.00000000000E+00 0. -1.
          2   -1    0    0  502    0 -0.00000000000E+00 -0.00000000000E+00 -0.79546445266E+03  0.79546445266E+03  0.00000000000E+00 0.  1.
         25    1    1    2    0    0  0.11008564621E+03 -0.30463958717E+03 -0.24275295602E+03  0.42364858696E+03  0.12500000000E+03 0.  0.
         21    1    1    2  503  501  0.21658778761E+02 -0.36739692667E+02  0.46025750986E+03  0.46222925383E+03  0.00000000000E+00 0. -1.
          2    1    1    2  501    0 -0.13174442497E+03  0.34137927984E+03 -0.38870960650E+03  0.53384601188E+03  0.00000000000E+00 0.  1.
<mgrwt>
<rscale>  4 0.36901877E+03</rscale>
<asrwt>0</asrwt>
<pdfrwt beam="1">  1       21 0.96039908E-01 0.36901877E+03</pdfrwt>
<pdfrwt beam="2">  1        2 0.12237915E+00 0.36901877E+03</pdfrwt>
<totfact> 0.37332634E+02</totfact>
</mgrwt>
</event>
<event>
 5    0  0.3040647E+000  0.4575644E+03  0.7546771E-02  0.1025490E+00
         21   -1    0    0  503  502  0.00000000000E+00  0.00000000000E+00  0.92230005065E+03  0.92230005065E+03  0.00000000000E+00 0.  1.
          2   -1    0    0  502    0 -0.00000000000E+00 -0.00000000000E+00 -0.14644433585E+04  0.14644433585E+04  0.00000000000E+00 0.  1.
         25    1    1    2    0    0  0.37354674741E+03 -0.33730661761E+03  0.64632729593E+03  0.82865970112E+03  0.12500000000E+03 0.  0.
         21    1    1    2  503  501 -0.10898367700E+03 -0.11174267759E+02  0.12936104723E+03  0.16951869116E+03  0.00000000000E+00 0. -1.
          2    1    1    2  501    0 -0.26456307041E+03  0.34848088537E+03 -0.13178316511E+04  0.13885650169E+04  0.00000000000E+00 0.  1.
<mgrwt>
<rscale>  4 0.45756435E+03</rscale>
<asrwt>0</asrwt>
<pdfrwt beam="1">  1       21 0.14189232E+00 0.45756435E+03</pdfrwt>
<pdfrwt beam="2">  1        2 0.22529898E+00 0.45756435E+03</pdfrwt>
<totfact> 0.53177693E+01</totfact>
</mgrwt>
</event>
<event>
 5    0  0.3040647E+000  0.3227340E+03  0.7546771E-02  0.1074398E+00
          1   -1    0    0  502    0 -0.00000000000E+00  0.00000000000E+00  0.91192067100E+03  0.91192067100E+03  0.00000000000E+00 0. -1.
         21   -1    0    0  503  502  0.00000000000E+00 -0.00000000000E+00 -0.40750751919E+03  0.40750751919E+03  0.00000000000E+00 0. -1.
         25    1    1    2    0    0  0.61826497845E+02 -0.30864317677E+03 -0.29132566702E+03  0.44674239855E+03  0.12500000000E+03 0.  0.
         21    1    1    2  503  501 -0.13548237425E+02  0.16289440916E+02 -0.23954798520E+01  0.21322264101E+02  0.00000000000E+00 0. -1.
          1    1    1    2  501    0 -0.48278260420E+02  0.29235373585E+03  0.79813429868E+03  0.85136352754E+03  0.00000000000E+00 0. -1.
<mgrwt>
<rscale>  4 0.32273399E+03</rscale>
<asrwt>0</asrwt>
<pdfrwt beam="1">  1       21 0.62693465E-01 0.32273399E+03</pdfrwt>
<pdfrwt beam="2">  1        1 0.14029549E+00 0.32273399E+03</pdfrwt>
<totfact> 0.46195287E+02</totfact>
</mgrwt>
</event>
<event>
 5    0  0.3040647E+000  0.3773129E+03  0.7546771E-02  0.1051931E+00
          2   -1    0    0  502    0 -0.00000000000E+00  0.00000000000E+00  0.14708703838E+04  0.14708703838E+04  0.00000000000E+00 0.  1.
         21   -1    0    0  503  502  0.00000000000E+00 -0.00000000000E+00 -0.40088384381E+03  0.40088384381E+03  0.00000000000E+00 0. -1.
         25    1    1    2    0    0  0.30749162893E+03 -0.82919694334E+02  0.11618793668E+03  0.36131899230E+03  0.12500000000E+03 0.  0.
         21    1    1    2  503  501 -0.36940179882E+03  0.72056970112E+02 -0.14977655851E+03  0.40507149170E+03  0.00000000000E+00 0. -1.
          2    1    1    2  501    0  0.61910169890E+02  0.10862724222E+02  0.11035751618E+04  0.11053637436E+04  0.00000000000E+00 0.  1.
<mgrwt>
<rscale>  4 0.37731286E+03</rscale>
<asrwt>0</asrwt>
<pdfrwt beam="1">  1       21 0.61674438E-01 0.37731286E+03</pdfrwt>
<pdfrwt beam="2">  1        2 0.22628775E+00 0.37731286E+03</pdfrwt>
<totfact> 0.40222124E+02</totfact>
</mgrwt>
</event>
<event>
 5    0  0.3040647E+000  0.2138149E+03  0.7546771E-02  0.1138580E+00
          2   -1    0    0  502    0 -0.00000000000E+00  0.00000000000E+00  0.16198267890E+04  0.16198267890E+04  0.00000000000E+00 0.  1.
         21   -1    0    0  503  502  0.00000000000E+00 -0.00000000000E+00 -0.42564515985E+03  0.42564515985E+03  0.00000000000E+00 0. -1.
         25    1    1    2    0    0  0.17010280697E+03 -0.10796679668E+03  0.13870979667E+04  0.14072162461E+04  0.12500000000E+03 0.  0.
         21    1    1    2  503  501 -0.10023146674E+03 -0.41305482615E+00 -0.39003347946E+03  0.40270663347E+03  0.00000000000E+00 0. -1.
          2    1    1    2  501    0 -0.69871340226E+02  0.10837985151E+03  0.19711714194E+03  0.23554906930E+03  0.00000000000E+00 0.  1.
<mgrwt>
<rscale>  4 0.21381492E+03</rscale>
<asrwt>0</asrwt>
<pdfrwt beam="1">  1       21 0.65483871E-01 0.21381492E+03</pdfrwt>
<pdfrwt beam="2">  1        2 0.24920412E+00 0.21381492E+03</pdfrwt>
<totfact> 0.32019787E+02</totfact>
</mgrwt>
</event>
<event>
 5    0  0.3040647E+000  0.3103828E+03  0.7546771E-02  0.1080163E+00
          3   -1    0    0  502    0 -0.00000000000E+00  0.00000000000E+00  0.52214939499E+03  0.52214939499E+03  0.00000000000E+00 0.  1.
         21   -1    0    0  503  502  0.00000000000E+00 -0.00000000000E+00 -0.21900699656E+03  0.21900699656E+03  0.00000000000E+00 0.  1.
         25    1    1    2    0    0  0.15432998321E+03 -0.25670897183E+03  0.25411421681E+03  0.41220901873E+03  0.12500000000E+03 0.  0.
         21    1    1    2  503  501  0.18321415636E+02  0.55470365469E+02 -0.39636302962E+01  0.58552080076E+02  0.00000000000E+00 0.  1.
          3    1    1    2  501    0 -0.17265139884E+03  0.20123860636E+03  0.52991811916E+02  0.27039529275E+03  0.00000000000E+00 0.  1.
<mgrwt>
<rscale>  4 0.31038282E+03</rscale>
<asrwt>0</asrwt>
<pdfrwt beam="1">  1       21 0.33693384E-01 0.31038282E+03</pdfrwt>
<pdfrwt beam="2">  1        3 0.80330676E-01 0.31038282E+03</pdfrwt>
<totfact> 0.61043143E+02</totfact>
</mgrwt>
</event>
<event>
 5    0  0.3040647E+000  0.2698541E+03  0.7546771E-02  0.1101363E+00
         21   -1    0    0  503  502  0.00000000000E+00  0.00000000000E+00  0.57667516122E+02  0.57667516122E+02  0.00000000000E+00 0.  1.
          3   -1    0    0  502    0 -0.00000000000E+00 -0.00000000000E+00 -0.14962164869E+04  0.14962164869E+04  0.00000000000E+00 0.  1.
         25    1    1    2    0    0  0.58726992263E+02 -0.23758398113E+03 -0.48401364139E+03  0.55658711156E+03  0.12500000000E+03 0.  0.
         21    1    1    2  503  501 -0.47459123993E+02 -0.21629700212E+00 -0.10896011451E+03  0.11884747279E+03  0.00000000000E+00 0.  1.
          3    1    1    2  501    0 -0.11267868271E+02  0.23780027813E+03 -0.84557521485E+03  0.87844941864E+03  0.00000000000E+00 0.  1.
<mgrwt>
<rscale>  4 0.26985407E+03</rscale>
<asrwt>0</asrwt>
<pdfrwt beam="1">  1       21 0.88719276E-02 0.26985407E+03</pdfrwt>
<pdfrwt beam="2">  1        3 0.23018710E+00 0.26985407E+03</pdfrwt>
<totfact> 0.52582149E+02</totfact>
</mgrwt>
</event>
<event>
 5    0  0.3040647E+000  0.2806171E+03  0.7546771E-02  0.1095352E+00
         -2   -1    0    0    0  501 -0.00000000000E+00  0.00000000000E+00  0.14775043598E+04  0.14775043598E+04  0.00000000000E+00 0.  1.
         21   -1    0    0  501  502  0.00000000000E+00 -0.00000000000E+00 -0.69406418906E+02  0.69406418906E+02  0.00000000000E+00 0. -1.
         25    1    1    2    0    0 -0.18173445707E+03  0.16438017503E+03  0.32917349157E+03  0.42898536383E+03  0.12500000000E+03 0.  0.
         21    1    1    2  503  502 -0.26936391061E+02 -0.20104073013E+02  0.70840149319E+02  0.78409627410E+02  0.00000000000E+00 0. -1.
         -2    1    1    2    0  503  0.20867084813E+03 -0.14427610202E+03  0.10080843000E+04  0.10395157875E+04  0.00000000000E+00 0.  1.
<mgrwt>
<rscale>  4 0.28061707E+03</rscale>
<asrwt>0</asrwt>
<pdfrwt beam="1">  1       21 0.10677912E-01 0.28061707E+03</pdfrwt>
<pdfrwt beam="2">  1       -2 0.22730834E+00 0.28061707E+03</pdfrwt>
<totfact> 0.57403446E+02</totfact>
</mgrwt>
</event>
<event>
 5    0  0.3040647E+000  0.2943782E+03  0.7546771E-02  0.1088085E+00
          2   -1    0    0  502    0 -0.00000000000E+00  0.00000000000E+00  0.88598328429E+03  0.88598328429E+03  0.00000000000E+00 0. -1.
         21   -1    0    0  503  502  0.00000000000E+00 -0.00000000000E+00 -0.31394576665E+03  0.31394576665E+03  0.00000000000E+00 0. -1.
         25    1    1    2    0    0  0.27305960539E+03 -0.10949380208E+03 -0.16532172510E+03  0.35987041220E+03  0.12500000000E+03 0.  0.
         21    1    1    2  503  501 -0.16126630248E+03  0.12930151374E+03  0.18904593920E+03  0.28011438538E+03  0.00000000000E+00 0. -1.
          2    1    1    2  501    0 -0.11179330290E+03 -0.19807711666E+02  0.54831330355E+03  0.55994425336E+03  0.00000000000E+00 0. -1.
<mgrwt>
<rscale>  4 0.29437821E+03</rscale>
<asrwt>0</asrwt>
<pdfrwt beam="1">  1       21 0.48299349E-01 0.29437821E+03</pdfrwt>
<pdfrwt beam="2">  1        2 0.13630512E+00 0.29437821E+03</pdfrwt>
<totfact> 0.15415322E+03</totfact>
</mgrwt>
</event>
<event>
 5    0  0.3040647E+000  0.1694994E+03  0.7546771E-02  0.1178371E+00
         -1   -1    0    0    0  501 -0.00000000000E+00  0.00000000000E+00  0.12343296512E+04  0.12343296512E+04  0.00000000000E+00 0. -1.
         21   -1    0    0  501  502  0.00000000000E+00 -0.00000000000E+00 -0.74859853022E+03  0.74859853022E+03  0.00000000000E+00 0. -1.
         25    1    1    2    0    0  0.66664307109E+02  0.20676523861E+03  0.90219253096E+02  0.26638413498E+03  0.12500000000E+03 0.  0.
         21    1    1    2  503  502 -0.44077570385E+02 -0.10270640725E+03 -0.65307247107E+03  0.66256704624E+03  0.00000000000E+00 0. -1.
         -1    1    1    2    0  503 -0.22586736723E+02 -0.10405883136E+03  0.10485843390E+04  0.10539770002E+04  0.00000000000E+00 0. -1.
<mgrwt>
<rscale>  4 0.16949942E+03</rscale>
<asrwt>0</asrwt>
<pdfrwt beam="1">  1       21 0.11516900E+00 0.16949942E+03</pdfrwt>
<pdfrwt beam="2">  1       -1 0.18989687E+00 0.16949942E+03</pdfrwt>
<totfact> 0.11136366E+01</totfact>
</mgrwt>
</event>
<event>
 5    0  0.3040647E+000  0.2667878E+03  0.7546771E-02  0.1103132E+00
          1   -1    0    0  502    0 -0.00000000000E+00  0.00000000000E+00  0.70835827222E+02  0.70835827222E+02  0.00000000000E+00 0. -1.
         21   -1    0    0  503  502  0.00000000000E+00 -0.00000000000E+00 -0.12703882273E+04  0.12703882273E+04  0.00000000000E+00 0. -1.
         25    1    1    2    0    0 -0.19716958605E+03  0.16872046182E+03 -0.68966354974E+03  0.74739765302E+03  0.12500000000E+03 0.  0.
         21    1    1    2  503  501 -0.85564797849E+01 -0.74074356391E+02 -0.16721303125E+03  0.18308583080E+03  0.00000000000E+00 0. -1.
          1    1    1    2  501    0  0.20572606584E+03 -0.94646105428E+02 -0.34267581913E+03  0.41074057074E+03  0.00000000000E+00 0. -1.
<mgrwt>
<rscale>  4 0.26678784E+03</rscale>
<asrwt>0</asrwt>
<pdfrwt beam="1">  1       21 0.19544435E+00 0.26678784E+03</pdfrwt>
<pdfrwt beam="2">  1        1 0.10897819E-01 0.26678784E+03</pdfrwt>
<totfact> 0.83900825E+02</totfact>
</mgrwt>
</event>
<event>
 5    0  0.3040647E+000  0.2466515E+03  0.7546771E-02  0.1115439E+00
          2   -1    0    0  502    0 -0.00000000000E+00  0.00000000000E+00  0.62970682559E+03  0.62970682559E+03  0.00000000000E+00 0.  1.
         21   -1    0    0  503  502  0.00000000000E+00 -0.00000000000E+00 -0.14476697278E+03  0.14476697278E+03  0.00000000000E+00 0.  1.
         25    1    1    2    0    0 -0.14076788112E+03  0.15936235295E+03  0.50131688815E+03  0.55870884925E+03  0.12500000000E+03 0.  0.
         21    1    1    2  503  501  0.21249094451E+02 -0.94532227203E+01 -0.43938116337E+01  0.23668396977E+02  0.00000000000E+00 0.  1.
          2    1    1    2  501    0  0.11951878667E+03 -0.14990913023E+03 -0.11983223701E+02  0.19209655214E+03  0.00000000000E+00 0.  1.
<mgrwt>
<rscale>  4 0.24665149E+03</rscale>
<asrwt>0</asrwt>
<pdfrwt beam="1">  1       21 0.22271842E-01 0.24665149E+03</pdfrwt>
<pdfrwt beam="2">  1        2 0.96877971E-01 0.24665149E+03</pdfrwt>
<totfact> 0.11169232E+04</totfact>
</mgrwt>
</event>
<event>
 5    0  0.3040647E+000  0.2696439E+03  0.7546771E-02  0.1101484E+00
         21   -1    0    0  503  502  0.00000000000E+00  0.00000000000E+00  0.67488700952E+02  0.67488700952E+02  0.00000000000E+00 0. -1.
          2   -1    0    0  502    0 -0.00000000000E+00 -0.00000000000E+00 -0.50793617524E+04  0.50793617524E+04  0.00000000000E+00 0. -1.
         25    1    1    2    0    0 -0.18609635996E+03 -0.15623185345E+03 -0.40717396621E+04  0.40808980780E+04  0.12500000000E+03 0.  0.
         21    1    1    2  503  501 -0.54217495325E+02  0.10257771512E+03 -0.25552345811E+02  0.11880507908E+03  0.00000000000E+00 0. -1.
          2    1    1    2  501    0  0.24031385528E+03  0.53654138331E+02 -0.91458104347E+03  0.94714729619E+03  0.00000000000E+00 0. -1.
<mgrwt>
<rscale>  4 0.26964394E+03</rscale>
<asrwt>0</asrwt>
<pdfrwt beam="1">  1       21 0.10382877E-01 0.26964394E+03</pdfrwt>
<pdfrwt beam="2">  1        2 0.78144029E+00 0.26964394E+03</pdfrwt>
<totfact> 0.38695396E+01</totfact>
</mgrwt>
</event>
<event>
 5    0  0.3040647E+000  0.2124079E+03  0.7546771E-02  0.1139673E+00
         21   -1    0    0  503  502  0.00000000000E+00  0.00000000000E+00  0.18380340862E+03  0.18380340862E+03  0.00000000000E+00 0.  1.
          2   -1    0    0  502    0 -0.00000000000E+00 -0.00000000000E+00 -0.14035928846E+04  0.14035928846E+04  0.00000000000E+00 0. -1.
         25    1    1    2    0    0  0.18497482098E+03  0.11489677904E+03 -0.68309163056E+03  0.72777477970E+03  0.12500000000E+03 0.  0.
         21    1    1    2  503  501 -0.39722018424E+02 -0.61050033249E+02  0.14407856844E+03  0.16144218529E+03  0.00000000000E+00 0.  1.
          2    1    1    2  501    0 -0.14525280256E+03 -0.53846745791E+02 -0.68077641386E+03  0.69817932822E+03  0.00000000000E+00 0. -1.
<mgrwt>
<rscale>  4 0.21240789E+03</rscale>
<asrwt>0</asrwt>
<pdfrwt beam="1">  1       21 0.28277448E-01 0.21240789E+03</pdfrwt>
<pdfrwt beam="2">  1        2 0.21593736E+00 0.21240789E+03</pdfrwt>
<totfact> 0.23366937E+03</totfact>
</mgrwt>
</event>
<event>
 5    0  0.3040647E+000  0.4080492E+03  0.7546771E-02  0.1043157E+00
          2   -1    0    0  502    0 -0.00000000000E+00  0.00000000000E+00  0.85729749969E+03  0.85729749969E+03  0.00000000000E+00 0.  1.
         21   -1    0    0  503  502  0.00000000000E+00 -0.00000000000E+00 -0.20286617829E+03  0.20286617829E+03  0.00000000000E+00 0.  1.
         25    1    1    2    0    0  0.17808664018E+03 -0.31597107840E+03  0.48487416008E+03  0.61828838329E+03  0.12500000000E+03 0.  0.
         21    1    1    2  503  501 -0.13612931181E+03  0.13002982161E+03  0.16636932363E+03  0.25123235438E+03  0.00000000000E+00 0.  1.
          2    1    1    2  501    0 -0.41957328371E+02  0.18594125679E+03  0.31878376903E+01  0.19064294031E+03  0.00000000000E+00 0.  1.
<mgrwt>
<rscale>  4 0.40180437E+03</rscale>
<asrwt>0</asrwt>
<pdfrwt beam="1">  1       21 0.31210182E-01 0.40804919E+03</pdfrwt>
<pdfrwt beam="2">  1        2 0.13189192E+00 0.40804919E+03</pdfrwt>
<totfact> 0.38119768E+03</totfact>
</mgrwt>
</event>
<event>
 5    0  0.3040647E+000  0.2793964E+03  0.7546771E-02  0.1096019E+00
          2   -1    0    0  502    0 -0.00000000000E+00  0.00000000000E+00  0.29684962823E+03  0.29684962823E+03  0.00000000000E+00 0. -1.
         21   -1    0    0  503  502  0.00000000000E+00 -0.00000000000E+00 -0.38846791707E+03  0.38846791707E+03  0.00000000000E+00 0. -1.
         25    1    1    2    0    0  0.29926795911E+03  0.54525083112E+01 -0.12978107963E+03  0.34936967502E+03  0.12500000000E+03 0.  0.
         21    1    1    2  503  501 -0.67260193371E+02  0.21178071503E+02 -0.49877456588E+02  0.86372478259E+02  0.00000000000E+00 0.  1.
          2    1    1    2  501    0 -0.23200776574E+03 -0.26630579814E+02  0.88040247366E+02  0.24957539202E+03  0.00000000000E+00 0. -1.
<mgrwt>
<rscale>  4 0.27939643E+03</rscale>
<asrwt>0</asrwt>
<pdfrwt beam="1">  1       21 0.59764295E-01 0.27939643E+03</pdfrwt>
<pdfrwt beam="2">  1        2 0.45669174E-01 0.27939643E+03</pdfrwt>
<totfact> 0.34903379E+03</totfact>
</mgrwt>
</event>
<event>
 5    0  0.3040647E+000  0.3037766E+03  0.7546771E-02  0.1083368E+00
         21   -1    0    0  503  502  0.00000000000E+00  0.00000000000E+00  0.46172434962E+03  0.46172434962E+03  0.00000000000E+00 0. -1.
          2   -1    0    0  502    0 -0.00000000000E+00 -0.00000000000E+00 -0.82727290793E+03  0.82727290793E+03  0.00000000000E+00 0. -1.
         25    1    1    2    0    0 -0.21211178109E+02  0.29319658711E+03 -0.59839990388E+02  0.32499227255E+03  0.12500000000E+03 0.  0.
         21    1    1    2  503  501  0.15009495722E+02 -0.20127318636E+02  0.29921929614E+03  0.30027084623E+03  0.00000000000E+00 0. -1.
          2    1    1    2  501    0  0.62016823866E+01 -0.27306926847E+03 -0.60492786406E+03  0.66373413876E+03  0.00000000000E+00 0. -1.
<mgrwt>
<rscale>  4 0.30377660E+03</rscale>
<asrwt>0</asrwt>
<pdfrwt beam="1">  1       21 0.71034516E-01 0.30377660E+03</pdfrwt>
<pdfrwt beam="2">  1        2 0.12727275E+00 0.30377660E+03</pdfrwt>
<totfact> 0.73002851E+02</totfact>
</mgrwt>
</event>
<event>
 5    0  0.3040647E+000  0.2496199E+03  0.7546771E-02  0.1113545E+00
         21   -1    0    0  501  502  0.00000000000E+00  0.00000000000E+00  0.11451158262E+04  0.11451158262E+04  0.00000000000E+00 0.  1.
         -2   -1    0    0    0  501 -0.00000000000E+00 -0.00000000000E+00 -0.12056441638E+03  0.12056441638E+03  0.00000000000E+00 0.  1.
         25    1    1    2    0    0 -0.16309934049E+03 -0.16857314248E+03  0.81836773786E+03  0.86044700802E+03  0.12500000000E+03 0.  0.
         21    1    1    2  503  502  0.22134949971E+02  0.81496804272E+01  0.18956893629E+03  0.19103076953E+03  0.00000000000E+00 0. -1.
         -2    1    1    2    0  503  0.14096439052E+03  0.16042346206E+03  0.16614735638E+02  0.21420246500E+03  0.00000000000E+00 0.  1.
<mgrwt>
<rscale>  4 0.24961994E+03</rscale>
<asrwt>0</asrwt>
<pdfrwt beam="1">  1       21 0.17617166E+00 0.24961994E+03</pdfrwt>
<pdfrwt beam="2">  1       -2 0.18548372E-01 0.24961994E+03</pdfrwt>
<totfact> 0.35549288E+02</totfact>
</mgrwt>
</event>
<event>
 5    0  0.3040647E+000  0.2845809E+03  0.7546771E-02  0.1093213E+00
          1   -1    0    0  502    0 -0.00000000000E+00  0.00000000000E+00  0.70390307953E+03  0.70390307953E+03  0.00000000000E+00 0. -1.
         21   -1    0    0  503  502  0.00000000000E+00 -0.00000000000E+00 -0.28311598327E+03  0.28311598327E+03  0.00000000000E+00 0. -1.
         25    1    1    2    0    0  0.24256619007E+03  0.16743267001E+03 -0.69845843897E+02  0.32768200662E+03  0.12500000000E+03 0.  0.
         21    1    1    2  503  501 -0.33803008085E+02 -0.29474697099E+02 -0.47832759356E+02  0.65569611805E+02  0.00000000000E+00 0.  1.
          1    1    1    2  501    0 -0.20876318199E+03 -0.13795797291E+03  0.53846569951E+03  0.59376744437E+03  0.00000000000E+00 0. -1.
<mgrwt>
<rscale>  4 0.28458088E+03</rscale>
<asrwt>0</asrwt>
<pdfrwt beam="1">  1       21 0.43556305E-01 0.28458088E+03</pdfrwt>
<pdfrwt beam="2">  1        1 0.10829278E+00 0.28458088E+03</pdfrwt>
<totfact> 0.15191893E+03</totfact>
</mgrwt>
</event>
<event>
 5    0  0.3040647E+000  0.2856749E+03  0.7546771E-02  0.1092629E+00
         21   -1    0    0  503  502  0.00000000000E+00  0.00000000000E+00  0.23771265620E+03  0.23771265620E+03  0.00000000000E+00 0. -1.
          2   -1    0    0  502    0 -0.00000000000E+00 -0.00000000000E+00 -0.29660815890E+04  0.29660815890E+04  0.00000000000E+00 0.  1.
         25    1    1    2    0    0 -0.27794147941E+03  0.74277271167E+02  0.90662536987E+02  0.32651688257E+03  0.12500000000E+03 0.  0.
         21    1    1    2  503  501  0.39441863164E+02  0.18934130681E+02  0.28100519614E+01  0.43841284955E+02  0.00000000000E+00 0. -1.
          2    1    1    2  501    0  0.23849961625E+03 -0.93211401848E+02 -0.28218415218E+04  0.28334360777E+04  0.00000000000E+00 0.  1.
<mgrwt>
<rscale>  4 0.28567487E+03</rscale>
<asrwt>0</asrwt>
<pdfrwt beam="1">  1       21 0.36571175E-01 0.28567487E+03</pdfrwt>
<pdfrwt beam="2">  1        2 0.45632028E+00 0.28567487E+03</pdfrwt>
<totfact> 0.19215734E+02</totfact>
</mgrwt>
</event>
<event>
 5    0  0.3040647E+000  0.1752527E+03  0.7546771E-02  0.1172478E+00
          2   -1    0    0  502    0 -0.00000000000E+00  0.00000000000E+00  0.10420591875E+04  0.10420591875E+04  0.00000000000E+00 0.  1.
         21   -1    0    0  503  502  0.00000000000E+00 -0.00000000000E+00 -0.77291893992E+03  0.77291893992E+03  0.00000000000E+00 0.  1.
         25    1    1    2    0    0  0.21444280377E+03  0.19357562787E+02  0.60697204570E+03  0.65604915638E+03  0.12500000000E+03 0.  0.
         21    1    1    2  503  501 -0.12169137685E+03  0.10287951885E+02 -0.73751357574E+03  0.74755662498E+03  0.00000000000E+00 0.  1.
          2    1    1    2  501    0 -0.92751426921E+02 -0.29645514672E+02  0.39968177762E+03  0.41137234605E+03  0.00000000000E+00 0.  1.
<mgrwt>
<rscale>  4 0.17525266E+03</rscale>
<asrwt>0</asrwt>
<pdfrwt beam="1">  1       21 0.11891061E+00 0.17525266E+03</pdfrwt>
<pdfrwt beam="2">  1        2 0.16031680E+00 0.17525266E+03</pdfrwt>
<totfact> 0.17288523E+02</totfact>
</mgrwt>
</event>
<event>
 5    0  0.3040647E+000  0.4984531E+03  0.7546771E-02  0.1014183E+00
         21   -1    0    0  503  502  0.00000000000E+00  0.00000000000E+00  0.32207425157E+03  0.32207425157E+03  0.00000000000E+00 0. -1.
          2   -1    0    0  502    0 -0.00000000000E+00 -0.00000000000E+00 -0.39381130067E+04  0.39381130067E+04  0.00000000000E+00 0. -1.
         25    1    1    2    0    0  0.72326743817E+03 -0.74064134460E+02 -0.18175018820E+04  0.19615145613E+04  0.12500000000E+03 0.  0.
         21    1    1    2  503  501 -0.32494641207E+03 -0.23164892521E+02  0.11211396583E+03  0.34452332910E+03  0.00000000000E+00 0. -1.
          2    1    1    2  501    0 -0.39832102610E+03  0.97229026981E+02 -0.19106508390E+04  0.19541493679E+04  0.00000000000E+00 0. -1.
<mgrwt>
<rscale>  4 0.49845315E+03</rscale>
<asrwt>0</asrwt>
<pdfrwt beam="1">  1       21 0.49549885E-01 0.49845315E+03</pdfrwt>
<pdfrwt beam="2">  1        2 0.60586354E+00 0.49845315E+03</pdfrwt>
<totfact> 0.20455161E+01</totfact>
</mgrwt>
</event>
<event>
 5    0  0.3040647E+000  0.3272964E+03  0.7546771E-02  0.1072339E+00
          2   -1    0    0  502    0 -0.00000000000E+00  0.00000000000E+00  0.22393387698E+04  0.22393387698E+04  0.00000000000E+00 0. -1.
         21   -1    0    0  503  502  0.00000000000E+00 -0.00000000000E+00 -0.83484763997E+02  0.83484763997E+02  0.00000000000E+00 0. -1.
         25    1    1    2    0    0  0.26647946885E+03 -0.47600475838E+02  0.27976111991E+03  0.40886232014E+03  0.12500000000E+03 0.  0.
         21    1    1    2  503  501  0.38514408408E+02 -0.14004458967E+01  0.56871186651E+02  0.68699729074E+02  0.00000000000E+00 0.  1.
          2    1    1    2  501    0 -0.30499387725E+03  0.49000921735E+02  0.18192216993E+04  0.18452614846E+04  0.00000000000E+00 0. -1.
<mgrwt>
<rscale>  4 0.32729636E+03</rscale>
<asrwt>0</asrwt>
<pdfrwt beam="1">  1       21 0.12843812E-01 0.32729636E+03</pdfrwt>
<pdfrwt beam="2">  1        2 0.34451361E+00 0.32729636E+03</pdfrwt>
<totfact> 0.35352946E+03</totfact>
</mgrwt>
</event>
<event>
 5    0  0.3040647E+000  0.2152822E+03  0.7546771E-02  0.1137450E+00
         21   -1    0    0  503  502  0.00000000000E+00  0.00000000000E+00  0.47794292901E+03  0.47794292901E+03  0.00000000000E+00 0. -1.
          1   -1    0    0  502    0 -0.00000000000E+00 -0.00000000000E+00 -0.25989582978E+04  0.25989582978E+04  0.00000000000E+00 0.  1.
         25    1    1    2    0    0 -0.17421060950E+03 -0.12068422074E+03 -0.12243761188E+04  0.12488538337E+04  0.12500000000E+03 0.  0.
         21    1    1    2  503  501  0.77135864480E+02 -0.10965023842E+02  0.45748902398E+03  0.46407583475E+03  0.00000000000E+00 0. -1.
          1    1    1    2  501    0  0.97074745021E+02  0.13164924458E+03 -0.13541282740E+04  0.13639715584E+04  0.00000000000E+00 0.  1.
<mgrwt>
<rscale>  4 0.21528216E+03</rscale>
<asrwt>0</asrwt>
<pdfrwt beam="1">  1       21 0.73529680E-01 0.21528216E+03</pdfrwt>
<pdfrwt beam="2">  1        1 0.39983974E+00 0.21528216E+03</pdfrwt>
<totfact> 0.25495649E+01</totfact>
</mgrwt>
</event>
<event>
 5    0  0.3040647E+000  0.3420670E+03  0.7546771E-02  0.1065919E+00
          2   -1    0    0  502    0 -0.00000000000E+00  0.00000000000E+00  0.27751213728E+04  0.27751213728E+04  0.00000000000E+00 0. -1.
         21   -1    0    0  503  502  0.00000000000E+00 -0.00000000000E+00 -0.44400154371E+03  0.44400154371E+03  0.00000000000E+00 0.  1.
         25    1    1    2    0    0 -0.39704027863E+02  0.33335417502E+03  0.17468140083E+04  0.17831672932E+04  0.12500000000E+03 0.  0.
         21    1    1    2  503  501  0.26992282825E+02 -0.35660573702E+02 -0.40258644641E+03  0.40506308976E+03  0.00000000000E+00 0.  1.
          2    1    1    2  501    0  0.12711745039E+02 -0.29769360132E+03  0.98689226716E+03  0.10308925335E+04  0.00000000000E+00 0. -1.
<mgrwt>
<rscale>  4 0.34206698E+03</rscale>
<asrwt>0</asrwt>
<pdfrwt beam="1">  1       21 0.68307931E-01 0.34206698E+03</pdfrwt>
<pdfrwt beam="2">  1        2 0.42694174E+00 0.34206698E+03</pdfrwt>
<totfact> 0.63919638E+01</totfact>
</mgrwt>
</event>
<event>
 5    0  0.3040647E+000  0.4573637E+03  0.7546771E-02  0.1025549E+00
          1   -1    0    0  502    0 -0.00000000000E+00  0.00000000000E+00  0.18339521460E+04  0.18339521460E+04  0.00000000000E+00 0. -1.
         21   -1    0    0  503  502  0.00000000000E+00 -0.00000000000E+00 -0.17696629839E+03  0.17696629839E+03  0.00000000000E+00 0. -1.
         25    1    1    2    0    0 -0.43330057730E+03  0.20142888226E+03  0.50036677008E+03  0.70307530855E+03  0.12500000000E+03 0.  0.
         21    1    1    2  503  501  0.31186633146E+03 -0.26498700836E+03  0.54779778540E+03  0.68378442290E+03  0.00000000000E+00 0. -1.
          1    1    1    2  501    0  0.12143424584E+03  0.63558126104E+02  0.60882129217E+03  0.62405871299E+03  0.00000000000E+00 0. -1.
<mgrwt>
<rscale>  4 0.45736372E+03</rscale>
<asrwt>0</asrwt>
<pdfrwt beam="1">  1       21 0.27225586E-01 0.45736372E+03</pdfrwt>
<pdfrwt beam="2">  1        1 0.28214647E+00 0.45736372E+03</pdfrwt>
<totfact> 0.56425748E+02</totfact>
</mgrwt>
</event>
<event>
 5    0  0.3040647E+000  0.2492057E+03  0.7546771E-02  0.1113808E+00
          2   -1    0    0  502    0 -0.00000000000E+00  0.00000000000E+00  0.20122176995E+04  0.20122176995E+04  0.00000000000E+00 0.  1.
         21   -1    0    0  503  502  0.00000000000E+00 -0.00000000000E+00 -0.60137401710E+02  0.60137401710E+02  0.00000000000E+00 0.  1.
         25    1    1    2    0    0  0.11946636476E+03 -0.19757076366E+03  0.33839317319E+03  0.42830054708E+03  0.12500000000E+03 0.  0.
         21    1    1    2  503  501  0.11053447058E+02  0.28774930668E+02  0.21377048283E+02  0.37512045000E+02  0.00000000000E+00 0.  1.
          2    1    1    2  501    0 -0.13051981182E+03  0.16879583299E+03  0.15923100763E+04  0.16065425091E+04  0.00000000000E+00 0.  1.
<mgrwt>
<rscale>  4 0.24920568E+03</rscale>
<asrwt>0</asrwt>
<pdfrwt beam="1">  1       21 0.92519095E-02 0.24920568E+03</pdfrwt>
<pdfrwt beam="2">  1        2 0.30957190E+00 0.24920568E+03</pdfrwt>
<totfact> 0.86374521E+03</totfact>
</mgrwt>
</event>
<event>
 5    0  0.3040647E+000  0.1940325E+03  0.7546771E-02  0.1154874E+00
         21   -1    0    0  503  502  0.00000000000E+00  0.00000000000E+00  0.13995500812E+04  0.13995500812E+04  0.00000000000E+00 0.  1.
          2   -1    0    0  502    0 -0.00000000000E+00 -0.00000000000E+00 -0.81168193232E+03  0.81168193232E+03  0.00000000000E+00 0. -1.
         25    1    1    2    0    0 -0.14465021634E+03  0.15329561637E+03 -0.46179312087E+03  0.52278209377E+03  0.12500000000E+03 0.  0.
         21    1    1    2  503  501  0.42041009611E+02 -0.82670074517E+02  0.13552648004E+04  0.13584345649E+04  0.00000000000E+00 0.  1.
          2    1    1    2  501    0  0.10260920673E+03 -0.70625541849E+02 -0.30560353071E+03  0.33001535487E+03  0.00000000000E+00 0. -1.
<mgrwt>
<rscale>  4 0.19403249E+03</rscale>
<asrwt>0</asrwt>
<pdfrwt beam="1">  1       21 0.21531540E+00 0.19403249E+03</pdfrwt>
<pdfrwt beam="2">  1        2 0.12487414E+00 0.19403249E+03</pdfrwt>
<totfact> 0.47295376E+01</totfact>
</mgrwt>
</event>
<event>
 5    0  0.3040647E+000  0.2807860E+03  0.7546771E-02  0.1095260E+00
         21   -1    0    0  503  502  0.00000000000E+00  0.00000000000E+00  0.11487474324E+03  0.11487474324E+03  0.00000000000E+00 0.  1.
          1   -1    0    0  502    0 -0.00000000000E+00 -0.00000000000E+00 -0.69690896205E+03  0.69690896205E+03  0.00000000000E+00 0.  1.
         25    1    1    2    0    0  0.24607735961E+03 -0.51591612192E+02 -0.38463705456E+03  0.47622098348E+03  0.12500000000E+03 0.  0.
         21    1    1    2  503  501 -0.62738898085E+02  0.21990331627E+02 -0.27566732448E+01  0.66538284208E+02  0.00000000000E+00 0.  1.
          1    1    1    2  501    0 -0.18333846153E+03  0.29601280565E+02 -0.19464049101E+03  0.26902443760E+03  0.00000000000E+00 0.  1.
<mgrwt>
<rscale>  4 0.28078597E+03</rscale>
<asrwt>0</asrwt>
<pdfrwt beam="1">  1       21 0.17673038E-01 0.28078597E+03</pdfrwt>
<pdfrwt beam="2">  1        1 0.10721676E+00 0.28078597E+03</pdfrwt>
<totfact> 0.89887633E+03</totfact>
</mgrwt>
</event>
<event>
 5    0  0.3040647E+000  0.2255543E+03  0.7546771E-02  0.1129809E+00
         21   -1    0    0  503  502  0.00000000000E+00  0.00000000000E+00  0.18804562155E+03  0.18804562155E+03  0.00000000000E+00 0. -1.
          2   -1    0    0  502    0 -0.00000000000E+00 -0.00000000000E+00 -0.13491035864E+04  0.13491035864E+04  0.00000000000E+00 0. -1.
         25    1    1    2    0    0 -0.14253091555E+03  0.15240507638E+03  0.73797909531E+02  0.25419185795E+03  0.12500000000E+03 0.  0.
         21    1    1    2  503  501  0.11512867762E+03 -0.79618103077E+02 -0.19414707671E+03  0.23934648973E+03  0.00000000000E+00 0. -1.
          2    1    1    2  501    0  0.27402237931E+02 -0.72786973303E+02 -0.10407087977E+04  0.10436108603E+04  0.00000000000E+00 0. -1.
<mgrwt>
<rscale>  4 0.22555434E+03</rscale>
<asrwt>0</asrwt>
<pdfrwt beam="1">  1       21 0.28930095E-01 0.22555434E+03</pdfrwt>
<pdfrwt beam="2">  1        2 0.20755440E+00 0.22555434E+03</pdfrwt>
<totfact> 0.23773338E+03</totfact>
</mgrwt>
</event>
<event>
 5    0  0.3040647E+000  0.2632684E+03  0.7546771E-02  0.1105195E+00
          1   -1    0    0  502    0 -0.00000000000E+00  0.00000000000E+00  0.12565595030E+04  0.12565595030E+04  0.00000000000E+00 0.  1.
         21   -1    0    0  503  502  0.00000000000E+00 -0.00000000000E+00 -0.44507679089E+03  0.44507679089E+03  0.00000000000E+00 0. -1.
         25    1    1    2    0    0  0.23141102133E+03 -0.12708896095E+03 -0.33227352816E+03  0.44241763336E+03  0.12500000000E+03 0.  0.
         21    1    1    2  503  501 -0.15582714339E+03  0.48498865520E+02  0.66128708536E+02  0.17608874088E+03  0.00000000000E+00 0. -1.
          1    1    1    2  501    0 -0.75583877946E+02  0.78590095431E+02  0.10776275317E+04  0.10831299196E+04  0.00000000000E+00 0.  1.
<mgrwt>
<rscale>  4 0.26326837E+03</rscale>
<asrwt>0</asrwt>
<pdfrwt beam="1">  1       21 0.68473353E-01 0.26326837E+03</pdfrwt>
<pdfrwt beam="2">  1        1 0.19331684E+00 0.26326837E+03</pdfrwt>
<totfact> 0.21903152E+02</totfact>
</mgrwt>
</event>
<event>
 5    0  0.3040647E+000  0.2996644E+03  0.7546771E-02  0.1085408E+00
          2   -1    0    0  502    0 -0.00000000000E+00  0.00000000000E+00  0.65402159727E+03  0.65402159727E+03  0.00000000000E+00 0. -1.
         21   -1    0    0  503  502  0.00000000000E+00 -0.00000000000E+00 -0.17558245722E+03  0.17558245722E+03  0.00000000000E+00 0. -1.
         25    1    1    2    0    0 -0.52000737328E+02  0.25662273850E+03  0.30948558355E+03  0.42422356491E+03  0.12500000000E+03 0.  0.
         21    1    1    2  503  501  0.30820211635E+02  0.29844206738E+02 -0.33099620058E+02  0.54186224901E+02  0.00000000000E+00 0.  1.
          2    1    1    2  501    0  0.21180525693E+02 -0.28646694524E+03  0.20205317656E+03  0.35119426467E+03  0.00000000000E+00 0. -1.
<mgrwt>
<rscale>  4 0.29966442E+03</rscale>
<asrwt>0</asrwt>
<pdfrwt beam="1">  1       21 0.27012686E-01 0.29966442E+03</pdfrwt>
<pdfrwt beam="2">  1        2 0.10061871E+00 0.29966442E+03</pdfrwt>
<totfact> 0.72884239E+03</totfact>
</mgrwt>
</event>
<event>
 5    0  0.3040647E+000  0.2916485E+03  0.7546771E-02  0.1089492E+00
         21   -1    0    0  503  502  0.00000000000E+00  0.00000000000E+00  0.79062752319E+02  0.79062752319E+02  0.00000000000E+00 0. -1.
          2   -1    0    0  502    0 -0.00000000000E+00 -0.00000000000E+00 -0.13085797438E+04  0.13085797438E+04  0.00000000000E+00 0. -1.
         25    1    1    2    0    0  0.27640282793E+03 -0.74036994216E+02 -0.44051591565E+03  0.53996228733E+03  0.12500000000E+03 0.  0.
         21    1    1    2  503  501 -0.28637598828E+02  0.17186643521E+02 -0.22873565581E+02  0.40480770552E+02  0.00000000000E+00 0.  1.
          2    1    1    2  501    0 -0.24776522910E+03  0.56850350695E+02 -0.76612751025E+03  0.80719943823E+03  0.00000000000E+00 0. -1.
<mgrwt>
<rscale>  4 0.29164851E+03</rscale>
<asrwt>0</asrwt>
<pdfrwt beam="1">  1       21 0.12163500E-01 0.29164851E+03</pdfrwt>
<pdfrwt beam="2">  1        2 0.20131996E+00 0.29164851E+03</pdfrwt>
<totfact> 0.12395711E+04</totfact>
</mgrwt>
</event>
<event>
 5    0  0.3040647E+000  0.2729995E+03  0.7546771E-02  0.1099575E+00
         -4   -1    0    0    0  501 -0.00000000000E+00  0.00000000000E+00  0.73655023226E+03  0.73655023226E+03  0.00000000000E+00 0.  1.
         21   -1    0    0  501  502  0.00000000000E+00 -0.00000000000E+00 -0.10944246150E+03  0.10944246150E+03  0.00000000000E+00 0.  1.
         25    1    1    2    0    0  0.22824143240E+03 -0.20050092018E+02  0.25384851893E+03  0.36408821488E+03  0.12500000000E+03 0.  0.
         21    1    1    2  503  502  0.18697748113E+02 -0.39297846979E+02  0.22897690359E+02  0.49175510017E+02  0.00000000000E+00 0.  1.
         -4    1    1    2    0  503 -0.24693918052E+03  0.59347938997E+02  0.35036156147E+03  0.43272896887E+03  0.00000000000E+00 0.  1.
<mgrwt>
<rscale>  4 0.27299946E+03</rscale>
<asrwt>0</asrwt>
<pdfrwt beam="1">  1       21 0.16837302E-01 0.27299946E+03</pdfrwt>
<pdfrwt beam="2">  1       -4 0.11331542E+00 0.27299946E+03</pdfrwt>
<totfact> 0.84950456E+02</totfact>
</mgrwt>
</event>
<event>
 5    0  0.3040647E+000  0.3238088E+03  0.7546771E-02  0.1073910E+00
         21   -1    0    0  501  502  0.00000000000E+00  0.00000000000E+00  0.20286024353E+03  0.20286024353E+03  0.00000000000E+00 0. -1.
         -1   -1    0    0    0  501 -0.00000000000E+00 -0.00000000000E+00 -0.76130042789E+03  0.76130042789E+03  0.00000000000E+00 0. -1.
         25    1    1    2    0    0 -0.12962158307E+03  0.27793016084E+03 -0.10231741981E+03  0.34661330542E+03  0.12500000000E+03 0.  0.
         21    1    1    2  503  502  0.65592629050E+02  0.12895114805E+02  0.67163021809E+01  0.67184713191E+02  0.00000000000E+00 0. -1.
         -1    1    1    2    0  503  0.64028954017E+02 -0.29082527564E+03 -0.46283906674E+03  0.55036265280E+03  0.00000000000E+00 0. -1.
<mgrwt>
<rscale>  4 0.32380879E+03</rscale>
<asrwt>0</asrwt>
<pdfrwt beam="1">  1       21 0.31209268E-01 0.32380879E+03</pdfrwt>
<pdfrwt beam="2">  1       -1 0.11712314E+00 0.32380879E+03</pdfrwt>
<totfact> 0.62088186E+02</totfact>
</mgrwt>
</event>
<event>
 5    0  0.3040647E+000  0.2585432E+03  0.7546771E-02  0.1108022E+00
         -1   -1    0    0    0  501 -0.00000000000E+00  0.00000000000E+00  0.20058409601E+03  0.20058409601E+03  0.00000000000E+00 0.  1.
         21   -1    0    0  501  502  0.00000000000E+00 -0.00000000000E+00 -0.44759852540E+03  0.44759852540E+03  0.00000000000E+00 0.  1.
         25    1    1    2    0    0  0.79433934773E+02  0.22565316838E+03 -0.21554816628E+03  0.34542019973E+03  0.12500000000E+03 0.  0.
         21    1    1    2  503  502  0.37339380073E+01 -0.19659373712E+02 -0.73930592492E+02  0.76590898767E+02  0.00000000000E+00 0. -1.
         -1    1    1    2    0  503 -0.83167872780E+02 -0.20599379467E+03  0.42464329377E+02  0.22617152291E+03  0.00000000000E+00 0.  1.
<mgrwt>
<rscale>  4 0.25854317E+03</rscale>
<asrwt>0</asrwt>
<pdfrwt beam="1">  1       21 0.68861311E-01 0.25854317E+03</pdfrwt>
<pdfrwt beam="2">  1       -1 0.30859092E-01 0.25854317E+03</pdfrwt>
<totfact> 0.16749104E+03</totfact>
</mgrwt>
</event>
<event>
 5    0  0.3040647E+000  0.3214109E+03  0.7546771E-02  0.1075002E+00
         21   -1    0    0  503  502  0.00000000000E+00  0.00000000000E+00  0.15136557184E+03  0.15136557184E+03  0.00000000000E+00 0. -1.
          2   -1    0    0  502    0 -0.00000000000E+00 -0.00000000000E+00 -0.35931169857E+04  0.35931169857E+04  0.00000000000E+00 0. -1.
         25    1    1    2    0    0 -0.49043744012E+01 -0.30245440927E+03 -0.39598477656E+03  0.51374280125E+03  0.12500000000E+03 0.  0.
         21    1    1    2  503  501  0.22205673696E+03  0.23724283158E+03 -0.21216525410E+03  0.38808175764E+03  0.00000000000E+00 0. -1.
          2    1    1    2  501    0 -0.21715236255E+03  0.65211577689E+02 -0.28336013832E+04  0.28426579986E+04  0.00000000000E+00 0. -1.
<mgrwt>
<rscale>  4 0.32141093E+03</rscale>
<asrwt>0</asrwt>
<pdfrwt beam="1">  1       21 0.23287013E-01 0.32141093E+03</pdfrwt>
<pdfrwt beam="2">  1        2 0.55278719E+00 0.32141093E+03</pdfrwt>
<totfact> 0.18295574E+02</totfact>
</mgrwt>
</event>
<event>
 5    0  0.3040647E+000  0.2671071E+03  0.7546771E-02  0.1102947E+00
         21   -1    0    0  503  502  0.00000000000E+00  0.00000000000E+00  0.47918593565E+02  0.47918593565E+02  0.00000000000E+00 0. -1.
          2   -1    0    0  502    0 -0.00000000000E+00 -0.00000000000E+00 -0.21617780220E+04  0.21617780220E+04  0.00000000000E+00 0.  1.
         25    1    1    2    0    0 -0.22107234882E+03  0.33078825428E+02 -0.14151158271E+04  0.14381046541E+04  0.12500000000E+03 0.  0.
         21    1    1    2  503  501 -0.36010754666E+02  0.29103076993E+02 -0.38076675880E+02  0.59946616153E+02  0.00000000000E+00 0. -1.
          2    1    1    2  501    0  0.25708310348E+03 -0.62181902421E+02 -0.66066692548E+03  0.71164534531E+03  0.00000000000E+00 0.  1.
<mgrwt>
<rscale>  4 0.26710706E+03</rscale>
<asrwt>0</asrwt>
<pdfrwt beam="1">  1       21 0.73720929E-02 0.26710706E+03</pdfrwt>
<pdfrwt beam="2">  1        2 0.33258116E+00 0.26710706E+03</pdfrwt>
<totfact> 0.10666302E+04</totfact>
</mgrwt>
</event>
<event>
 5    0  0.3040647E+000  0.1966463E+03  0.7546771E-02  0.1152600E+00
         21   -1    0    0  501  502  0.00000000000E+00  0.00000000000E+00  0.50797639842E+03  0.50797639842E+03  0.00000000000E+00 0.  1.
         -4   -1    0    0    0  501 -0.00000000000E+00 -0.00000000000E+00 -0.29873715664E+03  0.29873715664E+03  0.00000000000E+00 0.  1.
         25    1    1    2    0    0 -0.10632967843E+03 -0.25009573842E+03 -0.15552660714E+02  0.29953424537E+03  0.12500000000E+03 0.  0.
         21    1    1    2  503  502  0.79240621497E+02  0.11634105042E+03  0.31402107777E+03  0.34412723431E+03  0.00000000000E+00 0.  1.
         -4    1    1    2    0  503  0.27089056928E+02  0.13375468800E+03 -0.89229175271E+02  0.16305207538E+03  0.00000000000E+00 0.  1.
<mgrwt>
<rscale>  4 0.19664626E+03</rscale>
<asrwt>0</asrwt>
<pdfrwt beam="1">  1       21 0.78150215E-01 0.19664626E+03</pdfrwt>
<pdfrwt beam="2">  1       -4 0.45959563E-01 0.19664626E+03</pdfrwt>
<totfact> 0.28058708E+02</totfact>
</mgrwt>
</event>
<event>
 5    0  0.3040647E+000  0.2688417E+03  0.7546771E-02  0.1101944E+00
         21   -1    0    0  503  502  0.00000000000E+00  0.00000000000E+00  0.15843097757E+03  0.15843097757E+03  0.00000000000E+00 0.  1.
          2   -1    0    0  502    0 -0.00000000000E+00 -0.00000000000E+00 -0.96949494723E+03  0.96949494723E+03  0.00000000000E+00 0.  1.
         25    1    1    2    0    0 -0.24989311645E+02  0.21849509993E+03 -0.60281261085E+02  0.26004500539E+03  0.12500000000E+03 0.  0.
         21    1    1    2  503  501 -0.77150147578E+00  0.21410413549E+02  0.37669327497E+02  0.43335658031E+02  0.00000000000E+00 0. -1.
          2    1    1    2  501    0  0.25760813121E+02 -0.23990551348E+03 -0.78845203607E+03  0.82454526138E+03  0.00000000000E+00 0.  1.
<mgrwt>
<rscale>  4 0.26884172E+03</rscale>
<asrwt>0</asrwt>
<pdfrwt beam="1">  1       21 0.24373997E-01 0.26884172E+03</pdfrwt>
<pdfrwt beam="2">  1        2 0.14915307E+00 0.26884172E+03</pdfrwt>
<totfact> 0.54017151E+03</totfact>
</mgrwt>
</event>
<event>
 5    0  0.3040647E+000  0.1965161E+03  0.7546771E-02  0.1152712E+00
         21   -1    0    0  503  502  0.00000000000E+00  0.00000000000E+00  0.27654258151E+03  0.27654258151E+03  0.00000000000E+00 0.  1.
          1   -1    0    0  502    0 -0.00000000000E+00 -0.00000000000E+00 -0.24545794640E+04  0.24545794640E+04  0.00000000000E+00 0. -1.
         25    1    1    2    0    0  0.44637609112E+02 -0.21172960613E+03  0.20235240237E+03  0.32154849868E+03  0.12500000000E+03 0.  0.
         21    1    1    2  503  501 -0.16748814042E+02  0.63301195167E+02 -0.76320294212E+02  0.10056018790E+03  0.00000000000E+00 0.  1.
          1    1    1    2  501    0 -0.27888795070E+02  0.14842841096E+03 -0.23040689906E+04  0.23090133589E+04  0.00000000000E+00 0. -1.
<mgrwt>
<rscale>  4 0.19651609E+03</rscale>
<asrwt>0</asrwt>
<pdfrwt beam="1">  1       21 0.42545014E-01 0.19651609E+03</pdfrwt>
<pdfrwt beam="2">  1        1 0.37762760E+00 0.19651609E+03</pdfrwt>
<totfact> 0.10374758E+02</totfact>
</mgrwt>
</event>
<event>
 5    0  0.3040647E+000  0.2525231E+03  0.7546771E-02  0.1111721E+00
         21   -1    0    0  503  502  0.00000000000E+00  0.00000000000E+00  0.21579728595E+03  0.21579728595E+03  0.00000000000E+00 0.  1.
          1   -1    0    0  502    0 -0.00000000000E+00 -0.00000000000E+00 -0.23513432482E+04  0.23513432482E+04  0.00000000000E+00 0.  1.
         25    1    1    2    0    0  0.19380747192E+03 -0.51458792879E+02  0.33824635751E+02  0.23870159095E+03  0.12500000000E+03 0.  0.
         21    1    1    2  503  501  0.11813360242E+02 -0.27351740869E+02  0.71143096719E+02  0.77129847786E+02  0.00000000000E+00 0.  1.
          1    1    1    2  501    0 -0.20562083216E+03  0.78810533749E+02 -0.22405136948E+04  0.22513090955E+04  0.00000000000E+00 0.  1.
<mgrwt>
<rscale>  4 0.25252314E+03</rscale>
<asrwt>0</asrwt>
<pdfrwt beam="1">  1       21 0.33199580E-01 0.25252314E+03</pdfrwt>
<pdfrwt beam="2">  1        1 0.36174514E+00 0.25252314E+03</pdfrwt>
<totfact> 0.19090450E+02</totfact>
</mgrwt>
</event>
<event>
 5    0  0.3040647E+000  0.3034289E+03  0.7546771E-02  0.1083539E+00
          1   -1    0    0  502    0 -0.00000000000E+00  0.00000000000E+00  0.15242572586E+04  0.15242572586E+04  0.00000000000E+00 0.  1.
         21   -1    0    0  503  502  0.00000000000E+00 -0.00000000000E+00 -0.18161438537E+03  0.18161438537E+03  0.00000000000E+00 0.  1.
         25    1    1    2    0    0  0.14141887865E+03  0.21522125595E+03  0.66594769056E+03  0.72486606681E+03  0.12500000000E+03 0.  0.
         21    1    1    2  503  501 -0.30391825041E+03 -0.17956940058E+02  0.55736684242E+02  0.30950821088E+03  0.00000000000E+00 0.  1.
          1    1    1    2  501    0  0.16249937176E+03 -0.19726431589E+03  0.62095849843E+03  0.67149736628E+03  0.00000000000E+00 0.  1.
<mgrwt>
<rscale>  4 0.30342887E+03</rscale>
<asrwt>0</asrwt>
<pdfrwt beam="1">  1       21 0.27940676E-01 0.30342887E+03</pdfrwt>
<pdfrwt beam="2">  1        1 0.23450111E+00 0.30342887E+03</pdfrwt>
<totfact> 0.90601611E+02</totfact>
</mgrwt>
</event>
<event>
 5    0  0.3040647E+000  0.2330332E+03  0.7546771E-02  0.1124523E+00
         21   -1    0    0  503  502  0.00000000000E+00  0.00000000000E+00  0.19377924660E+04  0.19377924660E+04  0.00000000000E+00 0.  1.
          1   -1    0    0  502    0 -0.00000000000E+00 -0.00000000000E+00 -0.19624671105E+04  0.19624671105E+04  0.00000000000E+00 0. -1.
         25    1    1    2    0    0  0.14109095687E+03  0.16529817878E+03 -0.54893802354E+03  0.60347999114E+03  0.12500000000E+03 0.  0.
         21    1    1    2  503  501 -0.18379094522E+02 -0.18077179696E+02  0.19038094521E+04  0.19039839824E+04  0.00000000000E+00 0.  1.
          1    1    1    2  501    0 -0.12271186235E+03 -0.14722099909E+03 -0.13795460730E+04  0.13927956029E+04  0.00000000000E+00 0. -1.
<mgrwt>
<rscale>  4 0.23303324E+03</rscale>
<asrwt>0</asrwt>
<pdfrwt beam="1">  1       21 0.29812192E+00 0.23303324E+03</pdfrwt>
<pdfrwt beam="2">  1        1 0.30191802E+00 0.23303324E+03</pdfrwt>
<totfact> 0.13342917E+00</totfact>
</mgrwt>
</event>
<event>
 5    0  0.3040647E+000  0.2474435E+03  0.7546771E-02  0.1114931E+00
         21   -1    0    0  503  502  0.00000000000E+00  0.00000000000E+00  0.15608028135E+03  0.15608028135E+03  0.00000000000E+00 0. -1.
          1   -1    0    0  502    0 -0.00000000000E+00 -0.00000000000E+00 -0.16915868447E+04  0.16915868447E+04  0.00000000000E+00 0. -1.
         25    1    1    2    0    0  0.13173828224E+03 -0.19499149708E+03 -0.87737296079E+03  0.91694327593E+03  0.12500000000E+03 0.  0.
         21    1    1    2  503  501 -0.32494597573E+02  0.21471383961E+02  0.12060536343E+03  0.12673820612E+03  0.00000000000E+00 0. -1.
          1    1    1    2  501    0 -0.99243684670E+02  0.17352011312E+03 -0.77873896601E+03  0.80398564402E+03  0.00000000000E+00 0. -1.
<mgrwt>
<rscale>  4 0.24744352E+03</rscale>
<asrwt>0</asrwt>
<pdfrwt beam="1">  1       21 0.24012352E-01 0.24744352E+03</pdfrwt>
<pdfrwt beam="2">  1        1 0.26024412E+00 0.24744352E+03</pdfrwt>
<totfact> 0.96670636E+02</totfact>
</mgrwt>
</event>
<event>
 5    0  0.3040647E+000  0.5174780E+03  0.7546771E-02  0.1009315E+00
         21   -1    0    0  503  502  0.00000000000E+00  0.00000000000E+00  0.12815327614E+04  0.12815327614E+04  0.00000000000E+00 0.  1.
          2   -1    0    0  502    0 -0.00000000000E+00 -0.00000000000E+00 -0.20107200029E+04  0.20107200029E+04  0.00000000000E+00 0.  1.
         25    1    1    2    0    0 -0.15486668040E+02  0.31844064803E+03 -0.39433947140E+03  0.52227665265E+03  0.12500000000E+03 0.  0.
         21    1    1    2  503  501  0.23645035226E+03 -0.47267794023E+03  0.11474842199E+04  0.12633500066E+04  0.00000000000E+00 0.  1.
          2    1    1    2  501    0 -0.22096368422E+03  0.15423729220E+03 -0.14823319900E+04  0.15066261051E+04  0.00000000000E+00 0.  1.
<mgrwt>
<rscale>  4 0.51747802E+03</rscale>
<asrwt>0</asrwt>
<pdfrwt beam="1">  1       21 0.19715889E+00 0.51747802E+03</pdfrwt>
<pdfrwt beam="2">  1        2 0.30934154E+00 0.51747802E+03</pdfrwt>
<totfact> 0.10271222E+01</totfact>
</mgrwt>
</event>
<event>
 5    0  0.3040647E+000  0.1919610E+03  0.7546771E-02  0.1156704E+00
         21   -1    0    0  503  502  0.00000000000E+00  0.00000000000E+00  0.10174483992E+03  0.10174483992E+03  0.00000000000E+00 0.  1.
          3   -1    0    0  502    0 -0.00000000000E+00 -0.00000000000E+00 -0.23528912825E+04  0.23528912825E+04  0.00000000000E+00 0. -1.
         25    1    1    2    0    0 -0.15353131902E+03 -0.15788865309E+03 -0.12452788405E+03  0.28219299531E+03  0.12500000000E+03 0.  0.
         21    1    1    2  503  501  0.55210735865E+02  0.53574706795E+02 -0.51952334258E+02  0.92830596237E+02  0.00000000000E+00 0.  1.
          3    1    1    2  501    0  0.98320583151E+02  0.10431394630E+03 -0.20746662243E+04  0.20796125309E+04  0.00000000000E+00 0. -1.
<mgrwt>
<rscale>  4 0.19196103E+03</rscale>
<asrwt>0</asrwt>
<pdfrwt beam="1">  1       21 0.15653054E-01 0.19196103E+03</pdfrwt>
<pdfrwt beam="2">  1        3 0.36198323E+00 0.19196103E+03</pdfrwt>
<totfact> 0.38829493E+01</totfact>
</mgrwt>
</event>
<event>
 5    0  0.3040647E+000  0.2697002E+03  0.7546771E-02  0.1101451E+00
         21   -1    0    0  503  502  0.00000000000E+00  0.00000000000E+00  0.17476247660E+03  0.17476247660E+03  0.00000000000E+00 0.  1.
          2   -1    0    0  502    0 -0.00000000000E+00 -0.00000000000E+00 -0.10875877857E+04  0.10875877857E+04  0.00000000000E+00 0.  1.
         25    1    1    2    0    0  0.25017996348E+02 -0.24277934535E+03  0.32473668779E+02  0.27612904562E+03  0.12500000000E+03 0.  0.
         21    1    1    2  503  501  0.21212342113E+02  0.45054701058E+02 -0.60196095381E+02  0.78124640444E+02  0.00000000000E+00 0.  1.
          2    1    1    2  501    0 -0.46230338462E+02  0.19772464429E+03 -0.88510288249E+03  0.90809657622E+03  0.00000000000E+00 0.  1.
<mgrwt>
<rscale>  4 0.26970020E+03</rscale>
<asrwt>0</asrwt>
<pdfrwt beam="1">  1       21 0.26886536E-01 0.26970020E+03</pdfrwt>
<pdfrwt beam="2">  1        2 0.16732119E+00 0.26970020E+03</pdfrwt>
<totfact> 0.37889825E+03</totfact>
</mgrwt>
</event>
<event>
 5    0  0.3040647E+000  0.2837921E+03  0.7546771E-02  0.1093636E+00
         21   -1    0    0  503  502  0.00000000000E+00  0.00000000000E+00  0.20384328886E+03  0.20384328886E+03  0.00000000000E+00 0.  1.
          1   -1    0    0  502    0 -0.00000000000E+00 -0.00000000000E+00 -0.16957830088E+04  0.16957830088E+04  0.00000000000E+00 0. -1.
         25    1    1    2    0    0  0.24314442781E+03 -0.12511643294E+03 -0.36578124782E+03  0.47349155835E+03  0.12500000000E+03 0.  0.
         21    1    1    2  503  501 -0.21252606544E+02  0.88290068326E+01  0.13672261681E+03  0.13864594690E+03  0.00000000000E+00 0.  1.
          1    1    1    2  501    0 -0.22189182127E+03  0.11628742611E+03 -0.12628810890E+04  0.12874887925E+04  0.00000000000E+00 0. -1.
<mgrwt>
<rscale>  4 0.28379212E+03</rscale>
<asrwt>0</asrwt>
<pdfrwt beam="1">  1       21 0.31360508E-01 0.28379212E+03</pdfrwt>
<pdfrwt beam="2">  1        1 0.26088967E+00 0.28379212E+03</pdfrwt>
<totfact> 0.56142594E+02</totfact>
</mgrwt>
</event>
<event>
 5    0  0.3040647E+000  0.3091317E+03  0.7546771E-02  0.1080763E+00
         21   -1    0    0  503  502  0.00000000000E+00  0.00000000000E+00  0.31579190636E+03  0.31579190636E+03  0.00000000000E+00 0.  1.
          4   -1    0    0  502    0 -0.00000000000E+00 -0.00000000000E+00 -0.92881084143E+03  0.92881084143E+03  0.00000000000E+00 0.  1.
         25    1    1    2    0    0  0.54680522952E+02 -0.27914283594E+03  0.20461742711E+03  0.37202684570E+03  0.12500000000E+03 0.  0.
         21    1    1    2  503  501  0.92988014763E+01  0.20797859861E+02 -0.15805415597E+02  0.27727781121E+02  0.00000000000E+00 0. -1.
          4    1    1    2  501    0 -0.63979324428E+02  0.25834497608E+03 -0.80183094658E+03  0.84484812097E+03  0.00000000000E+00 0.  1.
<mgrwt>
<rscale>  4 0.30913175E+03</rscale>
<asrwt>0</asrwt>
<pdfrwt beam="1">  1       21 0.48583372E-01 0.30913175E+03</pdfrwt>
<pdfrwt beam="2">  1        4 0.14289397E+00 0.30913175E+03</pdfrwt>
<totfact> 0.59307877E+01</totfact>
</mgrwt>
</event>
<event>
 5    0  0.3040647E+000  0.2855906E+03  0.7546771E-02  0.1092674E+00
          2   -1    0    0  502    0 -0.00000000000E+00  0.00000000000E+00  0.42922423019E+04  0.42922423019E+04  0.00000000000E+00 0. -1.
         21   -1    0    0  503  502  0.00000000000E+00 -0.00000000000E+00 -0.27119566897E+02  0.27119566897E+02  0.00000000000E+00 0. -1.
         25    1    1    2    0    0  0.23627487412E+03 -0.71449359093E+01  0.89298827758E+03  0.93216411117E+03  0.12500000000E+03 0.  0.
         21    1    1    2  503  501  0.25726678824E+02 -0.29089729536E+01  0.69398820206E+02  0.74071049492E+02  0.00000000000E+00 0. -1.
          2    1    1    2  501    0 -0.26200155295E+03  0.10053908863E+02  0.33027356372E+04  0.33131267082E+04  0.00000000000E+00 0. -1.
<mgrwt>
<rscale>  4 0.28559062E+03</rscale>
<asrwt>0</asrwt>
<pdfrwt beam="1">  1       21 0.41722445E-02 0.28559062E+03</pdfrwt>
<pdfrwt beam="2">  1        2 0.66034443E+00 0.28559062E+03</pdfrwt>
<totfact> 0.11965165E+03</totfact>
</mgrwt>
</event>
<event>
 5    0  0.3040647E+000  0.2207060E+03  0.7546771E-02  0.1133358E+00
         21   -1    0    0  503  502  0.00000000000E+00  0.00000000000E+00  0.80657780950E+02  0.80657780950E+02  0.00000000000E+00 0. -1.
          2   -1    0    0  502    0 -0.00000000000E+00 -0.00000000000E+00 -0.93066310250E+03  0.93066310250E+03  0.00000000000E+00 0. -1.
         25    1    1    2    0    0  0.56565771654E+02 -0.19626753543E+03 -0.22846938152E+03  0.33097415349E+03  0.12500000000E+03 0.  0.
         21    1    1    2  503  501 -0.11698080715E+03  0.12090992083E+03 -0.29253921155E+03  0.33746541821E+03  0.00000000000E+00 0. -1.
          2    1    1    2  501    0  0.60415035494E+02  0.75357614603E+02 -0.32899672848E+03  0.34288131175E+03  0.00000000000E+00 0. -1.
<mgrwt>
<rscale>  4 0.22070605E+03</rscale>
<asrwt>0</asrwt>
<pdfrwt beam="1">  1       21 0.12408890E-01 0.22070605E+03</pdfrwt>
<pdfrwt beam="2">  1        2 0.14317893E+00 0.22070605E+03</pdfrwt>
<totfact> 0.20241257E+04</totfact>
</mgrwt>
</event>
<event>
 5    0  0.3040647E+000  0.1902800E+03  0.7546771E-02  0.1158209E+00
          2   -1    0    0  502    0 -0.00000000000E+00  0.00000000000E+00  0.18012362907E+03  0.18012362907E+03  0.00000000000E+00 0.  1.
         21   -1    0    0  503  502  0.00000000000E+00 -0.00000000000E+00 -0.82729015188E+03  0.82729015188E+03  0.00000000000E+00 0.  1.
         25    1    1    2    0    0 -0.14188141810E+03  0.14293246060E+03 -0.62361860650E+03  0.66714705386E+03  0.12500000000E+03 0.  0.
         21    1    1    2  503  501  0.73265242037E+02 -0.19952067549E+02 -0.13885127213E+03  0.15825787962E+03  0.00000000000E+00 0. -1.
          2    1    1    2  501    0  0.68616176060E+02 -0.12298039305E+03  0.11530335583E+03  0.18200884747E+03  0.00000000000E+00 0.  1.
<mgrwt>
<rscale>  4 0.19028004E+03</rscale>
<asrwt>0</asrwt>
<pdfrwt beam="1">  1       21 0.12727541E+00 0.19028004E+03</pdfrwt>
<pdfrwt beam="2">  1        2 0.27711328E-01 0.19028004E+03</pdfrwt>
<totfact> 0.10755595E+03</totfact>
</mgrwt>
</event>
<event>
 5    0  0.3040647E+000  0.4254492E+03  0.7546771E-02  0.1035307E+00
         21   -1    0    0  503  502  0.00000000000E+00  0.00000000000E+00  0.17031012961E+03  0.17031012961E+03  0.00000000000E+00 0.  1.
          1   -1    0    0  502    0 -0.00000000000E+00 -0.00000000000E+00 -0.30739188599E+04  0.30739188599E+04  0.00000000000E+00 0. -1.
         25    1    1    2    0    0  0.15702161611E+03 -0.47021715601E+03 -0.39229673925E+03  0.64442353569E+03  0.12500000000E+03 0.  0.
         21    1    1    2  503  501  0.19694210604E+02  0.11602091102E+03 -0.94873239312E+02  0.15116099121E+03  0.00000000000E+00 0. -1.
          1    1    1    2  501    0 -0.17671582672E+03  0.35419624499E+03 -0.24164387518E+04  0.24486444627E+04  0.00000000000E+00 0. -1.
<mgrwt>
<rscale>  4 0.42544920E+03</rscale>
<asrwt>0</asrwt>
<pdfrwt beam="1">  1       21 0.26201558E-01 0.42544920E+03</pdfrwt>
<pdfrwt beam="2">  1        1 0.47291061E+00 0.42544920E+03</pdfrwt>
<totfact> 0.89090303E+01</totfact>
</mgrwt>
</event>
<event>
 5    0  0.3040647E+000  0.3516611E+03  0.7546771E-02  0.1061935E+00
          2   -1    0    0  502    0 -0.00000000000E+00  0.00000000000E+00  0.14278500422E+04  0.14278500422E+04  0.00000000000E+00 0. -1.
         21   -1    0    0  503  502  0.00000000000E+00 -0.00000000000E+00 -0.89777531631E+02  0.89777531631E+02  0.00000000000E+00 0. -1.
         25    1    1    2    0    0  0.27517672683E+03  0.18128434829E+03  0.61808423825E+03  0.71150500454E+03  0.12500000000E+03 0.  0.
         21    1    1    2  503  501  0.12425106987E+02 -0.22772585865E+02  0.11358570240E+03  0.11651045335E+03  0.00000000000E+00 0.  1.
          2    1    1    2  501    0 -0.28760183381E+03 -0.15851176242E+03  0.60640256993E+03  0.68961211594E+03  0.00000000000E+00 0. -1.
<mgrwt>
<rscale>  4 0.35166111E+03</rscale>
<asrwt>0</asrwt>
<pdfrwt beam="1">  1       21 0.13811929E-01 0.35166111E+03</pdfrwt>
<pdfrwt beam="2">  1        2 0.21966922E+00 0.35166111E+03</pdfrwt>
<totfact> 0.83403646E+03</totfact>
</mgrwt>
</event>
<event>
 5    0  0.3040647E+000  0.1892584E+03  0.7546771E-02  0.1159132E+00
          2   -1    0    0  502    0 -0.00000000000E+00  0.00000000000E+00  0.13683727543E+04  0.13683727543E+04  0.00000000000E+00 0.  1.
         21   -1    0    0  503  502  0.00000000000E+00 -0.00000000000E+00 -0.85910414662E+02  0.85910414662E+02  0.00000000000E+00 0.  1.
         25    1    1    2    0    0  0.18531859299E+02 -0.20399200217E+03  0.16875313597E+03  0.29335778097E+03  0.12500000000E+03 0.  0.
         21    1    1    2  503  501 -0.11137539490E+02  0.66503035824E+02  0.39952118530E+02  0.78376465439E+02  0.00000000000E+00 0.  1.
          2    1    1    2  501    0 -0.73943198085E+01  0.13748896634E+03  0.10737570851E+04  0.10825489225E+04  0.00000000000E+00 0.  1.
<mgrwt>
<rscale>  4 0.18925840E+03</rscale>
<asrwt>0</asrwt>
<pdfrwt beam="1">  1       21 0.13216988E-01 0.18925840E+03</pdfrwt>
<pdfrwt beam="2">  1        2 0.21051887E+00 0.18925840E+03</pdfrwt>
<totfact> 0.10191979E+04</totfact>
</mgrwt>
</event>
<event>
 5    0  0.3040647E+000  0.2984726E+03  0.7546771E-02  0.1086007E+00
         21   -1    0    0  503  502  0.00000000000E+00  0.00000000000E+00  0.27837099316E+03  0.27837099316E+03  0.00000000000E+00 0.  1.
          2   -1    0    0  502    0 -0.00000000000E+00 -0.00000000000E+00 -0.17987580449E+04  0.17987580449E+04  0.00000000000E+00 0.  1.
         25    1    1    2    0    0  0.15168980918E+03 -0.25903783881E+03  0.11817913032E+03  0.34597934474E+03  0.12500000000E+03 0.  0.
         21    1    1    2  503  501  0.13981618058E+01  0.36985209672E+02  0.25771418890E+02  0.45100184285E+02  0.00000000000E+00 0.  1.
          2    1    1    2  501    0 -0.15308797098E+03  0.22205262914E+03 -0.16643376010E+04  0.16860495091E+04  0.00000000000E+00 0.  1.
<mgrwt>
<rscale>  4 0.29847260E+03</rscale>
<asrwt>0</asrwt>
<pdfrwt beam="1">  1       21 0.42826306E-01 0.29847260E+03</pdfrwt>
<pdfrwt beam="2">  1        2 0.27673201E+00 0.29847260E+03</pdfrwt>
<totfact> 0.60284055E+02</totfact>
</mgrwt>
</event>
<event>
 5    0  0.3040647E+000  0.1727151E+03  0.7546771E-02  0.1175046E+00
          2   -1    0    0  502    0 -0.00000000000E+00  0.00000000000E+00  0.33358314021E+04  0.33358314021E+04  0.00000000000E+00 0. -1.
         21   -1    0    0  503  502  0.00000000000E+00 -0.00000000000E+00 -0.27514765215E+03  0.27514765215E+03  0.00000000000E+00 0.  1.
         25    1    1    2    0    0  0.99926232538E+02 -0.17699861406E+03  0.66791413440E+03  0.70925880485E+03  0.12500000000E+03 0.  0.
         21    1    1    2  503  501 -0.10735927422E+02  0.10460513625E+03 -0.24230726771E+03  0.26414069480E+03  0.00000000000E+00 0.  1.
          2    1    1    2  501    0 -0.89190305116E+02  0.72393477809E+02  0.26350768833E+04  0.26375795546E+04  0.00000000000E+00 0. -1.
<mgrwt>
<rscale>  4 0.17271512E+03</rscale>
<asrwt>0</asrwt>
<pdfrwt beam="1">  1       21 0.42330411E-01 0.17271512E+03</pdfrwt>
<pdfrwt beam="2">  1        2 0.51320480E+00 0.17271512E+03</pdfrwt>
<totfact> 0.94502018E+01</totfact>
</mgrwt>
</event>
<event>
 5    0  0.3040647E+000  0.3169333E+03  0.7546771E-02  0.1077069E+00
         21   -1    0    0  501  502  0.00000000000E+00  0.00000000000E+00  0.19395418346E+03  0.19395418346E+03  0.00000000000E+00 0. -1.
         -1   -1    0    0    0  501 -0.00000000000E+00 -0.00000000000E+00 -0.76127431263E+03  0.76127431263E+03  0.00000000000E+00 0. -1.
         25    1    1    2    0    0  0.31717637035E+03  0.48848453180E+02 -0.10766627529E+03  0.36083798043E+03  0.12500000000E+03 0.  0.
         21    1    1    2  503  502 -0.25418844856E+03 -0.44825155963E+02 -0.19820874364E+03  0.32543473699E+03  0.00000000000E+00 0. -1.
         -1    1    1    2    0  503 -0.62987921785E+02 -0.40232972175E+01 -0.26144511024E+03  0.26895577867E+03  0.00000000000E+00 0. -1.
<mgrwt>
<rscale>  4 0.31693332E+03</rscale>
<asrwt>0</asrwt>
<pdfrwt beam="1">  1       21 0.29839105E-01 0.31693332E+03</pdfrwt>
<pdfrwt beam="2">  1       -1 0.11711913E+00 0.31693332E+03</pdfrwt>
<totfact> 0.67985804E+02</totfact>
</mgrwt>
</event>
<event>
 5    0  0.3040647E+000  0.2086849E+03  0.7546771E-02  0.1142612E+00
          2   -1    0    0  502    0 -0.00000000000E+00  0.00000000000E+00  0.22128615446E+03  0.22128615446E+03  0.00000000000E+00 0. -1.
         21   -1    0    0  503  502  0.00000000000E+00 -0.00000000000E+00 -0.12337089975E+04  0.12337089975E+04  0.00000000000E+00 0. -1.
         25    1    1    2    0    0 -0.18794421469E+03 -0.10024093831E+03 -0.13886151321E+03  0.28333512560E+03  0.12500000000E+03 0.  0.
         21    1    1    2  503  501  0.66950071236E+02 -0.23372657561E+01 -0.97893535659E+03  0.98122485050E+03  0.00000000000E+00 0. -1.
          2    1    1    2  501    0  0.12099414346E+03  0.10257820407E+03  0.10537402674E+03  0.19043517588E+03  0.00000000000E+00 0. -1.
<mgrwt>
<rscale>  4 0.20868492E+03</rscale>
<asrwt>0</asrwt>
<pdfrwt beam="1">  1       21 0.18980138E+00 0.20868492E+03</pdfrwt>
<pdfrwt beam="2">  1        2 0.34044024E-01 0.20868492E+03</pdfrwt>
<totfact> 0.29075229E+02</totfact>
</mgrwt>
</event>
<event>
 5    0  0.3040647E+000  0.2192165E+03  0.7546771E-02  0.1134469E+00
          1   -1    0    0  502    0 -0.00000000000E+00  0.00000000000E+00  0.59407397246E+03  0.59407397246E+03  0.00000000000E+00 0. -1.
         21   -1    0    0  503  502  0.00000000000E+00 -0.00000000000E+00 -0.11064946088E+03  0.11064946088E+03  0.00000000000E+00 0. -1.
         25    1    1    2    0    0  0.22137802352E+03  0.35414218093E+02  0.19433514785E+03  0.32195270744E+03  0.12500000000E+03 0.  0.
         21    1    1    2  503  501 -0.15220029015E+03 -0.28110992436E+02  0.10786169813E+03  0.18865127124E+03  0.00000000000E+00 0. -1.
          1    1    1    2  501    0 -0.69177733368E+02 -0.73032256571E+01  0.18122766560E+03  0.19411945466E+03  0.00000000000E+00 0. -1.
<mgrwt>
<rscale>  4 0.21921648E+03</rscale>
<asrwt>0</asrwt>
<pdfrwt beam="1">  1       21 0.17022994E-01 0.21921648E+03</pdfrwt>
<pdfrwt beam="2">  1        1 0.91395994E-01 0.21921648E+03</pdfrwt>
<totfact> 0.12242958E+04</totfact>
</mgrwt>
</event>
<event>
 5    0  0.3040647E+000  0.3862622E+03  0.7546771E-02  0.1048643E+00
         21   -1    0    0  503  502  0.00000000000E+00  0.00000000000E+00  0.83489100654E+03  0.83489100654E+03  0.00000000000E+00 0.  1.
          2   -1    0    0  502    0 -0.00000000000E+00 -0.00000000000E+00 -0.22842368713E+04  0.22842368713E+04  0.00000000000E+00 0.  1.
         25    1    1    2    0    0 -0.16472579080E+03 -0.25049614855E+03 -0.12721430262E+03  0.34884292365E+03  0.12500000000E+03 0.  0.
         21    1    1    2  503  501 -0.45253637275E+02 -0.61059995933E+02  0.70477004846E+03  0.70885614620E+03  0.00000000000E+00 0.  1.
          2    1    1    2  501    0  0.20997942807E+03  0.31155614448E+03 -0.20269016106E+04  0.20614288080E+04  0.00000000000E+00 0.  1.
<mgrwt>
<rscale>  4 0.38626224E+03</rscale>
<asrwt>0</asrwt>
<pdfrwt beam="1">  1       21 0.12844477E+00 0.38626224E+03</pdfrwt>
<pdfrwt beam="2">  1        2 0.35142106E+00 0.38626224E+03</pdfrwt>
<totfact> 0.25908487E+01</totfact>
</mgrwt>
</event>
<event>
 5    0  0.3040647E+000  0.2589216E+03  0.7546771E-02  0.1107793E+00
          2   -1    0    0  502    0 -0.00000000000E+00  0.00000000000E+00  0.36277708970E+04  0.36277708970E+04  0.00000000000E+00 0. -1.
         21   -1    0    0  503  502  0.00000000000E+00 -0.00000000000E+00 -0.66420906840E+03  0.66420906840E+03  0.00000000000E+00 0.  1.
         25    1    1    2    0    0  0.79172928320E+02 -0.25096054385E+03  0.21947660879E+04  0.22140173278E+04  0.12500000000E+03 0.  0.
         21    1    1    2  503  501 -0.73040615091E+02  0.47958580152E+02 -0.64437512058E+03  0.65027244512E+03  0.00000000000E+00 0.  1.
          2    1    1    2  501    0 -0.61323132296E+01  0.20300196370E+03  0.14131708613E+04  0.14276901925E+04  0.00000000000E+00 0. -1.
<mgrwt>
<rscale>  4 0.25892159E+03</rscale>
<asrwt>0</asrwt>
<pdfrwt beam="1">  1       21 0.10218601E+00 0.25892159E+03</pdfrwt>
<pdfrwt beam="2">  1        2 0.55811859E+00 0.25892159E+03</pdfrwt>
<totfact> 0.79486794E+00</totfact>
</mgrwt>
</event>
<event>
 5    0  0.3040647E+000  0.3654424E+03  0.7546771E-02  0.1056449E+00
         21   -1    0    0  503  502  0.00000000000E+00  0.00000000000E+00  0.37833703370E+03  0.37833703370E+03  0.00000000000E+00 0. -1.
          2   -1    0    0  502    0 -0.00000000000E+00 -0.00000000000E+00 -0.12867355463E+04  0.12867355463E+04  0.00000000000E+00 0.  1.
         25    1    1    2    0    0 -0.28732456128E+03  0.19430918428E+03  0.24529879881E+03  0.44284078777E+03  0.12500000000E+03 0.  0.
         21    1    1    2  503  501  0.58516912344E+02  0.98491013844E+01 -0.52817242657E+02  0.79441141421E+02  0.00000000000E+00 0. -1.
          2    1    1    2  501    0  0.22880764893E+03 -0.20415828567E+03 -0.11008800688E+04  0.11427906509E+04  0.00000000000E+00 0.  1.
<mgrwt>
<rscale>  4 0.36544245E+03</rscale>
<asrwt>0</asrwt>
<pdfrwt beam="1">  1       21 0.58205698E-01 0.36544245E+03</pdfrwt>
<pdfrwt beam="2">  1        2 0.19795931E+00 0.36544245E+03</pdfrwt>
<totfact> 0.57967081E+02</totfact>
</mgrwt>
</event>
<event>
 5    0  0.3040647E+000  0.2635443E+03  0.7546771E-02  0.1105032E+00
          2   -1    0    0  502    0 -0.00000000000E+00  0.00000000000E+00  0.16208800735E+04  0.16208800735E+04  0.00000000000E+00 0. -1.
         21   -1    0    0  503  502  0.00000000000E+00 -0.00000000000E+00 -0.11218329625E+03  0.11218329625E+03  0.00000000000E+00 0. -1.
         25    1    1    2    0    0 -0.25114546053E+03 -0.13663844914E+02  0.57265825999E+03  0.63782695595E+03  0.12500000000E+03 0.  0.
         21    1    1    2  503  501  0.32947144168E+02  0.81716854550E+02 -0.37111199277E+02  0.95605437807E+02  0.00000000000E+00 0. -1.
          2    1    1    2  501    0  0.21819831636E+03 -0.68053009636E+02  0.97314971657E+03  0.99963097603E+03  0.00000000000E+00 0. -1.
<mgrwt>
<rscale>  4 0.26354426E+03</rscale>
<asrwt>0</asrwt>
<pdfrwt beam="1">  1       21 0.17258970E-01 0.26354426E+03</pdfrwt>
<pdfrwt beam="2">  1        2 0.24936615E+00 0.26354426E+03</pdfrwt>
<totfact> 0.44645796E+03</totfact>
</mgrwt>
</event>
<event>
 5    0  0.3040647E+000  0.2401734E+03  0.7546771E-02  0.1119677E+00
         -4   -1    0    0    0  501 -0.00000000000E+00  0.00000000000E+00  0.21523204962E+04  0.21523204962E+04  0.00000000000E+00 0.  1.
         21   -1    0    0  501  502  0.00000000000E+00 -0.00000000000E+00 -0.23449480798E+03  0.23449480798E+03  0.00000000000E+00 0.  1.
         25    1    1    2    0    0  0.10592454503E+02 -0.22179391726E+03 -0.90901262377E+02  0.27054164435E+03  0.12500000000E+03 0.  0.
         21    1    1    2  503  502 -0.11647420961E+02  0.17696294521E+03  0.93428975516E+02  0.20045079162E+03  0.00000000000E+00 0.  1.
         -4    1    1    2    0  503  0.10549664587E+01  0.44830972046E+02  0.19152979751E+04  0.19158228682E+04  0.00000000000E+00 0.  1.
<mgrwt>
<rscale>  4 0.24017341E+03</rscale>
<asrwt>0</asrwt>
<pdfrwt beam="1">  1       21 0.36076126E-01 0.24017341E+03</pdfrwt>
<pdfrwt beam="2">  1       -4 0.33112622E+00 0.24017341E+03</pdfrwt>
<totfact> 0.73116505E+00</totfact>
</mgrwt>
</event>
<event>
 5    0  0.3040647E+000  0.2663256E+03  0.7546771E-02  0.1103401E+00
         -3   -1    0    0    0  501 -0.00000000000E+00  0.00000000000E+00  0.55052669389E+03  0.55052669389E+03  0.00000000000E+00 0.  1.
         21   -1    0    0  501  502  0.00000000000E+00 -0.00000000000E+00 -0.86394749158E+03  0.86394749158E+03  0.00000000000E+00 0. -1.
         25    1    1    2    0    0 -0.11312042264E+03  0.18395613518E+03  0.95828212792E+02  0.26729035908E+03  0.12500000000E+03 0.  0.
         21    1    1    2  503  502 -0.36372331668E+02  0.97414341041E+01 -0.73711919103E+03  0.73808030988E+03  0.00000000000E+00 0. -1.
         -3    1    1    2    0  503  0.14949275430E+03 -0.19369756929E+03  0.32787018055E+03  0.40910351652E+03  0.00000000000E+00 0.  1.
<mgrwt>
<rscale>  4 0.26632558E+03</rscale>
<asrwt>0</asrwt>
<pdfrwt beam="1">  1       21 0.13291500E+00 0.26632558E+03</pdfrwt>
<pdfrwt beam="2">  1       -3 0.84696415E-01 0.26632558E+03</pdfrwt>
<totfact> 0.25565466E+01</totfact>
</mgrwt>
</event>
<event>
 5    0  0.3653351E+000  0.3883233E+03  0.7546771E-02  0.1047900E+00
         21   -1    0    0  503  502  0.00000000000E+00  0.00000000000E+00  0.22920210845E+03  0.22920210845E+03  0.00000000000E+00 0. -1.
          2   -1    0    0  502    0 -0.00000000000E+00 -0.00000000000E+00 -0.74257697883E+03  0.74257697883E+03  0.00000000000E+00 0. -1.
         25    1    1    2    0    0 -0.34160551890E+03 -0.14652387837E+03 -0.12391180165E+03  0.41126963426E+03  0.12500000000E+03 0.  0.
         21    1    1    2  503  501  0.13662043063E+02 -0.15568816093E+02  0.62274663283E+01  0.21629165311E+02  0.00000000000E+00 0.  1.
          2    1    1    2  501    0  0.32794347584E+03  0.16209269447E+03 -0.39569053506E+03  0.53888028771E+03  0.00000000000E+00 0. -1.
<mgrwt>
<rscale>  4 0.38832329E+03</rscale>
<asrwt>0</asrwt>
<pdfrwt beam="1">  1       21 0.35261863E-01 0.38832329E+03</pdfrwt>
<pdfrwt beam="2">  1        2 0.11424261E+00 0.38832329E+03</pdfrwt>
<totfact> 0.36097108E+03</totfact>
</mgrwt>
</event>
<event>
 5    0  0.3040647E+000  0.2522815E+03  0.7546771E-02  0.1111871E+00
         21   -1    0    0  503  502  0.00000000000E+00  0.00000000000E+00  0.90592305932E+03  0.90592305932E+03  0.00000000000E+00 0.  1.
          1   -1    0    0  502    0 -0.00000000000E+00 -0.00000000000E+00 -0.90426872661E+03  0.90426872661E+03  0.00000000000E+00 0. -1.
         25    1    1    2    0    0 -0.17705628557E+03 -0.13156751648E+03  0.85758852188E+03  0.89428295998E+03  0.12500000000E+03 0.  0.
         21    1    1    2  503  501  0.66537894006E+02  0.23160904730E+02 -0.31690669477E+02  0.77252944142E+02  0.00000000000E+00 0.  1.
          1    1    1    2  501    0  0.11051839156E+03  0.10840661175E+03 -0.82424351969E+03  0.83865588181E+03  0.00000000000E+00 0. -1.
<mgrwt>
<rscale>  4 0.25228153E+03</rscale>
<asrwt>0</asrwt>
<pdfrwt beam="1">  1       21 0.13937278E+00 0.25228153E+03</pdfrwt>
<pdfrwt beam="2">  1        1 0.13911826E+00 0.25228153E+03</pdfrwt>
<totfact> 0.73150910E+01</totfact>
</mgrwt>
</event>
<event>
 5    0  0.3040647E+000  0.3449948E+03  0.7546771E-02  0.1064688E+00
         21   -1    0    0  503  502  0.00000000000E+00  0.00000000000E+00  0.11469845104E+03  0.11469845104E+03  0.00000000000E+00 0. -1.
          2   -1    0    0  502    0 -0.00000000000E+00 -0.00000000000E+00 -0.11110800766E+04  0.11110800766E+04  0.00000000000E+00 0. -1.
         25    1    1    2    0    0 -0.16957634622E+03 -0.25842749742E+03 -0.44261302189E+03  0.55414095298E+03  0.12500000000E+03 0.  0.
         21    1    1    2  503  501 -0.19975606298E+02 -0.13935518368E+02  0.18985677777E+01  0.24430065059E+02  0.00000000000E+00 0. -1.
          2    1    1    2  501    0  0.18955195252E+03  0.27236301579E+03 -0.55566717148E+03  0.64720750964E+03  0.00000000000E+00 0. -1.
<mgrwt>
<rscale>  4 0.34499484E+03</rscale>
<asrwt>0</asrwt>
<pdfrwt beam="1">  1       21 0.17645916E-01 0.34499484E+03</pdfrwt>
<pdfrwt beam="2">  1        2 0.17093539E+00 0.34499484E+03</pdfrwt>
<totfact> 0.80224250E+03</totfact>
</mgrwt>
</event>
<event>
 5    0  0.3040647E+000  0.2272223E+03  0.7546771E-02  0.1128610E+00
         -3   -1    0    0    0  501 -0.00000000000E+00  0.00000000000E+00  0.16822929910E+02  0.16822929910E+02  0.00000000000E+00 0. -1.
         21   -1    0    0  501  502  0.00000000000E+00 -0.00000000000E+00 -0.33379217542E+04  0.33379217542E+04  0.00000000000E+00 0. -1.
         25    1    1    2    0    0  0.11761754313E+03 -0.16694329051E+03 -0.13083434587E+04  0.13300720111E+04  0.12500000000E+03 0.  0.
         21    1    1    2  503  502 -0.24696512708E+02  0.18786713715E+02 -0.65017984591E+03  0.65091988016E+03  0.00000000000E+00 0. -1.
         -3    1    1    2    0  503 -0.92921030422E+02  0.14815657679E+03 -0.13625755197E+04  0.13737527929E+04  0.00000000000E+00 0. -1.
<mgrwt>
<rscale>  4 0.22722228E+03</rscale>
<asrwt>0</asrwt>
<pdfrwt beam="1">  1       21 0.51352614E+00 0.22722228E+03</pdfrwt>
<pdfrwt beam="2">  1       -3 0.25881445E-02 0.22722228E+03</pdfrwt>
<totfact> 0.46085446E+01</totfact>
</mgrwt>
</event>
<event>
 5    0  0.3040647E+000  0.1975712E+03  0.7546771E-02  0.1151805E+00
         21   -1    0    0  501  502  0.00000000000E+00  0.00000000000E+00  0.71446516640E+03  0.71446516640E+03  0.00000000000E+00 0. -1.
         -3   -1    0    0    0  501 -0.00000000000E+00 -0.00000000000E+00 -0.64348551384E+03  0.64348551384E+03  0.00000000000E+00 0. -1.
         25    1    1    2    0    0 -0.97521468130E+02  0.25110072744E+03 -0.81724624061E+01  0.29707541334E+03  0.12500000000E+03 0.  0.
         21    1    1    2  503  502  0.11420088706E+02 -0.14591189328E+03  0.55086005462E+03  0.56997148947E+03  0.00000000000E+00 0. -1.
         -3    1    1    2    0  503  0.86101379424E+02 -0.10518883416E+03 -0.47170793965E+03  0.49090377743E+03  0.00000000000E+00 0. -1.
<mgrwt>
<rscale>  4 0.19757121E+03</rscale>
<asrwt>0</asrwt>
<pdfrwt beam="1">  1       21 0.10991772E+00 0.19757121E+03</pdfrwt>
<pdfrwt beam="2">  1       -3 0.98997771E-01 0.19757121E+03</pdfrwt>
<totfact> 0.29868727E+01</totfact>
</mgrwt>
</event>
<event>
 5    0  0.3040647E+000  0.5617973E+03  0.7546771E-02  0.9987996E-01
         21   -1    0    0  503  502  0.00000000000E+00  0.00000000000E+00  0.31773334733E+03  0.31773334733E+03  0.00000000000E+00 0. -1.
          1   -1    0    0  502    0 -0.00000000000E+00 -0.00000000000E+00 -0.14794350772E+04  0.14794350772E+04  0.00000000000E+00 0. -1.
         25    1    1    2    0    0 -0.32109044272E+03 -0.45509901364E+03 -0.11332553552E+03  0.58196379752E+03  0.12500000000E+03 0.  0.
         21    1    1    2  503  501 -0.37304081858E+02  0.72783169654E+02 -0.81566932682E+02  0.11550821969E+03  0.00000000000E+00 0.  1.
          1    1    1    2  501    0  0.35839452457E+03  0.38231584399E+03 -0.96680926163E+03  0.10996964073E+04  0.00000000000E+00 0. -1.
<mgrwt>
<rscale>  4 0.56179731E+03</rscale>
<asrwt>0</asrwt>
<pdfrwt beam="1">  1       21 0.48882053E-01 0.56179731E+03</pdfrwt>
<pdfrwt beam="2">  1        1 0.22760540E+00 0.56179731E+03</pdfrwt>
<totfact> 0.28640906E+02</totfact>
</mgrwt>
</event>
<event>
 5    0  0.3040647E+000  0.2265106E+03  0.7546771E-02  0.1129120E+00
          1   -1    0    0  502    0 -0.00000000000E+00  0.00000000000E+00  0.95137224578E+03  0.95137224578E+03  0.00000000000E+00 0. -1.
         21   -1    0    0  503  502  0.00000000000E+00 -0.00000000000E+00 -0.76090772390E+02  0.76090772390E+02  0.00000000000E+00 0. -1.
         25    1    1    2    0    0 -0.14883704620E+03 -0.17913035517E+03  0.55367327355E+03  0.61353014947E+03  0.12500000000E+03 0.  0.
         21    1    1    2  503  501  0.92212136216E+02  0.14884157162E+03  0.14949344563E+03  0.23022854253E+03  0.00000000000E+00 0. -1.
          1    1    1    2  501    0  0.56624909980E+02  0.30288783548E+02  0.17211475421E+03  0.18370432618E+03  0.00000000000E+00 0. -1.
<mgrwt>
<rscale>  4 0.22651063E+03</rscale>
<asrwt>0</asrwt>
<pdfrwt beam="1">  1       21 0.11706273E-01 0.22651063E+03</pdfrwt>
<pdfrwt beam="2">  1        1 0.14636495E+00 0.22651063E+03</pdfrwt>
<totfact> 0.11885244E+04</totfact>
</mgrwt>
</event>
<event>
 5    0  0.3040647E+000  0.2546025E+03  0.7546771E-02  0.1110430E+00
          4   -1    0    0  502    0 -0.00000000000E+00  0.00000000000E+00  0.21611967001E+03  0.21611967001E+03  0.00000000000E+00 0. -1.
         21   -1    0    0  503  502  0.00000000000E+00 -0.00000000000E+00 -0.59487014501E+03  0.59487014501E+03  0.00000000000E+00 0.  1.
         25    1    1    2    0    0 -0.18460659828E+03 -0.13721307751E+03 -0.45951099352E+03  0.52885005241E+03  0.12500000000E+03 0.  0.
         21    1    1    2  503  501 -0.98302054632E+01  0.32321992275E+02 -0.20067005825E+02  0.39294132474E+02  0.00000000000E+00 0. -1.
          4    1    1    2  501    0  0.19443680374E+03  0.10489108523E+03  0.10082752434E+03  0.24284563013E+03  0.00000000000E+00 0. -1.
<mgrwt>
<rscale>  4 0.25460253E+03</rscale>
<asrwt>0</asrwt>
<pdfrwt beam="1">  1       21 0.91518484E-01 0.25460253E+03</pdfrwt>
<pdfrwt beam="2">  1        4 0.33249180E-01 0.25460253E+03</pdfrwt>
<totfact> 0.36772691E+02</totfact>
</mgrwt>
</event>
<event>
 5    0  0.3040647E+000  0.2242772E+03  0.7546771E-02  0.1130734E+00
         21   -1    0    0  503  502  0.00000000000E+00  0.00000000000E+00  0.20128208831E+04  0.20128208831E+04  0.00000000000E+00 0.  1.
          1   -1    0    0  502    0 -0.00000000000E+00 -0.00000000000E+00 -0.18313533921E+04  0.18313533921E+04  0.00000000000E+00 0. -1.
         25    1    1    2    0    0  0.21700304872E+03 -0.11489013550E+03 -0.86922882155E+02  0.28891288277E+03  0.12500000000E+03 0.  0.
         21    1    1    2  503  501 -0.43903258385E+02  0.54472231848E+02  0.19060687572E+04  0.19073523081E+04  0.00000000000E+00 0.  1.
          1    1    1    2  501    0 -0.17309979034E+03  0.60417903652E+02 -0.16376783840E+04  0.16479090842E+04  0.00000000000E+00 0. -1.
<mgrwt>
<rscale>  4 0.22427723E+03</rscale>
<asrwt>0</asrwt>
<pdfrwt beam="1">  1       21 0.30966475E+00 0.22427723E+03</pdfrwt>
<pdfrwt beam="2">  1        1 0.28174668E+00 0.22427723E+03</pdfrwt>
<totfact> 0.14091737E+00</totfact>
</mgrwt>
</event>
<event>
 5    0  0.3040647E+000  0.3146486E+03  0.7546771E-02  0.1078139E+00
         21   -1    0    0  503  502  0.00000000000E+00  0.00000000000E+00  0.13336603862E+03  0.13336603862E+03  0.00000000000E+00 0. -1.
          2   -1    0    0  502    0 -0.00000000000E+00 -0.00000000000E+00 -0.21300557508E+04  0.21300557508E+04  0.00000000000E+00 0.  1.
         25    1    1    2    0    0 -0.34617651500E+03 -0.44185900118E+02 -0.34836540013E+03  0.50869836378E+03  0.12500000000E+03 0.  0.
         21    1    1    2  503  501  0.86455085071E+02 -0.63657746611E+02 -0.29068131771E+02  0.11122835395E+03  0.00000000000E+00 0. -1.
          2    1    1    2  501    0  0.25972142993E+03  0.10784364673E+03 -0.16192561803E+04  0.16434950717E+04  0.00000000000E+00 0.  1.
<mgrwt>
<rscale>  4 0.31464863E+03</rscale>
<asrwt>0</asrwt>
<pdfrwt beam="1">  1       21 0.20517851E-01 0.31464863E+03</pdfrwt>
<pdfrwt beam="2">  1        2 0.32770090E+00 0.31464863E+03</pdfrwt>
<totfact> 0.17043041E+03</totfact>
</mgrwt>
</event>
<event>
 5    0  0.3040647E+000  0.2345763E+03  0.7546771E-02  0.1123460E+00
         21   -1    0    0  503  502  0.00000000000E+00  0.00000000000E+00  0.15845741699E+04  0.15845741699E+04  0.00000000000E+00 0.  1.
          2   -1    0    0  502    0 -0.00000000000E+00 -0.00000000000E+00 -0.61488052841E+03  0.61488052841E+03  0.00000000000E+00 0.  1.
         25    1    1    2    0    0 -0.64767651673E+01  0.21683570516E+03  0.13358214096E+04  0.13590818628E+04  0.12500000000E+03 0.  0.
         21    1    1    2  503  501 -0.26476228371E+02 -0.15626665817E+03  0.20834409281E+03  0.26177761580E+03  0.00000000000E+00 0.  1.
          2    1    1    2  501    0  0.32952993538E+02 -0.60569046994E+02 -0.57447186092E+03  0.57859521968E+03  0.00000000000E+00 0.  1.
<mgrwt>
<rscale>  4 0.23457629E+03</rscale>
<asrwt>0</asrwt>
<pdfrwt beam="1">  1       21 0.24378064E+00 0.23457629E+03</pdfrwt>
<pdfrwt beam="2">  1        2 0.94597005E-01 0.23457629E+03</pdfrwt>
<totfact> 0.42620109E+01</totfact>
</mgrwt>
</event>
<event>
 5    0  0.3040647E+000  0.2302940E+03  0.7546771E-02  0.1126433E+00
         21   -1    0    0  501  502  0.00000000000E+00  0.00000000000E+00  0.24523778234E+03  0.24523778234E+03  0.00000000000E+00 0. -1.
         -4   -1    0    0    0  501 -0.00000000000E+00 -0.00000000000E+00 -0.31458487581E+03  0.31458487581E+03  0.00000000000E+00 0. -1.
         25    1    1    2    0    0 -0.15786790653E+03 -0.16218403977E+03 -0.13083085655E+02  0.25888627967E+03  0.12500000000E+03 0.  0.
         21    1    1    2  503  502  0.18957683601E+02  0.46353898893E+02  0.65832075436E+02  0.82716019406E+02  0.00000000000E+00 0. -1.
         -4    1    1    2    0  503  0.13891022293E+03  0.11583014088E+03 -0.12209608325E+03  0.21822035908E+03  0.00000000000E+00 0. -1.
<mgrwt>
<rscale>  4 0.23029404E+03</rscale>
<asrwt>0</asrwt>
<pdfrwt beam="1">  1       21 0.37728890E-01 0.23029404E+03</pdfrwt>
<pdfrwt beam="2">  1       -4 0.48397673E-01 0.23029404E+03</pdfrwt>
<totfact> 0.11820627E+03</totfact>
</mgrwt>
</event>
<event>
 5    0  0.3040647E+000  0.2223508E+03  0.7546771E-02  0.1132142E+00
          2   -1    0    0  502    0 -0.00000000000E+00  0.00000000000E+00  0.94782031279E+03  0.94782031279E+03  0.00000000000E+00 0. -1.
         21   -1    0    0  503  502  0.00000000000E+00 -0.00000000000E+00 -0.62995685518E+03  0.62995685518E+03  0.00000000000E+00 0.  1.
         25    1    1    2    0    0 -0.18757126754E+03  0.84954221436E+02 -0.33103188362E+03  0.40939871534E+03  0.12500000000E+03 0.  0.
         21    1    1    2  503  501  0.18278949702E+02 -0.14571634502E+02 -0.24994225449E+03  0.25103303192E+03  0.00000000000E+00 0.  1.
          2    1    1    2  501    0  0.16929231783E+03 -0.70382586934E+02  0.89883759572E+03  0.91734542071E+03  0.00000000000E+00 0. -1.
<mgrwt>
<rscale>  4 0.22235078E+03</rscale>
<asrwt>0</asrwt>
<pdfrwt beam="1">  1       21 0.96916439E-01 0.22235078E+03</pdfrwt>
<pdfrwt beam="2">  1        2 0.14581851E+00 0.22235078E+03</pdfrwt>
<totfact> 0.31106248E+02</totfact>
</mgrwt>
</event>
<event>
 5    0  0.3040647E+000  0.2208754E+03  0.7546771E-02  0.1133232E+00
         21   -1    0    0  501  502  0.00000000000E+00  0.00000000000E+00  0.15944053467E+04  0.15944053467E+04  0.00000000000E+00 0.  1.
         -4   -1    0    0    0  501 -0.00000000000E+00 -0.00000000000E+00 -0.71170756865E+02  0.71170756865E+02  0.00000000000E+00 0. -1.
         25    1    1    2    0    0 -0.11323464281E+03 -0.19591729661E+03  0.85774766311E+03  0.89585809424E+03  0.12500000000E+03 0.  0.
         21    1    1    2  503  502  0.45445926132E+02  0.34841522905E+02  0.56547031559E+03  0.56836250908E+03  0.00000000000E+00 0.  1.
         -4    1    1    2    0  503  0.67788716677E+02  0.16107577370E+03  0.10001661118E+03  0.20135550028E+03  0.00000000000E+00 0. -1.
<mgrwt>
<rscale>  4 0.22087539E+03</rscale>
<asrwt>0</asrwt>
<pdfrwt beam="1">  1       21 0.24529310E+00 0.22087539E+03</pdfrwt>
<pdfrwt beam="2">  1       -4 0.10949348E-01 0.22087539E+03</pdfrwt>
<totfact> 0.19126881E+02</totfact>
</mgrwt>
</event>
<event>
 5    0  0.3040647E+000  0.3082479E+03  0.7546771E-02  0.1081189E+00
         21   -1    0    0  503  502  0.00000000000E+00  0.00000000000E+00  0.89793098088E+02  0.89793098088E+02  0.00000000000E+00 0.  1.
          2   -1    0    0  502    0 -0.00000000000E+00 -0.00000000000E+00 -0.14557760508E+04  0.14557760508E+04  0.00000000000E+00 0.  1.
         25    1    1    2    0    0  0.24751844777E+03  0.11418678744E+03 -0.39556664051E+03  0.49638893168E+03  0.12500000000E+03 0.  0.
         21    1    1    2  503  501 -0.19117271912E+02  0.60873818970E+02 -0.40070385092E+02  0.75344062027E+02  0.00000000000E+00 0.  1.
          2    1    1    2  501    0 -0.22840117585E+03 -0.17506060641E+03 -0.93034592709E+03  0.97383615516E+03  0.00000000000E+00 0.  1.
<mgrwt>
<rscale>  4 0.30824795E+03</rscale>
<asrwt>0</asrwt>
<pdfrwt beam="1">  1       21 0.13814323E-01 0.30824795E+03</pdfrwt>
<pdfrwt beam="2">  1        2 0.22396554E+00 0.30824795E+03</pdfrwt>
<totfact> 0.81340166E+03</totfact>
</mgrwt>
</event>
<event>
 5    0  0.3040647E+000  0.3125846E+03  0.7546771E-02  0.1079114E+00
         21   -1    0    0  503  502  0.00000000000E+00  0.00000000000E+00  0.35530618148E+03  0.35530618148E+03  0.00000000000E+00 0.  1.
          2   -1    0    0  502    0 -0.00000000000E+00 -0.00000000000E+00 -0.44015450808E+03  0.44015450808E+03  0.00000000000E+00 0.  1.
         25    1    1    2    0    0 -0.23317937618E+03 -0.21817835701E+03  0.13656299525E+03  0.36911904396E+03  0.12500000000E+03 0.  0.
         21    1    1    2  503  501  0.18578751406E+02  0.40621637160E+02  0.27785450585E+02  0.52605310317E+02  0.00000000000E+00 0.  1.
          2    1    1    2  501    0  0.21460062477E+03  0.17755671985E+03 -0.24919677243E+03  0.37373633528E+03  0.00000000000E+00 0.  1.
<mgrwt>
<rscale>  4 0.31258457E+03</rscale>
<asrwt>0</asrwt>
<pdfrwt beam="1">  1       21 0.54662490E-01 0.31258457E+03</pdfrwt>
<pdfrwt beam="2">  1        2 0.67716077E-01 0.31258457E+03</pdfrwt>
<totfact> 0.27272518E+03</totfact>
</mgrwt>
</event>
<event>
 5    0  0.3040647E+000  0.3971943E+03  0.7546771E-02  0.1044756E+00
          2   -1    0    0  502    0 -0.00000000000E+00  0.00000000000E+00  0.19913140451E+04  0.19913140451E+04  0.00000000000E+00 0. -1.
         21   -1    0    0  503  502  0.00000000000E+00 -0.00000000000E+00 -0.25073236633E+03  0.25073236633E+03  0.00000000000E+00 0. -1.
         25    1    1    2    0    0 -0.36595944022E+03  0.39969484383E+02 -0.59109708467E+02  0.39324652472E+03  0.12500000000E+03 0.  0.
         21    1    1    2  503  501 -0.71784396375E+01  0.19359995614E+02  0.17704123518E+02  0.27198812756E+02  0.00000000000E+00 0. -1.
          2    1    1    2  501    0  0.37313787985E+03 -0.59329479997E+02  0.17819872637E+04  0.18216010739E+04  0.00000000000E+00 0. -1.
<mgrwt>
<rscale>  4 0.39719428E+03</rscale>
<asrwt>0</asrwt>
<pdfrwt beam="1">  1       21 0.38574212E-01 0.39719428E+03</pdfrwt>
<pdfrwt beam="2">  1        2 0.30635600E+00 0.39719428E+03</pdfrwt>
<totfact> 0.56663572E+02</totfact>
</mgrwt>
</event>
<event>
 5    0  0.3040647E+000  0.3196734E+03  0.7546771E-02  0.1075800E+00
         21   -1    0    0  501  502  0.00000000000E+00  0.00000000000E+00  0.36135245443E+03  0.36135245443E+03  0.00000000000E+00 0. -1.
         -3   -1    0    0    0  501 -0.00000000000E+00 -0.00000000000E+00 -0.33702807852E+03  0.33702807852E+03  0.00000000000E+00 0. -1.
         25    1    1    2    0    0  0.81292915590E+02 -0.28677193670E+03  0.85017672722E+02  0.33421503030E+03  0.12500000000E+03 0.  0.
         21    1    1    2  503  502 -0.23157547383E+02 -0.23255020304E-01  0.46963313124E+02  0.52362441895E+02  0.00000000000E+00 0. -1.
         -3    1    1    2    0  503 -0.58135368207E+02  0.28679519172E+03 -0.10765660994E+03  0.31180306075E+03  0.00000000000E+00 0. -1.
<mgrwt>
<rscale>  4 0.31967345E+03</rscale>
<asrwt>0</asrwt>
<pdfrwt beam="1">  1       21 0.55592686E-01 0.31967345E+03</pdfrwt>
<pdfrwt beam="2">  1       -3 0.51850473E-01 0.31967345E+03</pdfrwt>
<totfact> 0.54763879E+02</totfact>
</mgrwt>
</event>
<event>
 5    0  0.3040647E+000  0.2433036E+03  0.7546771E-02  0.1117611E+00
          1   -1    0    0  502    0 -0.00000000000E+00  0.00000000000E+00  0.18144021171E+03  0.18144021171E+03  0.00000000000E+00 0. -1.
         21   -1    0    0  503  502  0.00000000000E+00 -0.00000000000E+00 -0.48356724670E+03  0.48356724670E+03  0.00000000000E+00 0.  1.
         25    1    1    2    0    0 -0.21952193128E+03 -0.86875146472E+02 -0.21119740224E+03  0.34053856184E+03  0.12500000000E+03 0.  0.
         21    1    1    2  503  501  0.34214760834E+02  0.11515570165E+02 -0.11726702505E+03  0.12269805776E+03  0.00000000000E+00 0.  1.
          1    1    1    2  501    0  0.18530717044E+03  0.75359576307E+02  0.26337392302E+02  0.20177083881E+03  0.00000000000E+00 0. -1.
<mgrwt>
<rscale>  4 0.24330357E+03</rscale>
<asrwt>0</asrwt>
<pdfrwt beam="1">  1       21 0.74394960E-01 0.24330357E+03</pdfrwt>
<pdfrwt beam="2">  1        1 0.27913879E-01 0.24330357E+03</pdfrwt>
<totfact> 0.28621740E+03</totfact>
</mgrwt>
</event>
<event>
 5    0  0.3040647E+000  0.3627627E+03  0.7546771E-02  0.1057495E+00
         21   -1    0    0  501  502  0.00000000000E+00  0.00000000000E+00  0.10433521672E+04  0.10433521672E+04  0.00000000000E+00 0.  1.
         -2   -1    0    0    0  501 -0.00000000000E+00 -0.00000000000E+00 -0.73897489812E+03  0.73897489812E+03  0.00000000000E+00 0. -1.
         25    1    1    2    0    0 -0.33290500530E+03  0.62358074119E+02  0.77790696907E+03  0.85760044571E+03  0.12500000000E+03 0.  0.
         21    1    1    2  503  502 -0.65013515853E+01 -0.32488215746E+02  0.18250616079E+03  0.18548921926E+03  0.00000000000E+00 0.  1.
         -2    1    1    2    0  503  0.33940635688E+03 -0.29869858373E+02 -0.65603586075E+03  0.73923740038E+03  0.00000000000E+00 0. -1.
<mgrwt>
<rscale>  4 0.36276269E+03</rscale>
<asrwt>0</asrwt>
<pdfrwt beam="1">  1       21 0.16051572E+00 0.36276269E+03</pdfrwt>
<pdfrwt beam="2">  1       -2 0.11368845E+00 0.36276269E+03</pdfrwt>
<totfact> 0.11596530E+01</totfact>
</mgrwt>
</event>
<event>
 5    0  0.3040647E+000  0.2595515E+03  0.7546771E-02  0.1107413E+00
          2   -1    0    0  502    0 -0.00000000000E+00  0.00000000000E+00  0.26452275370E+03  0.26452275370E+03  0.00000000000E+00 0. -1.
         21   -1    0    0  503  502  0.00000000000E+00 -0.00000000000E+00 -0.25643188359E+03  0.25643188359E+03  0.00000000000E+00 0. -1.
         25    1    1    2    0    0 -0.93600874534E+02  0.20731820411E+03  0.86316105639E+02  0.27352775282E+03  0.12500000000E+03 0.  0.
         21    1    1    2  503  501  0.45932807946E+01 -0.20439703055E+02 -0.27028702190E+02  0.34196935996E+02  0.00000000000E+00 0. -1.
          2    1    1    2  501    0  0.89007593739E+02 -0.18687850106E+03 -0.51196533333E+02  0.21322994848E+03  0.00000000000E+00 0. -1.
<mgrwt>
<rscale>  4 0.25955146E+03</rscale>
<asrwt>0</asrwt>
<pdfrwt beam="1">  1       21 0.39451059E-01 0.25955146E+03</pdfrwt>
<pdfrwt beam="2">  1        2 0.40695808E-01 0.25955146E+03</pdfrwt>
<totfact> 0.94817379E+03</totfact>
</mgrwt>
</event>
<event>
 5    0  0.3040647E+000  0.2619206E+03  0.7546771E-02  0.1105995E+00
          2   -1    0    0  502    0 -0.00000000000E+00  0.00000000000E+00  0.18367355981E+04  0.18367355981E+04  0.00000000000E+00 0.  1.
         21   -1    0    0  503  502  0.00000000000E+00 -0.00000000000E+00 -0.26197415189E+03  0.26197415189E+03  0.00000000000E+00 0. -1.
         25    1    1    2    0    0  0.18699287629E+03  0.18133343396E+03 -0.93457376643E+02  0.30365676561E+03  0.12500000000E+03 0.  0.
         21    1    1    2  503  501 -0.46449025676E+02 -0.40840987541E+00 -0.46129411799E+02  0.65464505022E+02  0.00000000000E+00 0.  1.
          2    1    1    2  501    0 -0.14054385061E+03 -0.18092502408E+03  0.17143482347E+04  0.17295884794E+04  0.00000000000E+00 0.  1.
<mgrwt>
<rscale>  4 0.26192059E+03</rscale>
<asrwt>0</asrwt>
<pdfrwt beam="1">  1       21 0.40303717E-01 0.26192059E+03</pdfrwt>
<pdfrwt beam="2">  1        2 0.28257470E+00 0.26192059E+03</pdfrwt>
<totfact> 0.66440591E+02</totfact>
</mgrwt>
</event>
<event>
 5    0  0.3040647E+000  0.2411330E+03  0.7546771E-02  0.1119040E+00
          1   -1    0    0  502    0 -0.00000000000E+00  0.00000000000E+00  0.11491040998E+04  0.11491040998E+04  0.00000000000E+00 0. -1.
         21   -1    0    0  503  502  0.00000000000E+00 -0.00000000000E+00 -0.68694312093E+02  0.68694312093E+02  0.00000000000E+00 0.  1.
         25    1    1    2    0    0  0.19381073119E+03 -0.10465243480E+03  0.52321447408E+03  0.58128574515E+03  0.12500000000E+03 0.  0.
         21    1    1    2  503  501 -0.19144580718E+02  0.11041377725E+02 -0.17767481146E+02  0.28356840078E+02  0.00000000000E+00 0.  1.
          1    1    1    2  501    0 -0.17466615047E+03  0.93611057071E+02  0.57496279475E+03  0.60815582664E+03  0.00000000000E+00 0. -1.
<mgrwt>
<rscale>  4 0.24113299E+03</rscale>
<asrwt>0</asrwt>
<pdfrwt beam="1">  1       21 0.10568356E-01 0.24113299E+03</pdfrwt>
<pdfrwt beam="2">  1        1 0.17678523E+00 0.24113299E+03</pdfrwt>
<totfact> 0.10181840E+04</totfact>
</mgrwt>
</event>
<event>
 5    0  0.3040647E+000  0.2719722E+03  0.7546771E-02  0.1100156E+00
          2   -1    0    0  502    0 -0.00000000000E+00  0.00000000000E+00  0.22628327643E+03  0.22628327643E+03  0.00000000000E+00 0. -1.
         21   -1    0    0  503  502  0.00000000000E+00 -0.00000000000E+00 -0.44229614363E+03  0.44229614363E+03  0.00000000000E+00 0. -1.
         25    1    1    2    0    0 -0.37660352884E+02 -0.22920584883E+03 -0.20598428449E+03  0.33467618495E+03  0.12500000000E+03 0.  0.
         21    1    1    2  503  501 -0.66635722574E+02 -0.14759759510E+02 -0.64511737105E+01  0.68554997382E+02  0.00000000000E+00 0. -1.
          2    1    1    2  501    0  0.10429607546E+03  0.24396560834E+03 -0.35774089958E+01  0.26534823772E+03  0.00000000000E+00 0. -1.
<mgrwt>
<rscale>  4 0.27197217E+03</rscale>
<asrwt>0</asrwt>
<pdfrwt beam="1">  1       21 0.68045560E-01 0.27197217E+03</pdfrwt>
<pdfrwt beam="2">  1        2 0.34812812E-01 0.27197217E+03</pdfrwt>
<totfact> 0.35353577E+03</totfact>
</mgrwt>
</event>
<event>
 5    0  0.3040647E+000  0.3126743E+03  0.7546771E-02  0.1079071E+00
          4   -1    0    0  502    0 -0.00000000000E+00  0.00000000000E+00  0.95466937202E+03  0.95466937202E+03  0.00000000000E+00 0.  1.
         21   -1    0    0  503  502  0.00000000000E+00 -0.00000000000E+00 -0.21715961164E+03  0.21715961164E+03  0.00000000000E+00 0.  1.
         25    1    1    2    0    0 -0.15560598594E+03 -0.25534353273E+03 -0.39550092132E+02  0.32650076931E+03  0.12500000000E+03 0.  0.
         21    1    1    2  503  501  0.20841821748E+02  0.42985958034E+01  0.42973174707E+01  0.21710052904E+02  0.00000000000E+00 0. -1.
          4    1    1    2  501    0  0.13476416419E+03  0.25104493693E+03  0.77276253505E+03  0.82361816145E+03  0.00000000000E+00 0.  1.
<mgrwt>
<rscale>  4 0.31267425E+03</rscale>
<asrwt>0</asrwt>
<pdfrwt beam="1">  1       21 0.33409172E-01 0.31267425E+03</pdfrwt>
<pdfrwt beam="2">  1        4 0.14687221E+00 0.31267425E+03</pdfrwt>
<totfact> 0.11878661E+02</totfact>
</mgrwt>
</event>
<event>
 5    0  0.3040647E+000  0.1987954E+03  0.7546771E-02  0.1150759E+00
          2   -1    0    0  502    0 -0.00000000000E+00  0.00000000000E+00  0.13020453497E+04  0.13020453497E+04  0.00000000000E+00 0. -1.
         21   -1    0    0  503  502  0.00000000000E+00 -0.00000000000E+00 -0.16486704195E+03  0.16486704195E+03  0.00000000000E+00 0. -1.
         25    1    1    2    0    0  0.56140804034E+02  0.19366759939E+03  0.59030696674E+02  0.24447607671E+03  0.12500000000E+03 0.  0.
         21    1    1    2  503  501 -0.53783528074E+02 -0.41338791908E+02 -0.49859700924E+02  0.84187608261E+02  0.00000000000E+00 0. -1.
          2    1    1    2  501    0 -0.23572759598E+01 -0.15232880748E+03  0.11280073120E+04  0.11382487067E+04  0.00000000000E+00 0. -1.
<mgrwt>
<rscale>  4 0.19879543E+03</rscale>
<asrwt>0</asrwt>
<pdfrwt beam="1">  1       21 0.25364161E-01 0.19879543E+03</pdfrwt>
<pdfrwt beam="2">  1        2 0.20031466E+00 0.19879543E+03</pdfrwt>
<totfact> 0.32933696E+03</totfact>
</mgrwt>
</event>
<event>
 5    0  0.3040647E+000  0.2252124E+03  0.7546771E-02  0.1130056E+00
         21   -1    0    0  501  502  0.00000000000E+00  0.00000000000E+00  0.35378618854E+03  0.35378618854E+03  0.00000000000E+00 0. -1.
         -1   -1    0    0    0  501 -0.00000000000E+00 -0.00000000000E+00 -0.35617796938E+03  0.35617796938E+03  0.00000000000E+00 0.  1.
         25    1    1    2    0    0  0.14072731458E+03 -0.17608534103E+03  0.45099785625E+02  0.26166622835E+03  0.12500000000E+03 0.  0.
         21    1    1    2  503  502 -0.23061267338E+02  0.40898430776E+02  0.16428519727E+03  0.17086289747E+03  0.00000000000E+00 0. -1.
         -1    1    1    2    0  503 -0.11766604724E+03  0.13518691025E+03 -0.21177676374E+03  0.27743503210E+03  0.00000000000E+00 0.  1.
<mgrwt>
<rscale>  4 0.22521235E+03</rscale>
<asrwt>0</asrwt>
<pdfrwt beam="1">  1       21 0.54428645E-01 0.22521235E+03</pdfrwt>
<pdfrwt beam="2">  1       -1 0.54796610E-01 0.22521235E+03</pdfrwt>
<totfact> 0.10088073E+03</totfact>
</mgrwt>
</event>
<event>
 5    0  0.3040647E+000  0.2986341E+03  0.7546771E-02  0.1085925E+00
          2   -1    0    0  502    0 -0.00000000000E+00  0.00000000000E+00  0.12010807026E+04  0.12010807026E+04  0.00000000000E+00 0. -1.
         21   -1    0    0  503  502  0.00000000000E+00 -0.00000000000E+00 -0.10056089186E+03  0.10056089186E+03  0.00000000000E+00 0. -1.
         25    1    1    2    0    0 -0.82282415359E+02  0.29316589520E+03  0.40928289057E+03  0.52521816658E+03  0.12500000000E+03 0.  0.
         21    1    1    2  503  501  0.12339436900E+01 -0.48502837800E+02  0.12071680317E+02  0.49997733523E+02  0.00000000000E+00 0. -1.
          2    1    1    2  501    0  0.81048471669E+02 -0.24466305740E+03  0.67916523985E+03  0.72642569437E+03  0.00000000000E+00 0. -1.
<mgrwt>
<rscale>  4 0.29863413E+03</rscale>
<asrwt>0</asrwt>
<pdfrwt beam="1">  1       21 0.15470907E-01 0.29863413E+03</pdfrwt>
<pdfrwt beam="2">  1        2 0.18478164E+00 0.29863413E+03</pdfrwt>
<totfact> 0.91717255E+03</totfact>
</mgrwt>
</event>
<event>
 5    0  0.3040647E+000  0.2781967E+03  0.7546771E-02  0.1096678E+00
          1   -1    0    0  502    0 -0.00000000000E+00  0.00000000000E+00  0.19815634810E+04  0.19815634810E+04  0.00000000000E+00 0. -1.
         21   -1    0    0  503  502  0.00000000000E+00 -0.00000000000E+00 -0.63182796814E+03  0.63182796814E+03  0.00000000000E+00 0. -1.
         25    1    1    2    0    0 -0.25262823180E+03  0.14515809096E+03  0.35910655946E+03  0.47903487965E+03  0.12500000000E+03 0.  0.
         21    1    1    2  503  501  0.54568244977E+02 -0.61178896950E+01 -0.56114604480E+03  0.56382621926E+03  0.00000000000E+00 0. -1.
          1    1    1    2  501    0  0.19805998683E+03 -0.13904020126E+03  0.15517749982E+04  0.15705303502E+04  0.00000000000E+00 0. -1.
<mgrwt>
<rscale>  4 0.27819671E+03</rscale>
<asrwt>0</asrwt>
<pdfrwt beam="1">  1       21 0.97204304E-01 0.27819671E+03</pdfrwt>
<pdfrwt beam="2">  1        1 0.30485592E+00 0.27819671E+03</pdfrwt>
<totfact> 0.32208680E+01</totfact>
</mgrwt>
</event>
<event>
 5    0  0.3040647E+000  0.2420644E+03  0.7546771E-02  0.1118425E+00
         21   -1    0    0  503  502  0.00000000000E+00  0.00000000000E+00  0.98547698871E+02  0.98547698871E+02  0.00000000000E+00 0. -1.
          2   -1    0    0  502    0 -0.00000000000E+00 -0.00000000000E+00 -0.14859960302E+04  0.14859960302E+04  0.00000000000E+00 0. -1.
         25    1    1    2    0    0 -0.18269896127E+03 -0.86936796995E+02 -0.79268143752E+02  0.25068975993E+03  0.12500000000E+03 0.  0.
         21    1    1    2  503  501  0.45562943623E+01 -0.20164608012E+02 -0.19173623608E+02  0.28195727989E+02  0.00000000000E+00 0. -1.
          2    1    1    2  501    0  0.17814266691E+03  0.10710140501E+03 -0.12890065639E+04  0.13056582411E+04  0.00000000000E+00 0. -1.
<mgrwt>
<rscale>  4 0.24206440E+03</rscale>
<asrwt>0</asrwt>
<pdfrwt beam="1">  1       21 0.15161185E-01 0.24206440E+03</pdfrwt>
<pdfrwt beam="2">  1        2 0.22861476E+00 0.24206440E+03</pdfrwt>
<totfact> 0.67389675E+03</totfact>
</mgrwt>
</event>
<event>
 5    0  0.3040647E+000  0.3317890E+03  0.7546771E-02  0.1070348E+00
          2   -1    0    0  502    0 -0.00000000000E+00  0.00000000000E+00  0.24679071654E+04  0.24679071654E+04  0.00000000000E+00 0. -1.
         21   -1    0    0  503  502  0.00000000000E+00 -0.00000000000E+00 -0.16943873235E+03  0.16943873235E+03  0.00000000000E+00 0.  1.
         25    1    1    2    0    0 -0.70519020438E+02 -0.21891333481E+03  0.28096471207E+02  0.26326866903E+03  0.12500000000E+03 0.  0.
         21    1    1    2  503  501 -0.16689291423E+02 -0.83243792750E+02  0.29523193846E+01  0.84951619581E+02  0.00000000000E+00 0. -1.
          2    1    1    2  501    0  0.87208311861E+02  0.30215712756E+03  0.22674196424E+04  0.22891256091E+04  0.00000000000E+00 0. -1.
<mgrwt>
<rscale>  4 0.33178903E+03</rscale>
<asrwt>0</asrwt>
<pdfrwt beam="1">  1       21 0.26067499E-01 0.33178903E+03</pdfrwt>
<pdfrwt beam="2">  1        2 0.37967800E+00 0.33178903E+03</pdfrwt>
<totfact> 0.70214431E+02</totfact>
</mgrwt>
</event>
<event>
 5    0  0.3040647E+000  0.4050923E+03  0.7546771E-02  0.1042031E+00
         21   -1    0    0  503  502  0.00000000000E+00  0.00000000000E+00  0.10584637669E+03  0.10584637669E+03  0.00000000000E+00 0. -1.
          2   -1    0    0  502    0 -0.00000000000E+00 -0.00000000000E+00 -0.17271396054E+04  0.17271396054E+04  0.00000000000E+00 0. -1.
         25    1    1    2    0    0  0.19099755531E+03 -0.32360308120E+03 -0.79423920262E+03  0.88749080630E+03  0.12500000000E+03 0.  0.
         21    1    1    2  503  501 -0.37993411595E+02 -0.42979317806E+02 -0.69542076841E+02  0.90148885379E+02  0.00000000000E+00 0.  1.
          2    1    1    2  501    0 -0.15300414371E+03  0.36658239901E+03 -0.75751194928E+03  0.85534629043E+03  0.00000000000E+00 0. -1.
<mgrwt>
<rscale>  4 0.40509231E+03</rscale>
<asrwt>0</asrwt>
<pdfrwt beam="1">  1       21 0.16284060E-01 0.40509231E+03</pdfrwt>
<pdfrwt beam="2">  1        2 0.26571376E+00 0.40509231E+03</pdfrwt>
<totfact> 0.41888880E+03</totfact>
</mgrwt>
</event>
<event>
 5    0  0.3040647E+000  0.2460592E+03  0.7546771E-02  0.1115821E+00
         -1   -1    0    0    0  501 -0.00000000000E+00  0.00000000000E+00  0.79065917497E+02  0.79065917497E+02  0.00000000000E+00 0.  1.
         21   -1    0    0  501  502  0.00000000000E+00 -0.00000000000E+00 -0.99691352965E+03  0.99691352965E+03  0.00000000000E+00 0.  1.
         25    1    1    2    0    0 -0.14997504339E+03 -0.14158780452E+03 -0.60458335243E+03  0.65091139955E+03  0.12500000000E+03 0.  0.
         21    1    1    2  503  502 -0.38983177645E+02  0.37342959767E+02 -0.13418571479E+03  0.14463744618E+03  0.00000000000E+00 0.  1.
         -1    1    1    2    0  503  0.18895822104E+03  0.10424484475E+03 -0.17907854494E+03  0.28043060142E+03  0.00000000000E+00 0.  1.
<mgrwt>
<rscale>  4 0.24605919E+03</rscale>
<asrwt>0</asrwt>
<pdfrwt beam="1">  1       21 0.15337132E+00 0.24605919E+03</pdfrwt>
<pdfrwt beam="2">  1       -1 0.12163987E-01 0.24605919E+03</pdfrwt>
<totfact> 0.11071276E+03</totfact>
</mgrwt>
</event>
<event>
 5    0  0.3040647E+000  0.2627519E+03  0.7546771E-02  0.1105501E+00
         21   -1    0    0  503  502  0.00000000000E+00  0.00000000000E+00  0.19951974661E+03  0.19951974661E+03  0.00000000000E+00 0.  1.
          2   -1    0    0  502    0 -0.00000000000E+00 -0.00000000000E+00 -0.64292818133E+03  0.64292818133E+03  0.00000000000E+00 0. -1.
         25    1    1    2    0    0 -0.41119405883E+02  0.20792224113E+03  0.73653112053E+02  0.25685062743E+03  0.12500000000E+03 0.  0.
         21    1    1    2  503  501 -0.58323695054E+01  0.21391141403E+02 -0.52272008684E+01  0.22779839628E+02  0.00000000000E+00 0.  1.
          2    1    1    2  501    0  0.46951775388E+02 -0.22931338253E+03 -0.51183434590E+03  0.56281746088E+03  0.00000000000E+00 0. -1.
<mgrwt>
<rscale>  4 0.26275192E+03</rscale>
<asrwt>0</asrwt>
<pdfrwt beam="1">  1       21 0.30695346E-01 0.26275192E+03</pdfrwt>
<pdfrwt beam="2">  1        2 0.98912028E-01 0.26275192E+03</pdfrwt>
<totfact> 0.58419221E+03</totfact>
</mgrwt>
</event>
<event>
 5    0  0.3040647E+000  0.3201877E+03  0.7546771E-02  0.1075563E+00
          2   -1    0    0  502    0 -0.00000000000E+00  0.00000000000E+00  0.22376903814E+04  0.22376903814E+04  0.00000000000E+00 0.  1.
         21   -1    0    0  503  502  0.00000000000E+00 -0.00000000000E+00 -0.42873027751E+02  0.42873027751E+02  0.00000000000E+00 0.  1.
         25    1    1    2    0    0  0.24103342513E+03  0.16969983261E+03  0.11582611204E+04  0.12017025290E+04  0.12500000000E+03 0.  0.
         21    1    1    2  503  501 -0.41742997181E+02 -0.39004154712E+02  0.14095342379E+03  0.15209099111E+03  0.00000000000E+00 0.  1.
          2    1    1    2  501    0 -0.19929042795E+03 -0.13069567789E+03  0.89560280940E+03  0.92676988896E+03  0.00000000000E+00 0.  1.
<mgrwt>
<rscale>  4 0.32018767E+03</rscale>
<asrwt>0</asrwt>
<pdfrwt beam="1">  1       21 0.65958521E-02 0.32018767E+03</pdfrwt>
<pdfrwt beam="2">  1        2 0.34425997E+00 0.32018767E+03</pdfrwt>
<totfact> 0.11609665E+04</totfact>
</mgrwt>
</event>
<event>
 5    0  0.3040647E+000  0.3485625E+03  0.7546771E-02  0.1063207E+00
         21   -1    0    0  503  502  0.00000000000E+00  0.00000000000E+00  0.15223412135E+03  0.15223412135E+03  0.00000000000E+00 0.  1.
          1   -1    0    0  502    0 -0.00000000000E+00 -0.00000000000E+00 -0.14090932558E+04  0.14090932558E+04  0.00000000000E+00 0.  1.
         25    1    1    2    0    0  0.29458583467E+03 -0.12304784934E+03 -0.10221013867E+04  0.10780713482E+04  0.12500000000E+03 0.  0.
         21    1    1    2  503  501  0.68071317849E+01 -0.47548773355E+02  0.21306986625E+02  0.52547222284E+02  0.00000000000E+00 0.  1.
          1    1    1    2  501    0 -0.30139296645E+03  0.17059662269E+03 -0.25606473437E+03  0.43070880661E+03  0.00000000000E+00 0.  1.
<mgrwt>
<rscale>  4 0.34856250E+03</rscale>
<asrwt>0</asrwt>
<pdfrwt beam="1">  1       21 0.23420634E-01 0.34856250E+03</pdfrwt>
<pdfrwt beam="2">  1        1 0.21678357E+00 0.34856250E+03</pdfrwt>
<totfact> 0.14991569E+03</totfact>
</mgrwt>
</event>
<event>
 5    0  0.3040647E+000  0.2825903E+03  0.7546771E-02  0.1094283E+00
          2   -1    0    0  502    0 -0.00000000000E+00  0.00000000000E+00  0.19250901956E+04  0.19250901956E+04  0.00000000000E+00 0. -1.
         21   -1    0    0  503  502  0.00000000000E+00 -0.00000000000E+00 -0.41970917011E+02  0.41970917011E+02  0.00000000000E+00 0.  1.
         25    1    1    2    0    0 -0.95334908136E+01  0.24202772011E+03  0.77357088753E+03  0.82018609034E+03  0.12500000000E+03 0.  0.
         21    1    1    2  503  501 -0.12482893033E+02  0.18130178004E+02  0.37420370507E+02  0.43414399706E+02  0.00000000000E+00 0.  1.
          2    1    1    2  501    0  0.22016383847E+02 -0.26015789811E+03  0.10721280206E+04  0.11034606226E+04  0.00000000000E+00 0. -1.
<mgrwt>
<rscale>  4 0.28259026E+03</rscale>
<asrwt>0</asrwt>
<pdfrwt beam="1">  1       21 0.64570656E-02 0.28259026E+03</pdfrwt>
<pdfrwt beam="2">  1        2 0.29616765E+00 0.28259026E+03</pdfrwt>
<totfact> 0.17828473E+04</totfact>
</mgrwt>
</event>
<event>
 5    0  0.3040647E+000  0.3144901E+03  0.7546771E-02  0.1078213E+00
         21   -1    0    0  503  502  0.00000000000E+00  0.00000000000E+00  0.43309972551E+03  0.43309972551E+03  0.00000000000E+00 0. -1.
          1   -1    0    0  502    0 -0.00000000000E+00 -0.00000000000E+00 -0.65731811636E+03  0.65731811636E+03  0.00000000000E+00 0. -1.
         25    1    1    2    0    0 -0.12055894246E+03 -0.17287378941E+03  0.12375652346E+03  0.27451863829E+03  0.12500000000E+03 0.  0.
         21    1    1    2  503  501 -0.30351960605E+02 -0.91770055003E+02  0.18115813000E+03  0.20533205442E+03  0.00000000000E+00 0. -1.
          1    1    1    2  501    0  0.15091090306E+03  0.26464384441E+03 -0.52913304431E+03  0.61056714916E+03  0.00000000000E+00 0. -1.
<mgrwt>
<rscale>  4 0.31449007E+03</rscale>
<asrwt>0</asrwt>
<pdfrwt beam="1">  1       21 0.66630727E-01 0.31449007E+03</pdfrwt>
<pdfrwt beam="2">  1        1 0.10112586E+00 0.31449007E+03</pdfrwt>
<totfact> 0.67028685E+02</totfact>
</mgrwt>
</event>
<event>
 5    0  0.3040647E+000  0.3152728E+03  0.7546771E-02  0.1077846E+00
         21   -1    0    0  503  502  0.00000000000E+00  0.00000000000E+00  0.22377683450E+03  0.22377683450E+03  0.00000000000E+00 0. -1.
          2   -1    0    0  502    0 -0.00000000000E+00 -0.00000000000E+00 -0.32118744485E+04  0.32118744485E+04  0.00000000000E+00 0. -1.
         25    1    1    2    0    0  0.35919124028E+03  0.11218920614E+03 -0.14924834646E+03  0.42368010809E+03  0.12500000000E+03 0.  0.
         21    1    1    2  503  501 -0.21682140507E+03 -0.10111158626E+03 -0.84200211729E+02  0.25362324466E+03  0.00000000000E+00 0. -1.
          2    1    1    2  501    0 -0.14236983520E+03 -0.11077619879E+02 -0.27546490558E+04  0.27583479302E+04  0.00000000000E+00 0. -1.
<mgrwt>
<rscale>  4 0.31527276E+03</rscale>
<asrwt>0</asrwt>
<pdfrwt beam="1">  1       21 0.34427207E-01 0.31527276E+03</pdfrwt>
<pdfrwt beam="2">  1        2 0.49413451E+00 0.31527276E+03</pdfrwt>
<totfact> 0.15111848E+02</totfact>
</mgrwt>
</event>
<event>
 5    0  0.3040647E+000  0.3781290E+03  0.7546771E-02  0.1051627E+00
          2   -1    0    0  502    0 -0.00000000000E+00  0.00000000000E+00  0.29940291296E+03  0.29940291296E+03  0.00000000000E+00 0.  1.
         21   -1    0    0  503  502  0.00000000000E+00 -0.00000000000E+00 -0.87150557800E+03  0.87150557800E+03  0.00000000000E+00 0. -1.
         25    1    1    2    0    0 -0.22422604169E+03  0.29987796971E+03 -0.62687146875E+03  0.74080831044E+03  0.12500000000E+03 0.  0.
         21    1    1    2  503  501  0.39721888285E+02  0.19063817233E+01 -0.47448766137E+02  0.61910000066E+02  0.00000000000E+00 0.  1.
          2    1    1    2  501    0  0.18450415341E+03 -0.30178435143E+03  0.10221756984E+03  0.36819018045E+03  0.00000000000E+00 0.  1.
<mgrwt>
<rscale>  4 0.37812903E+03</rscale>
<asrwt>0</asrwt>
<pdfrwt beam="1">  1       21 0.13407778E+00 0.37812903E+03</pdfrwt>
<pdfrwt beam="2">  1        2 0.46061987E-01 0.37812903E+03</pdfrwt>
<totfact> 0.49933692E+02</totfact>
</mgrwt>
</event>
<event>
 5    0  0.3040647E+000  0.2405915E+03  0.7546771E-02  0.1119399E+00
         21   -1    0    0  503  502  0.00000000000E+00  0.00000000000E+00  0.16047042228E+03  0.16047042228E+03  0.00000000000E+00 0. -1.
          3   -1    0    0  502    0 -0.00000000000E+00 -0.00000000000E+00 -0.57342024380E+03  0.57342024380E+03  0.00000000000E+00 0. -1.
         25    1    1    2    0    0 -0.21635757117E+03  0.47367792484E+02 -0.12814059794E+03  0.28477942203E+03  0.12500000000E+03 0.  0.
         21    1    1    2  503  501  0.17459748114E+02 -0.24239072607E+02  0.50435772844E+02  0.58618620143E+02  0.00000000000E+00 0. -1.
          3    1    1    2  501    0  0.19889782306E+03 -0.23128719877E+02 -0.33524499643E+03  0.39049262391E+03  0.00000000000E+00 0. -1.
<mgrwt>
<rscale>  4 0.24059148E+03</rscale>
<asrwt>0</asrwt>
<pdfrwt beam="1">  1       21 0.24687757E-01 0.24059148E+03</pdfrwt>
<pdfrwt beam="2">  1        3 0.88218499E-01 0.24059148E+03</pdfrwt>
<totfact> 0.91804715E+02</totfact>
</mgrwt>
</event>
<event>
 5    0  0.3040647E+000  0.2097729E+03  0.7546771E-02  0.1141746E+00
          1   -1    0    0  502    0 -0.00000000000E+00  0.00000000000E+00  0.60313599623E+03  0.60313599623E+03  0.00000000000E+00 0. -1.
         21   -1    0    0  503  502  0.00000000000E+00 -0.00000000000E+00 -0.35019285222E+03  0.35019285222E+03  0.00000000000E+00 0. -1.
         25    1    1    2    0    0 -0.22310997845E+03 -0.33981382274E+02  0.83650381267E+01  0.25812355702E+03  0.12500000000E+03 0.  0.
         21    1    1    2  503  501  0.61380993642E+02  0.23462437831E+02 -0.20607314289E+03  0.21629667725E+03  0.00000000000E+00 0. -1.
          1    1    1    2  501    0  0.16172898481E+03  0.10518944442E+02  0.45065124876E+03  0.47890861418E+03  0.00000000000E+00 0. -1.
<mgrwt>
<rscale>  4 0.20977287E+03</rscale>
<asrwt>0</asrwt>
<pdfrwt beam="1">  1       21 0.53875824E-01 0.20977287E+03</pdfrwt>
<pdfrwt beam="2">  1        1 0.92790153E-01 0.20977287E+03</pdfrwt>
<totfact> 0.12519990E+03</totfact>
</mgrwt>
</event>
<event>
 5    0  0.3040647E+000  0.2371562E+03  0.7546771E-02  0.1121702E+00
         21   -1    0    0  503  502  0.00000000000E+00  0.00000000000E+00  0.86857453256E+02  0.86857453256E+02  0.00000000000E+00 0.  1.
          2   -1    0    0  502    0 -0.00000000000E+00 -0.00000000000E+00 -0.24752402409E+04  0.24752402409E+04  0.00000000000E+00 0.  1.
         25    1    1    2    0    0 -0.22361856796E+03  0.64005092052E+02 -0.17959387867E+03  0.31934444883E+03  0.12500000000E+03 0.  0.
         21    1    1    2  503  501  0.25248147293E+02 -0.41047570270E+02 -0.34389235715E+02  0.59202968674E+02  0.00000000000E+00 0.  1.
          2    1    1    2  501    0  0.19837042066E+03 -0.22957521782E+02 -0.21743996733E+04  0.21835502767E+04  0.00000000000E+00 0.  1.
<mgrwt>
<rscale>  4 0.23715617E+03</rscale>
<asrwt>0</asrwt>
<pdfrwt beam="1">  1       21 0.13362683E-01 0.23715617E+03</pdfrwt>
<pdfrwt beam="2">  1        2 0.38080624E+00 0.23715617E+03</pdfrwt>
<totfact> 0.25488118E+03</totfact>
</mgrwt>
</event>
<event>
 5    0  0.3040647E+000  0.1856098E+03  0.7546771E-02  0.1162482E+00
         21   -1    0    0  501  502  0.00000000000E+00  0.00000000000E+00  0.12862276484E+04  0.12862276484E+04  0.00000000000E+00 0. -1.
         -1   -1    0    0    0  501 -0.00000000000E+00 -0.00000000000E+00 -0.45247235652E+03  0.45247235652E+03  0.00000000000E+00 0.  1.
         25    1    1    2    0    0  0.25141630248E+03 -0.34987282818E+02 -0.34914798572E+03  0.44940358592E+03  0.12500000000E+03 0.  0.
         21    1    1    2  503  502 -0.13456049423E+03  0.20065889650E+02  0.11616504456E+04  0.11695900667E+04  0.00000000000E+00 0. -1.
         -1    1    1    2    0  503 -0.11685580825E+03  0.14921393168E+02  0.21252831997E+02  0.11970635222E+03  0.00000000000E+00 0.  1.
<mgrwt>
<rscale>  4 0.18560982E+03</rscale>
<asrwt>0</asrwt>
<pdfrwt beam="1">  1       21 0.19788117E+00 0.18560982E+03</pdfrwt>
<pdfrwt beam="2">  1       -1 0.69611132E-01 0.18560982E+03</pdfrwt>
<totfact> 0.28187008E+01</totfact>
</mgrwt>
</event>
<event>
 5    0  0.3040647E+000  0.2845430E+03  0.7546771E-02  0.1093233E+00
          2   -1    0    0  502    0 -0.00000000000E+00  0.00000000000E+00  0.37096783611E+04  0.37096783611E+04  0.00000000000E+00 0. -1.
         21   -1    0    0  503  502  0.00000000000E+00 -0.00000000000E+00 -0.55607552128E+02  0.55607552128E+02  0.00000000000E+00 0. -1.
         25    1    1    2    0    0 -0.23476504978E+03  0.69966791943E+02  0.19225110444E+04  0.19420823094E+04  0.12500000000E+03 0.  0.
         21    1    1    2  503  501 -0.19043670008E+02  0.11415632377E+02 -0.32368410743E+02  0.39251650207E+02  0.00000000000E+00 0. -1.
          2    1    1    2  501    0  0.25380871978E+03 -0.81382424320E+02  0.17639281753E+04  0.17839519536E+04  0.00000000000E+00 0. -1.
<mgrwt>
<rscale>  4 0.28454298E+03</rscale>
<asrwt>0</asrwt>
<pdfrwt beam="1">  1       21 0.85550109E-02 0.28454298E+03</pdfrwt>
<pdfrwt beam="2">  1        2 0.57071955E+00 0.28454298E+03</pdfrwt>
<totfact> 0.97447656E+02</totfact>
</mgrwt>
</event>
<event>
 5    0  0.3040647E+000  0.3737984E+03  0.7546771E-02  0.1053250E+00
         21   -1    0    0  503  502  0.00000000000E+00  0.00000000000E+00  0.75347361408E+02  0.75347361408E+02  0.00000000000E+00 0. -1.
          2   -1    0    0  502    0 -0.00000000000E+00 -0.00000000000E+00 -0.30087860518E+04  0.30087860518E+04  0.00000000000E+00 0. -1.
         25    1    1    2    0    0  0.32665592248E+03  0.13154667256E+03 -0.51899088694E+03  0.63951947545E+03  0.12500000000E+03 0.  0.
         21    1    1    2  503  501  0.10399744216E+02 -0.24626040347E+02 -0.11044719550E+03  0.11363617178E+03  0.00000000000E+00 0. -1.
          2    1    1    2  501    0 -0.33705566670E+03 -0.10692063221E+03 -0.23040006080E+04  0.23309777660E+04  0.00000000000E+00 0. -1.
<mgrwt>
<rscale>  4 0.37379841E+03</rscale>
<asrwt>0</asrwt>
<pdfrwt beam="1">  1       21 0.11591903E-01 0.37379841E+03</pdfrwt>
<pdfrwt beam="2">  1        2 0.46289013E+00 0.37379841E+03</pdfrwt>
<totfact> 0.15408627E+03</totfact>
</mgrwt>
</event>
<event>
 5    0  0.3040647E+000  0.4508244E+03  0.7546771E-02  0.1027476E+00
         21   -1    0    0  501  502  0.00000000000E+00  0.00000000000E+00  0.34509523896E+03  0.34509523896E+03  0.00000000000E+00 0. -1.
         -2   -1    0    0    0  501 -0.00000000000E+00 -0.00000000000E+00 -0.79906605108E+03  0.79906605108E+03  0.00000000000E+00 0.  1.
         25    1    1    2    0    0 -0.36008093926E+03  0.27629297965E+03  0.60473470207E+01  0.47080533539E+03  0.12500000000E+03 0.  0.
         21    1    1    2  503  502  0.28018246142E+02 -0.92648044292E+01  0.16740327743E+02  0.33927824730E+02  0.00000000000E+00 0. -1.
         -2    1    1    2    0  503  0.33206269311E+03 -0.26702817523E+03 -0.47675848688E+03  0.63942812992E+03  0.00000000000E+00 0.  1.
<mgrwt>
<rscale>  4 0.45082440E+03</rscale>
<asrwt>0</asrwt>
<pdfrwt beam="1">  1       21 0.53091575E-01 0.45082440E+03</pdfrwt>
<pdfrwt beam="2">  1       -2 0.12293324E+00 0.45082440E+03</pdfrwt>
<totfact> 0.13246536E+02</totfact>
</mgrwt>
</event>
<event>
 5    0  0.3040647E+000  0.2527754E+03  0.7546771E-02  0.1111563E+00
         21   -1    0    0  503  502  0.00000000000E+00  0.00000000000E+00  0.45765895763E+02  0.45765895763E+02  0.00000000000E+00 0. -1.
          2   -1    0    0  502    0 -0.00000000000E+00 -0.00000000000E+00 -0.14095754992E+04  0.14095754992E+04  0.00000000000E+00 0. -1.
         25    1    1    2    0    0  0.16000168612E+03 -0.15076827674E+03 -0.78239161274E+03  0.82224889694E+03  0.12500000000E+03 0.  0.
         21    1    1    2  503  501 -0.19568176491E+02 -0.19149830087E+02 -0.39559286246E+02  0.48109943378E+02  0.00000000000E+00 0. -1.
          2    1    1    2  501    0 -0.14043350963E+03  0.16991810682E+03 -0.54185870445E+03  0.58498255465E+03  0.00000000000E+00 0. -1.
<mgrwt>
<rscale>  4 0.25277539E+03</rscale>
<asrwt>0</asrwt>
<pdfrwt beam="1">  1       21 0.70409080E-02 0.25277539E+03</pdfrwt>
<pdfrwt beam="2">  1        2 0.21685774E+00 0.25277539E+03</pdfrwt>
<totfact> 0.28977996E+04</totfact>
</mgrwt>
</event>
<event>
 5    0  0.3040647E+000  0.2779905E+03  0.7546771E-02  0.1096792E+00
          1   -1    0    0  502    0 -0.00000000000E+00  0.00000000000E+00  0.19385150086E+04  0.19385150086E+04  0.00000000000E+00 0. -1.
         21   -1    0    0  503  502  0.00000000000E+00 -0.00000000000E+00 -0.28539586038E+03  0.28539586038E+03  0.00000000000E+00 0.  1.
         25    1    1    2    0    0  0.22026625733E+03 -0.23864715563E+03  0.70361209906E+02  0.35502871555E+03  0.12500000000E+03 0.  0.
         21    1    1    2  503  501 -0.23767799197E+02  0.94066156270E+02 -0.11683624463E+03  0.15186855531E+03  0.00000000000E+00 0.  1.
          1    1    1    2  501    0 -0.19649845813E+03  0.14458099936E+03  0.16995941830E+04  0.17170135982E+04  0.00000000000E+00 0. -1.
<mgrwt>
<rscale>  4 0.27799046E+03</rscale>
<asrwt>0</asrwt>
<pdfrwt beam="1">  1       21 0.43907057E-01 0.27799046E+03</pdfrwt>
<pdfrwt beam="2">  1        1 0.29823307E+00 0.27799046E+03</pdfrwt>
<totfact> 0.19834226E+02</totfact>
</mgrwt>
</event>
<event>
 5    0  0.3040647E+000  0.2760976E+03  0.7546771E-02  0.1097840E+00
         21   -1    0    0  503  502  0.00000000000E+00  0.00000000000E+00  0.74523440187E+02  0.74523440187E+02  0.00000000000E+00 0. -1.
          2   -1    0    0  502    0 -0.00000000000E+00 -0.00000000000E+00 -0.16622861004E+04  0.16622861004E+04  0.00000000000E+00 0. -1.
         25    1    1    2    0    0  0.21537055804E+03  0.13644636519E+03 -0.12808906493E+04  0.13119862588E+04  0.12500000000E+03 0.  0.
         21    1    1    2  503  501 -0.33276247823E+02 -0.22923879263E+01  0.10621732228E+02  0.35005498241E+02  0.00000000000E+00 0.  1.
          2    1    1    2  501    0 -0.18209431022E+03 -0.13415397726E+03 -0.31749374317E+03  0.38981778356E+03  0.00000000000E+00 0. -1.
<mgrwt>
<rscale>  4 0.27609759E+03</rscale>
<asrwt>0</asrwt>
<pdfrwt beam="1">  1       21 0.11465144E-01 0.27609759E+03</pdfrwt>
<pdfrwt beam="2">  1        2 0.25573633E+00 0.27609759E+03</pdfrwt>
<totfact> 0.89211153E+03</totfact>
</mgrwt>
</event>
<event>
 5    0  0.3040647E+000  0.2532283E+03  0.7546771E-02  0.1111281E+00
         21   -1    0    0  503  502  0.00000000000E+00  0.00000000000E+00  0.62750271241E+03  0.62750271241E+03  0.00000000000E+00 0. -1.
          2   -1    0    0  502    0 -0.00000000000E+00 -0.00000000000E+00 -0.93387159385E+03  0.93387159385E+03  0.00000000000E+00 0.  1.
         25    1    1    2    0    0 -0.18992198475E+03 -0.89344614855E+02  0.18581564281E+03  0.30692877612E+03  0.12500000000E+03 0.  0.
         21    1    1    2  503  501 -0.29898126706E+00 -0.22886499941E+02  0.36680409880E+03  0.36751752090E+03  0.00000000000E+00 0. -1.
          2    1    1    2  501    0  0.19022096602E+03  0.11223111480E+03 -0.85898862305E+03  0.88692800924E+03  0.00000000000E+00 0.  1.
<mgrwt>
<rscale>  4 0.25322833E+03</rscale>
<asrwt>0</asrwt>
<pdfrwt beam="1">  1       21 0.96538879E-01 0.25322833E+03</pdfrwt>
<pdfrwt beam="2">  1        2 0.14367255E+00 0.25322833E+03</pdfrwt>
<totfact> 0.31428917E+02</totfact>
</mgrwt>
</event>
<event>
 5    0  0.3040647E+000  0.1813213E+03  0.7546771E-02  0.1166530E+00
          1   -1    0    0  502    0 -0.00000000000E+00  0.00000000000E+00  0.15278626324E+03  0.15278626324E+03  0.00000000000E+00 0. -1.
         21   -1    0    0  503  502  0.00000000000E+00 -0.00000000000E+00 -0.21852549740E+04  0.21852549740E+04  0.00000000000E+00 0. -1.
         25    1    1    2    0    0  0.16903243369E+03  0.11583892259E+03 -0.37868189609E+03  0.44834763081E+03  0.12500000000E+03 0.  0.
         21    1    1    2  503  501 -0.41849377402E+02 -0.10896197413E+03 -0.17348137859E+04  0.17387360219E+04  0.00000000000E+00 0. -1.
          1    1    1    2  501    0 -0.12718305629E+03 -0.68769484591E+01  0.81026971283E+02  0.15095758445E+03  0.00000000000E+00 0. -1.
<mgrwt>
<rscale>  4 0.18132128E+03</rscale>
<asrwt>0</asrwt>
<pdfrwt beam="1">  1       21 0.33619309E+00 0.18132128E+03</pdfrwt>
<pdfrwt beam="2">  1        1 0.23505578E-01 0.18132128E+03</pdfrwt>
<totfact> 0.47851303E+01</totfact>
</mgrwt>
</event>
<event>
 5    0  0.3040647E+000  0.2753928E+03  0.7546771E-02  0.1098232E+00
          1   -1    0    0  502    0 -0.00000000000E+00  0.00000000000E+00  0.95297799778E+03  0.95297799778E+03  0.00000000000E+00 0.  1.
         21   -1    0    0  503  502  0.00000000000E+00 -0.00000000000E+00 -0.17038783984E+03  0.17038783984E+03  0.00000000000E+00 0. -1.
         25    1    1    2    0    0  0.20010425343E+03  0.16245988983E+03  0.38703402535E+01  0.28648718571E+03  0.12500000000E+03 0.  0.
         21    1    1    2  503  501 -0.18359696971E+02 -0.89016539258E+02  0.12600891558E+03  0.15536817415E+03  0.00000000000E+00 0.  1.
          1    1    1    2  501    0 -0.18174455646E+03 -0.73443350572E+02  0.65271090212E+03  0.68151047775E+03  0.00000000000E+00 0.  1.
<mgrwt>
<rscale>  4 0.27539279E+03</rscale>
<asrwt>0</asrwt>
<pdfrwt beam="1">  1       21 0.26213514E-01 0.27539279E+03</pdfrwt>
<pdfrwt beam="2">  1        1 0.14661200E+00 0.27539279E+03</pdfrwt>
<totfact> 0.26112907E+03</totfact>
</mgrwt>
</event>
<event>
 5    0  0.3040647E+000  0.2293989E+03  0.7546771E-02  0.1127064E+00
          2   -1    0    0  502    0 -0.00000000000E+00  0.00000000000E+00  0.25278530098E+04  0.25278530098E+04  0.00000000000E+00 0.  1.
         21   -1    0    0  503  502  0.00000000000E+00 -0.00000000000E+00 -0.33701578498E+02  0.33701578498E+02  0.00000000000E+00 0.  1.
         25    1    1    2    0    0 -0.10234612915E+03  0.17514606459E+03  0.52476035978E+03  0.57632396210E+03  0.12500000000E+03 0.  0.
         21    1    1    2  503  501  0.94610377053E+02 -0.14572819074E+03  0.97403846343E+03  0.98941333995E+03  0.00000000000E+00 0.  1.
          2    1    1    2  501    0  0.77357521022E+01 -0.29417873851E+02  0.99535260805E+03  0.99581728621E+03  0.00000000000E+00 0.  1.
<mgrwt>
<rscale>  4 0.22939893E+03</rscale>
<asrwt>0</asrwt>
<pdfrwt beam="1">  1       21 0.51848602E-02 0.22939893E+03</pdfrwt>
<pdfrwt beam="2">  1        2 0.38890031E+00 0.22939893E+03</pdfrwt>
<totfact> 0.12610032E+04</totfact>
</mgrwt>
</event>
<event>
 5    0  0.3040647E+000  0.2704889E+03  0.7546771E-02  0.1101000E+00
          1   -1    0    0  502    0 -0.00000000000E+00  0.00000000000E+00  0.16174191279E+04  0.16174191279E+04  0.00000000000E+00 0.  1.
         21   -1    0    0  503  502  0.00000000000E+00 -0.00000000000E+00 -0.63989348006E+02  0.63989348006E+02  0.00000000000E+00 0. -1.
         25    1    1    2    0    0  0.19380062881E+03  0.69026963573E+02  0.10127953226E+04  0.10410104567E+04  0.12500000000E+03 0.  0.
         21    1    1    2  503  501 -0.21400748166E+03 -0.13522916007E+03  0.31349240925E+03  0.40294369159E+03  0.00000000000E+00 0. -1.
          1    1    1    2  501    0  0.20206852845E+02  0.66202196499E+02  0.22714204806E+03  0.23745432765E+03  0.00000000000E+00 0.  1.
<mgrwt>
<rscale>  4 0.27048895E+03</rscale>
<asrwt>0</asrwt>
<pdfrwt beam="1">  1       21 0.98445163E-02 0.27048895E+03</pdfrwt>
<pdfrwt beam="2">  1        1 0.24883368E+00 0.27048895E+03</pdfrwt>
<totfact> 0.55229071E+03</totfact>
</mgrwt>
</event>
<event>
 5    0  0.3040647E+000  0.2715207E+03  0.7546771E-02  0.1100412E+00
         21   -1    0    0  503  502  0.00000000000E+00  0.00000000000E+00  0.29225831073E+03  0.29225831073E+03  0.00000000000E+00 0. -1.
          2   -1    0    0  502    0 -0.00000000000E+00 -0.00000000000E+00 -0.13432078344E+04  0.13432078344E+04  0.00000000000E+00 0. -1.
         25    1    1    2    0    0  0.20827027817E+03 -0.66924520896E+02 -0.65195314956E+03  0.69894442518E+03  0.12500000000E+03 0.  0.
         21    1    1    2  503  501  0.36689373658E+02 -0.39586808110E+02  0.23891885119E+03  0.24493967210E+03  0.00000000000E+00 0. -1.
          2    1    1    2  501    0 -0.24495965183E+03  0.10651132901E+03 -0.63791522533E+03  0.69158204787E+03  0.00000000000E+00 0. -1.
<mgrwt>
<rscale>  4 0.27152068E+03</rscale>
<asrwt>0</asrwt>
<pdfrwt beam="1">  1       21 0.44962817E-01 0.27152068E+03</pdfrwt>
<pdfrwt beam="2">  1        2 0.20664736E+00 0.27152068E+03</pdfrwt>
<totfact> 0.96792398E+02</totfact>
</mgrwt>
</event>
<event>
 5    0  0.3040647E+000  0.3050922E+03  0.7546771E-02  0.1082722E+00
          1   -1    0    0  502    0 -0.00000000000E+00  0.00000000000E+00  0.26284138667E+04  0.26284138667E+04  0.00000000000E+00 0.  1.
         21   -1    0    0  503  502  0.00000000000E+00 -0.00000000000E+00 -0.54596071171E+02  0.54596071171E+02  0.00000000000E+00 0.  1.
         25    1    1    2    0    0 -0.12266415576E+03 -0.24981947026E+03  0.48245887114E+03  0.57083082009E+03  0.12500000000E+03 0.  0.
         21    1    1    2  503  501  0.79685938059E+02  0.13720429639E+03  0.82667051661E+03  0.84175947319E+03  0.00000000000E+00 0.  1.
          1    1    1    2  501    0  0.42978217700E+02  0.11261517387E+03  0.12646884078E+04  0.12704196446E+04  0.00000000000E+00 0.  1.
<mgrwt>
<rscale>  4 0.30509222E+03</rscale>
<asrwt>0</asrwt>
<pdfrwt beam="1">  1       21 0.83993976E-02 0.30509222E+03</pdfrwt>
<pdfrwt beam="2">  1        1 0.40437127E+00 0.30509222E+03</pdfrwt>
<totfact> 0.15655380E+03</totfact>
</mgrwt>
</event>
<event>
 5    0  0.3040647E+000  0.2846776E+03  0.7546771E-02  0.1093161E+00
         21   -1    0    0  501  502  0.00000000000E+00  0.00000000000E+00  0.11815467007E+03  0.11815467007E+03  0.00000000000E+00 0. -1.
         -3   -1    0    0    0  501 -0.00000000000E+00 -0.00000000000E+00 -0.63187944232E+03  0.63187944232E+03  0.00000000000E+00 0. -1.
         25    1    1    2    0    0 -0.26221853170E+02 -0.25441844459E+03 -0.24413364984E+03  0.37502342529E+03  0.12500000000E+03 0.  0.
         21    1    1    2  503  502  0.12018596284E+02  0.22111897929E+02 -0.12105170740E+02  0.27927009244E+02  0.00000000000E+00 0.  1.
         -3    1    1    2    0  503  0.14203256886E+02  0.23230654666E+03 -0.25748595166E+03  0.34708367785E+03  0.00000000000E+00 0. -1.
<mgrwt>
<rscale>  4 0.28467759E+03</rscale>
<asrwt>0</asrwt>
<pdfrwt beam="1">  1       21 0.18177641E-01 0.28467759E+03</pdfrwt>
<pdfrwt beam="2">  1       -3 0.97212222E-01 0.28467759E+03</pdfrwt>
<totfact> 0.13084745E+03</totfact>
</mgrwt>
</event>
<event>
 5    0  0.3040647E+000  0.1950385E+03  0.7546771E-02  0.1153994E+00
         21   -1    0    0  501  502  0.00000000000E+00  0.00000000000E+00  0.65621021848E+02  0.65621021848E+02  0.00000000000E+00 0. -1.
         -1   -1    0    0    0  501 -0.00000000000E+00 -0.00000000000E+00 -0.28259860092E+04  0.28259860092E+04  0.00000000000E+00 0.  1.
         25    1    1    2    0    0  0.78027736304E+02 -0.19927398836E+03 -0.87133479719E+03  0.90589611924E+03  0.12500000000E+03 0.  0.
         21    1    1    2  503  502 -0.70872965872E+02  0.12334504113E+03 -0.58860741973E+02  0.15395312081E+03  0.00000000000E+00 0. -1.
         -1    1    1    2    0  503 -0.71547704319E+01  0.75928947229E+02 -0.18301694482E+04  0.18317577910E+04  0.00000000000E+00 0.  1.
<mgrwt>
<rscale>  4 0.19503850E+03</rscale>
<asrwt>0</asrwt>
<pdfrwt beam="1">  1       21 0.10095542E-01 0.19503850E+03</pdfrwt>
<pdfrwt beam="2">  1       -1 0.43476707E+00 0.19503850E+03</pdfrwt>
<totfact> 0.39802623E+01</totfact>
</mgrwt>
</event>
<event>
 5    0  0.3040647E+000  0.3824037E+03  0.7546771E-02  0.1051048E+00
         21   -1    0    0  503  502  0.00000000000E+00  0.00000000000E+00  0.29049898917E+03  0.29049898917E+03  0.00000000000E+00 0. -1.
          1   -1    0    0  502    0 -0.00000000000E+00 -0.00000000000E+00 -0.49471613825E+03  0.49471613825E+03  0.00000000000E+00 0. -1.
         25    1    1    2    0    0 -0.21801973946E+03 -0.27382100849E+03 -0.14156163630E+03  0.39771251974E+03  0.12500000000E+03 0.  0.
         21    1    1    2  503  501  0.12364637477E+03  0.12952376770E+03  0.44482102098E+02  0.18450877974E+03  0.00000000000E+00 0. -1.
          1    1    1    2  501    0  0.94373364693E+02  0.14429724079E+03 -0.10713761487E+03  0.20299382794E+03  0.00000000000E+00 0. -1.
<mgrwt>
<rscale>  4 0.37969053E+03</rscale>
<asrwt>0</asrwt>
<pdfrwt beam="1">  1       21 0.44692153E-01 0.38240366E+03</pdfrwt>
<pdfrwt beam="2">  1        1 0.76110174E-01 0.38240366E+03</pdfrwt>
<totfact> 0.22989076E+03</totfact>
</mgrwt>
</event>
<event>
 5    0  0.3040647E+000  0.4296204E+03  0.7546771E-02  0.1033980E+00
          1   -1    0    0  502    0 -0.00000000000E+00  0.00000000000E+00  0.57536900214E+03  0.57536900214E+03  0.00000000000E+00 0.  1.
         21   -1    0    0  503  502  0.00000000000E+00 -0.00000000000E+00 -0.35242588301E+03  0.35242588301E+03  0.00000000000E+00 0.  1.
         25    1    1    2    0    0 -0.38234721594E+03 -0.47524356734E+02  0.51485482033E+02  0.40831815154E+03  0.12500000000E+03 0.  0.
         21    1    1    2  503  501 -0.42591759883E+02 -0.34216160561E+02  0.17564983818E+01  0.54661585597E+02  0.00000000000E+00 0. -1.
          1    1    1    2  501    0  0.42493897582E+03  0.81740517294E+02  0.16970113872E+03  0.46481514801E+03  0.00000000000E+00 0.  1.
<mgrwt>
<rscale>  4 0.42962038E+03</rscale>
<asrwt>0</asrwt>
<pdfrwt beam="1">  1       21 0.54219367E-01 0.42962038E+03</pdfrwt>
<pdfrwt beam="2">  1        1 0.88518308E-01 0.42962038E+03</pdfrwt>
<totfact> 0.12283283E+03</totfact>
</mgrwt>
</event>
<event>
 5    0  0.3040647E+000  0.2042597E+03  0.7546771E-02  0.1146194E+00
         21   -1    0    0  503  502  0.00000000000E+00  0.00000000000E+00  0.25676479278E+03  0.25676479278E+03  0.00000000000E+00 0. -1.
          2   -1    0    0  502    0 -0.00000000000E+00 -0.00000000000E+00 -0.49441755060E+03  0.49441755060E+03  0.00000000000E+00 0. -1.
         25    1    1    2    0    0  0.18328947668E+03 -0.10361440273E+03  0.98183997080E+02  0.26381067832E+03  0.12500000000E+03 0.  0.
         21    1    1    2  503  501 -0.53367498086E+02  0.14759186966E+02  0.47515771354E+02  0.72963497581E+02  0.00000000000E+00 0. -1.
          2    1    1    2  501    0 -0.12992197860E+03  0.88855215761E+02 -0.38335252625E+03  0.41440816747E+03  0.00000000000E+00 0. -1.
<mgrwt>
<rscale>  4 0.20425969E+03</rscale>
<asrwt>0</asrwt>
<pdfrwt beam="1">  1       21 0.39502276E-01 0.20425969E+03</pdfrwt>
<pdfrwt beam="2">  1        2 0.76064238E-01 0.20425969E+03</pdfrwt>
<totfact> 0.48572888E+03</totfact>
</mgrwt>
</event>
<event>
 5    0  0.3040647E+000  0.2148729E+03  0.7546771E-02  0.1137764E+00
         21   -1    0    0  503  502  0.00000000000E+00  0.00000000000E+00  0.11712520343E+04  0.11712520343E+04  0.00000000000E+00 0. -1.
          1   -1    0    0  502    0 -0.00000000000E+00 -0.00000000000E+00 -0.57996664154E+03  0.57996664154E+03  0.00000000000E+00 0. -1.
         25    1    1    2    0    0  0.15429452401E+03 -0.14317800246E+03  0.74809584787E+03  0.78713349448E+03  0.12500000000E+03 0.  0.
         21    1    1    2  503  501 -0.72301717958E+02 -0.10676707115E+02  0.38657197919E+03  0.39342016418E+03  0.00000000000E+00 0. -1.
          1    1    1    2  501    0 -0.81992806050E+02  0.15385470958E+03 -0.54338243431E+03  0.57066501716E+03  0.00000000000E+00 0. -1.
<mgrwt>
<rscale>  4 0.21487294E+03</rscale>
<asrwt>0</asrwt>
<pdfrwt beam="1">  1       21 0.18019262E+00 0.21487294E+03</pdfrwt>
<pdfrwt beam="2">  1        1 0.89225638E-01 0.21487294E+03</pdfrwt>
<totfact> 0.72664224E+01</totfact>
</mgrwt>
</event>
<event>
 5    0  0.3040647E+000  0.2549922E+03  0.7546771E-02  0.1110190E+00
          2   -1    0    0  502    0 -0.00000000000E+00  0.00000000000E+00  0.28247244739E+04  0.28247244739E+04  0.00000000000E+00 0. -1.
         21   -1    0    0  503  502  0.00000000000E+00 -0.00000000000E+00 -0.23784734551E+02  0.23784734551E+02  0.00000000000E+00 0. -1.
         25    1    1    2    0    0  0.19039964608E+03  0.83656473159E+02  0.10887672649E+04  0.11154772915E+04  0.12500000000E+03 0.  0.
         21    1    1    2  503  501  0.19625889848E+02  0.12032089428E+02  0.51663084112E+02  0.56559888510E+02  0.00000000000E+00 0. -1.
          2    1    1    2  501    0 -0.21002553593E+03 -0.95688562587E+02  0.16605093903E+04  0.16764720284E+04  0.00000000000E+00 0. -1.
<mgrwt>
<rscale>  4 0.25499219E+03</rscale>
<asrwt>0</asrwt>
<pdfrwt beam="1">  1       21 0.36591922E-02 0.25499219E+03</pdfrwt>
<pdfrwt beam="2">  1        2 0.43457273E+00 0.25499219E+03</pdfrwt>
<totfact> 0.15365945E+04</totfact>
</mgrwt>
</event>
<event>
 5    0  0.3040647E+000  0.2858760E+03  0.7546771E-02  0.1092522E+00
          2   -1    0    0  502    0 -0.00000000000E+00  0.00000000000E+00  0.11994506651E+04  0.11994506651E+04  0.00000000000E+00 0.  1.
         21   -1    0    0  503  502  0.00000000000E+00 -0.00000000000E+00 -0.12679326629E+03  0.12679326629E+03  0.00000000000E+00 0. -1.
         25    1    1    2    0    0  0.12089083556E+03 -0.23731239543E+03  0.32857694579E+03  0.44104373531E+03  0.12500000000E+03 0.  0.
         21    1    1    2  503  501 -0.20580989064E+02  0.39732470250E+01 -0.48544200988E+02  0.52876301425E+02  0.00000000000E+00 0. -1.
          2    1    1    2  501    0 -0.10030984650E+03  0.23333914840E+03  0.79262465401E+03  0.83232389466E+03  0.00000000000E+00 0.  1.
<mgrwt>
<rscale>  4 0.28587603E+03</rscale>
<asrwt>0</asrwt>
<pdfrwt beam="1">  1       21 0.19506657E-01 0.28587603E+03</pdfrwt>
<pdfrwt beam="2">  1        2 0.18453086E+00 0.28587603E+03</pdfrwt>
<totfact> 0.59899810E+03</totfact>
</mgrwt>
</event>
<event>
 5    0  0.3040647E+000  0.2583052E+03  0.7546771E-02  0.1108166E+00
         21   -1    0    0  503  502  0.00000000000E+00  0.00000000000E+00  0.10036199902E+03  0.10036199902E+03  0.00000000000E+00 0.  1.
          2   -1    0    0  502    0 -0.00000000000E+00 -0.00000000000E+00 -0.25100317702E+04  0.25100317702E+04  0.00000000000E+00 0.  1.
         25    1    1    2    0    0  0.63118277851E+02  0.22831828860E+03 -0.45428503949E+03  0.52736425268E+03  0.12500000000E+03 0.  0.
         21    1    1    2  503  501  0.31631467325E+02 -0.24618803895E+02  0.50572779852E+02  0.64530932833E+02  0.00000000000E+00 0. -1.
          2    1    1    2  501    0 -0.94749745177E+02 -0.20369948471E+03 -0.20059575116E+04  0.20184985837E+04  0.00000000000E+00 0.  1.
<mgrwt>
<rscale>  4 0.25830517E+03</rscale>
<asrwt>0</asrwt>
<pdfrwt beam="1">  1       21 0.15440308E-01 0.25830517E+03</pdfrwt>
<pdfrwt beam="2">  1        2 0.38615872E+00 0.25830517E+03</pdfrwt>
<totfact> 0.18536311E+03</totfact>
</mgrwt>
</event>
<event>
 5    0  0.3040647E+000  0.2263637E+03  0.7546771E-02  0.1129226E+00
          1   -1    0    0  502    0 -0.00000000000E+00  0.00000000000E+00  0.13788079602E+04  0.13788079602E+04  0.00000000000E+00 0.  1.
         21   -1    0    0  503  502  0.00000000000E+00 -0.00000000000E+00 -0.77338299310E+03  0.77338299310E+03  0.00000000000E+00 0. -1.
         25    1    1    2    0    0  0.27201229913E+03  0.13722990069E+03  0.28338662888E+03  0.43446026049E+03  0.12500000000E+03 0.  0.
         21    1    1    2  503  501 -0.92920489067E+02 -0.13260176835E+03 -0.68040443212E+03  0.69940520266E+03  0.00000000000E+00 0. -1.
          1    1    1    2  501    0 -0.17909181006E+03 -0.46281323421E+01  0.10024427704E+04  0.10183254902E+04  0.00000000000E+00 0.  1.
<mgrwt>
<rscale>  4 0.22636371E+03</rscale>
<asrwt>0</asrwt>
<pdfrwt beam="1">  1       21 0.11898200E+00 0.22636371E+03</pdfrwt>
<pdfrwt beam="2">  1        1 0.21212430E+00 0.22636371E+03</pdfrwt>
<totfact> 0.51057062E+01</totfact>
</mgrwt>
</event>
<event>
 5    0  0.3040647E+000  0.2535619E+03  0.7546771E-02  0.1111074E+00
          2   -1    0    0  502    0 -0.00000000000E+00  0.00000000000E+00  0.10333342435E+04  0.10333342435E+04  0.00000000000E+00 0.  1.
         21   -1    0    0  503  502  0.00000000000E+00 -0.00000000000E+00 -0.11316645870E+03  0.11316645870E+03  0.00000000000E+00 0.  1.
         25    1    1    2    0    0  0.21744484863E+03  0.12207857585E+03  0.31652571079E+03  0.42189923734E+03  0.12500000000E+03 0.  0.
         21    1    1    2  503  501 -0.18486893948E+03 -0.92473990712E+02  0.12010979899E+03  0.23906971275E+03  0.00000000000E+00 0.  1.
          2    1    1    2  501    0 -0.32575909154E+02 -0.29604585134E+02  0.48353227499E+03  0.48553175208E+03  0.00000000000E+00 0.  1.
<mgrwt>
<rscale>  4 0.25356191E+03</rscale>
<asrwt>0</asrwt>
<pdfrwt beam="1">  1       21 0.17410225E-01 0.25356191E+03</pdfrwt>
<pdfrwt beam="2">  1        2 0.15897449E+00 0.25356191E+03</pdfrwt>
<totfact> 0.93506211E+03</totfact>
</mgrwt>
</event>
<event>
 5    0  0.3040647E+000  0.4926338E+03  0.7546771E-02  0.1015720E+00
          2   -1    0    0  502    0 -0.00000000000E+00  0.00000000000E+00  0.18107544543E+04  0.18107544543E+04  0.00000000000E+00 0. -1.
         21   -1    0    0  503  502  0.00000000000E+00 -0.00000000000E+00 -0.14589975252E+03  0.14589975252E+03  0.00000000000E+00 0. -1.
         25    1    1    2    0    0 -0.18697736088E+03 -0.42063687460E+03  0.61827129511E+03  0.78088431161E+03  0.12500000000E+03 0.  0.
         21    1    1    2  503  501  0.17748458434E+02 -0.37171028843E+02  0.41651328121E+02  0.58579230929E+02  0.00000000000E+00 0.  1.
          2    1    1    2  501    0  0.16922890245E+03  0.45780790344E+03  0.10049320786E+04  0.11171906643E+04  0.00000000000E+00 0. -1.
<mgrwt>
<rscale>  4 0.49263379E+03</rscale>
<asrwt>0</asrwt>
<pdfrwt beam="1">  1       21 0.22446117E-01 0.49263379E+03</pdfrwt>
<pdfrwt beam="2">  1        2 0.27857759E+00 0.49263379E+03</pdfrwt>
<totfact> 0.20143176E+03</totfact>
</mgrwt>
</event>
<event>
 5    0  0.3040647E+000  0.2184678E+03  0.7546771E-02  0.1135031E+00
         21   -1    0    0  501  502  0.00000000000E+00  0.00000000000E+00  0.17511071822E+03  0.17511071822E+03  0.00000000000E+00 0.  1.
         -4   -1    0    0    0  501 -0.00000000000E+00 -0.00000000000E+00 -0.12989204225E+04  0.12989204225E+04  0.00000000000E+00 0.  1.
         25    1    1    2    0    0  0.23223700591E+03 -0.11826815556E+01 -0.12909296450E+03  0.29364165088E+03  0.12500000000E+03 0.  0.
         21    1    1    2  503  502 -0.57772047884E+02 -0.62621827344E+01  0.75919194440E+02  0.95606215978E+02  0.00000000000E+00 0. -1.
         -4    1    1    2    0  503 -0.17446495803E+03  0.74448642900E+01 -0.10706359342E+04  0.10847832739E+04  0.00000000000E+00 0.  1.
<mgrwt>
<rscale>  4 0.21846777E+03</rscale>
<asrwt>0</asrwt>
<pdfrwt beam="1">  1       21 0.26940112E-01 0.21846777E+03</pdfrwt>
<pdfrwt beam="2">  1       -4 0.19983390E+00 0.21846777E+03</pdfrwt>
<totfact> 0.79719040E+01</totfact>
</mgrwt>
</event>
<event>
 5    0  0.3040647E+000  0.3310078E+03  0.7546771E-02  0.1070692E+00
          2   -1    0    0  502    0 -0.00000000000E+00  0.00000000000E+00  0.45302024982E+03  0.45302024982E+03  0.00000000000E+00 0. -1.
         21   -1    0    0  503  502  0.00000000000E+00 -0.00000000000E+00 -0.43641612153E+03  0.43641612153E+03  0.00000000000E+00 0. -1.
         25    1    1    2    0    0  0.23397789947E+03  0.22823312502E+03 -0.21212777985E+03  0.40921780482E+03  0.12500000000E+03 0.  0.
         21    1    1    2  503  501  0.52054022233E+00 -0.37256854683E+02 -0.54403186792E+02  0.65939752169E+02  0.00000000000E+00 0. -1.
          2    1    1    2  501    0 -0.23449843969E+03 -0.19097627033E+03  0.28313509494E+03  0.41427881436E+03  0.00000000000E+00 0. -1.
<mgrwt>
<rscale>  4 0.33100776E+03</rscale>
<asrwt>0</asrwt>
<pdfrwt beam="1">  1       21 0.67140942E-01 0.33100776E+03</pdfrwt>
<pdfrwt beam="2">  1        2 0.69695423E-01 0.33100776E+03</pdfrwt>
<totfact> 0.16793102E+03</totfact>
</mgrwt>
</event>
<event>
 5    0  0.3040647E+000  0.2247853E+03  0.7546771E-02  0.1130365E+00
         21   -1    0    0  503  502  0.00000000000E+00  0.00000000000E+00  0.61219291636E+03  0.61219291636E+03  0.00000000000E+00 0.  1.
          2   -1    0    0  502    0 -0.00000000000E+00 -0.00000000000E+00 -0.47977834889E+03  0.47977834889E+03  0.00000000000E+00 0. -1.
         25    1    1    2    0    0  0.73372436435E+02  0.18960031169E+03 -0.36106502190E+03  0.43281028484E+03  0.12500000000E+03 0.  0.
         21    1    1    2  503  501 -0.19231533623E+02 -0.45833388322E+02  0.50280400573E+03  0.50525480656E+03  0.00000000000E+00 0.  1.
          2    1    1    2  501    0 -0.54140902812E+02 -0.14376692337E+03 -0.93244163521E+01  0.15390617386E+03  0.00000000000E+00 0. -1.
<mgrwt>
<rscale>  4 0.22478533E+03</rscale>
<asrwt>0</asrwt>
<pdfrwt beam="1">  1       21 0.94183526E-01 0.22478533E+03</pdfrwt>
<pdfrwt beam="2">  1        2 0.73812054E-01 0.22478533E+03</pdfrwt>
<totfact> 0.75776101E+02</totfact>
</mgrwt>
</event>
<event>
 5    0  0.3040647E+000  0.2459774E+03  0.7546771E-02  0.1115874E+00
          4   -1    0    0  502    0 -0.00000000000E+00  0.00000000000E+00  0.14434153901E+04  0.14434153901E+04  0.00000000000E+00 0. -1.
         21   -1    0    0  503  502  0.00000000000E+00 -0.00000000000E+00 -0.60128513794E+03  0.60128513794E+03  0.00000000000E+00 0. -1.
         25    1    1    2    0    0 -0.32546883329E+03  0.59778467515E+02  0.34413195102E+03  0.49351314707E+03  0.12500000000E+03 0.  0.
         21    1    1    2  503  501  0.20449517860E+03 -0.25645237208E+02 -0.50234428416E+03  0.54297857793E+03  0.00000000000E+00 0. -1.
          4    1    1    2  501    0  0.12097365469E+03 -0.34133230307E+02  0.10003425853E+04  0.10082088031E+04  0.00000000000E+00 0. -1.
<mgrwt>
<rscale>  4 0.24597738E+03</rscale>
<asrwt>0</asrwt>
<pdfrwt beam="1">  1       21 0.92505406E-01 0.24597738E+03</pdfrwt>
<pdfrwt beam="2">  1        4 0.22206391E+00 0.24597738E+03</pdfrwt>
<totfact> 0.42562819E+00</totfact>
</mgrwt>
</event>
<event>
 5    0  0.3040647E+000  0.2809185E+03  0.7546771E-02  0.1095188E+00
          2   -1    0    0  502    0 -0.00000000000E+00  0.00000000000E+00  0.10563269146E+04  0.10563269146E+04  0.00000000000E+00 0.  1.
         21   -1    0    0  503  502  0.00000000000E+00 -0.00000000000E+00 -0.80248714295E+02  0.80248714295E+02  0.00000000000E+00 0. -1.
         25    1    1    2    0    0  0.22042313403E+03 -0.10350969383E+03  0.48940982407E+03  0.56075626669E+03  0.12500000000E+03 0.  0.
         21    1    1    2  503  501 -0.50010984284E+01 -0.44814199318E+02  0.55301823691E+02  0.71355554441E+02  0.00000000000E+00 0. -1.
          2    1    1    2  501    0 -0.21542203560E+03  0.14832389315E+03  0.43136655258E+03  0.50446380781E+03  0.00000000000E+00 0.  1.
<mgrwt>
<rscale>  4 0.28091846E+03</rscale>
<asrwt>0</asrwt>
<pdfrwt beam="1">  1       21 0.12345957E-01 0.28091846E+03</pdfrwt>
<pdfrwt beam="2">  1        2 0.16251182E+00 0.28091846E+03</pdfrwt>
<totfact> 0.16894667E+04</totfact>
</mgrwt>
</event>
<event>
 5    0  0.3040647E+000  0.1881560E+03  0.7546771E-02  0.1160135E+00
         21   -1    0    0  503  502  0.00000000000E+00  0.00000000000E+00  0.31973141025E+02  0.31973141025E+02  0.00000000000E+00 0. -1.
          2   -1    0    0  502    0 -0.00000000000E+00 -0.00000000000E+00 -0.19269833579E+04  0.19269833579E+04  0.00000000000E+00 0. -1.
         25    1    1    2    0    0  0.59074675094E+02 -0.20222740546E+03 -0.80796173027E+03  0.84428247544E+03  0.12500000000E+03 0.  0.
         21    1    1    2  503  501 -0.21340930008E+02  0.83896508449E+02 -0.18663116440E+03  0.20573101601E+03  0.00000000000E+00 0. -1.
          2    1    1    2  501    0 -0.37733745086E+02  0.11833089701E+03 -0.90041732218E+03  0.90894300744E+03  0.00000000000E+00 0. -1.
<mgrwt>
<rscale>  4 0.18815600E+03</rscale>
<asrwt>0</asrwt>
<pdfrwt beam="1">  1       21 0.49189427E-02 0.18815600E+03</pdfrwt>
<pdfrwt beam="2">  1        2 0.29645910E+00 0.18815600E+03</pdfrwt>
<totfact> 0.29114457E+04</totfact>
</mgrwt>
</event>
<event>
 5    0  0.3040647E+000  0.4102462E+03  0.7546771E-02  0.1040288E+00
         21   -1    0    0  503  502  0.00000000000E+00  0.00000000000E+00  0.18502917486E+04  0.18502917486E+04  0.00000000000E+00 0.  1.
          2   -1    0    0  502    0 -0.00000000000E+00 -0.00000000000E+00 -0.16538330240E+03  0.16538330240E+03  0.00000000000E+00 0.  1.
         25    1    1    2    0    0 -0.35841836845E+03 -0.11409372708E+03  0.62407710120E+03  0.73930936261E+03  0.12500000000E+03 0.  0.
         21    1    1    2  503  501 -0.15977038243E+02 -0.23229024143E+02  0.79857715260E+03  0.79907466608E+03  0.00000000000E+00 0. -1.
          2    1    1    2  501    0  0.37439540669E+03  0.13732275123E+03  0.26225419241E+03  0.47729102233E+03  0.00000000000E+00 0.  1.
<mgrwt>
<rscale>  4 0.41024620E+03</rscale>
<asrwt>0</asrwt>
<pdfrwt beam="1">  1       21 0.28466025E+00 0.41024620E+03</pdfrwt>
<pdfrwt beam="2">  1        2 0.25443586E-01 0.41024620E+03</pdfrwt>
<totfact> 0.92327015E+01</totfact>
</mgrwt>
</event>
<event>
 5    0  0.3040647E+000  0.3116001E+03  0.7546771E-02  0.1079581E+00
         21   -1    0    0  503  502  0.00000000000E+00  0.00000000000E+00  0.27151702626E+03  0.27151702626E+03  0.00000000000E+00 0. -1.
          2   -1    0    0  502    0 -0.00000000000E+00 -0.00000000000E+00 -0.13427114853E+04  0.13427114853E+04  0.00000000000E+00 0.  1.
         25    1    1    2    0    0 -0.88124957197E+02 -0.38112972854E+03 -0.69073572656E+03  0.80359611871E+03  0.12500000000E+03 0.  0.
         21    1    1    2  503  501 -0.21369685531E+02  0.27341524723E+03  0.11090263437E+03  0.29582419642E+03  0.00000000000E+00 0. -1.
          2    1    1    2  501    0  0.10949464273E+03  0.10771448131E+03 -0.49136136689E+03  0.51480819647E+03  0.00000000000E+00 0.  1.
<mgrwt>
<rscale>  4 0.31160011E+03</rscale>
<asrwt>0</asrwt>
<pdfrwt beam="1">  1       21 0.41771850E-01 0.31160011E+03</pdfrwt>
<pdfrwt beam="2">  1        2 0.20657100E+00 0.31160011E+03</pdfrwt>
<totfact> 0.11085389E+03</totfact>
</mgrwt>
</event>
<event>
 5    0  0.3040647E+000  0.2270737E+03  0.7546771E-02  0.1128717E+00
          2   -1    0    0  502    0 -0.00000000000E+00  0.00000000000E+00  0.76686545700E+03  0.76686545700E+03  0.00000000000E+00 0. -1.
         21   -1    0    0  503  502  0.00000000000E+00 -0.00000000000E+00 -0.76655840408E+02  0.76655840408E+02  0.00000000000E+00 0. -1.
         25    1    1    2    0    0  0.20497152373E+03  0.67289071657E+02  0.37560545262E+03  0.45082768409E+03  0.12500000000E+03 0.  0.
         21    1    1    2  503  501 -0.42072586302E+02 -0.75640366582E+01  0.12887587844E+02  0.44647587719E+02  0.00000000000E+00 0. -1.
          2    1    1    2  501    0 -0.16289893743E+03 -0.59725034999E+02  0.30171657613E+03  0.34804602559E+03  0.00000000000E+00 0. -1.
<mgrwt>
<rscale>  4 0.22707372E+03</rscale>
<asrwt>0</asrwt>
<pdfrwt beam="1">  1       21 0.11793207E-01 0.22707372E+03</pdfrwt>
<pdfrwt beam="2">  1        2 0.11797930E+00 0.22707372E+03</pdfrwt>
<totfact> 0.28490502E+04</totfact>
</mgrwt>
</event>
<event>
 5    0  0.3040647E+000  0.2420936E+03  0.7546771E-02  0.1118406E+00
          2   -1    0    0  502    0 -0.00000000000E+00  0.00000000000E+00  0.77083212113E+03  0.77083212113E+03  0.00000000000E+00 0.  1.
         21   -1    0    0  503  502  0.00000000000E+00 -0.00000000000E+00 -0.28525242729E+03  0.28525242729E+03  0.00000000000E+00 0.  1.
         25    1    1    2    0    0 -0.25155913827E+03  0.10199379967E+03 -0.85294360065E+02  0.31078105328E+03  0.12500000000E+03 0.  0.
         21    1    1    2  503  501  0.64804264989E+02 -0.24570408318E+02 -0.54433560811E+02  0.88126671719E+02  0.00000000000E+00 0.  1.
          2    1    1    2  501    0  0.18675487328E+03 -0.77423391352E+02  0.62530761472E+03  0.65717682342E+03  0.00000000000E+00 0.  1.
<mgrwt>
<rscale>  4 0.24209357E+03</rscale>
<asrwt>0</asrwt>
<pdfrwt beam="1">  1       21 0.43884989E-01 0.24209357E+03</pdfrwt>
<pdfrwt beam="2">  1        2 0.11858956E+00 0.24209357E+03</pdfrwt>
<totfact> 0.22964617E+03</totfact>
</mgrwt>
</event>
<event>
 5    0  0.3040647E+000  0.3660484E+03  0.7546771E-02  0.1056214E+00
          1   -1    0    0  502    0 -0.00000000000E+00  0.00000000000E+00  0.28283492701E+04  0.28283492701E+04  0.00000000000E+00 0.  1.
         21   -1    0    0  503  502  0.00000000000E+00 -0.00000000000E+00 -0.14778656295E+03  0.14778656295E+03  0.00000000000E+00 0. -1.
         25    1    1    2    0    0  0.79185770067E+02 -0.30437425874E+03  0.20371904597E+03  0.39501965173E+03  0.12500000000E+03 0.  0.
         21    1    1    2  503  501  0.65074914405E+02 -0.12667835636E+02 -0.12548327974E+02  0.67473543552E+02  0.00000000000E+00 0. -1.
          1    1    1    2  501    0 -0.14426068447E+03  0.31704209438E+03  0.24893919892E+04  0.25136426378E+04  0.00000000000E+00 0.  1.
<mgrwt>
<rscale>  4 0.36604840E+03</rscale>
<asrwt>0</asrwt>
<pdfrwt beam="1">  1       21 0.22736396E-01 0.36604840E+03</pdfrwt>
<pdfrwt beam="2">  1        1 0.43513062E+00 0.36604840E+03</pdfrwt>
<totfact> 0.17911951E+02</totfact>
</mgrwt>
</event>
<event>
 5    0  0.3040647E+000  0.4459220E+03  0.7546771E-02  0.1028945E+00
          1   -1    0    0  502    0 -0.00000000000E+00  0.00000000000E+00  0.19114933914E+04  0.19114933914E+04  0.00000000000E+00 0.  1.
         21   -1    0    0  503  502  0.00000000000E+00 -0.00000000000E+00 -0.17896810405E+03  0.17896810405E+03  0.00000000000E+00 0.  1.
         25    1    1    2    0    0  0.28229972140E+03 -0.43600346824E+03  0.87929350728E+03  0.10288703655E+04  0.12500000000E+03 0.  0.
         21    1    1    2  503  501 -0.58457703884E+02  0.13090029440E+03  0.17808371333E+02  0.14446220373E+03  0.00000000000E+00 0.  1.
          1    1    1    2  501    0 -0.22384201751E+03  0.30510317383E+03  0.83542340872E+03  0.91712892622E+03  0.00000000000E+00 0.  1.
<mgrwt>
<rscale>  4 0.44592202E+03</rscale>
<asrwt>0</asrwt>
<pdfrwt beam="1">  1       21 0.27533556E-01 0.44592202E+03</pdfrwt>
<pdfrwt beam="2">  1        1 0.29407589E+00 0.44592202E+03</pdfrwt>
<totfact> 0.49227990E+02</totfact>
</mgrwt>
</event>
<event>
 5    0  0.3040647E+000  0.3716519E+03  0.7546771E-02  0.1054063E+00
         21   -1    0    0  503  502  0.00000000000E+00  0.00000000000E+00  0.10718653485E+04  0.10718653485E+04  0.00000000000E+00 0. -1.
          2   -1    0    0  502    0 -0.00000000000E+00 -0.00000000000E+00 -0.11323023411E+04  0.11323023411E+04  0.00000000000E+00 0. -1.
         25    1    1    2    0    0  0.25802551443E+03  0.22656893509E+03  0.30575431201E+03  0.47646757262E+03  0.12500000000E+03 0.  0.
         21    1    1    2  503  501 -0.18167853163E+03 -0.31100296696E+03  0.62964193493E+03  0.72538189978E+03  0.00000000000E+00 0. -1.
          2    1    1    2  501    0 -0.76346982802E+02  0.84434031868E+02 -0.99583323957E+03  0.10023182172E+04  0.00000000000E+00 0. -1.
<mgrwt>
<rscale>  4 0.37165186E+03</rscale>
<asrwt>0</asrwt>
<pdfrwt beam="1">  1       21 0.16490236E+00 0.37165186E+03</pdfrwt>
<pdfrwt beam="2">  1        2 0.17420036E+00 0.37165186E+03</pdfrwt>
<totfact> 0.56666216E+01</totfact>
</mgrwt>
</event>
<event>
 5    0  0.3040647E+000  0.2326472E+03  0.7546771E-02  0.1124790E+00
          2   -1    0    0  502    0 -0.00000000000E+00  0.00000000000E+00  0.64960352891E+03  0.64960352891E+03  0.00000000000E+00 0.  1.
         21   -1    0    0  503  502  0.00000000000E+00 -0.00000000000E+00 -0.86292461735E+03  0.86292461735E+03  0.00000000000E+00 0.  1.
         25    1    1    2    0    0  0.22913821510E+03 -0.43903535526E+02  0.49115946531E+03  0.55793768686E+03  0.12500000000E+03 0.  0.
         21    1    1    2  503  501 -0.19503644230E+03  0.12463870403E+02 -0.81321888257E+03  0.83637283125E+03  0.00000000000E+00 0.  1.
          2    1    1    2  501    0 -0.34101772801E+02  0.31439665123E+02  0.10873832881E+03  0.11821762815E+03  0.00000000000E+00 0.  1.
<mgrwt>
<rscale>  4 0.23264723E+03</rscale>
<asrwt>0</asrwt>
<pdfrwt beam="1">  1       21 0.13275763E+00 0.23264723E+03</pdfrwt>
<pdfrwt beam="2">  1        2 0.99939005E-01 0.23264723E+03</pdfrwt>
<totfact> 0.23017703E+02</totfact>
</mgrwt>
</event>
<event>
 5    0  0.3040647E+000  0.1872494E+03  0.7546771E-02  0.1160966E+00
          1   -1    0    0  502    0 -0.00000000000E+00  0.00000000000E+00  0.29683714450E+03  0.29683714450E+03  0.00000000000E+00 0.  1.
         21   -1    0    0  503  502  0.00000000000E+00 -0.00000000000E+00 -0.85450693332E+03  0.85450693332E+03  0.00000000000E+00 0.  1.
         25    1    1    2    0    0 -0.13377108234E+03 -0.19675035645E+03 -0.37820729541E+03  0.46397323580E+03  0.12500000000E+03 0.  0.
         21    1    1    2  503  501  0.17568472419E+02  0.12629505145E+03 -0.40470074406E+03  0.42431330817E+03  0.00000000000E+00 0.  1.
          1    1    1    2  501    0  0.11620260992E+03  0.70455305000E+02  0.22523825066E+03  0.26305753385E+03  0.00000000000E+00 0.  1.
<mgrwt>
<rscale>  4 0.18724936E+03</rscale>
<asrwt>0</asrwt>
<pdfrwt beam="1">  1       21 0.13146261E+00 0.18724936E+03</pdfrwt>
<pdfrwt beam="2">  1        1 0.45667253E-01 0.18724936E+03</pdfrwt>
<totfact> 0.40936627E+02</totfact>
</mgrwt>
</event>
<event>
 5    0  0.3040647E+000  0.2389054E+03  0.7546771E-02  0.1120524E+00
          2   -1    0    0  502    0 -0.00000000000E+00  0.00000000000E+00  0.12289839297E+04  0.12289839297E+04  0.00000000000E+00 0. -1.
         21   -1    0    0  503  502  0.00000000000E+00 -0.00000000000E+00 -0.56341041236E+03  0.56341041236E+03  0.00000000000E+00 0. -1.
         25    1    1    2    0    0  0.11007121956E+03 -0.19335172001E+03 -0.29983554645E+03  0.39373457547E+03  0.12500000000E+03 0.  0.
         21    1    1    2  503  501 -0.25588288925E+02  0.86124456604E+01 -0.20701455003E+03  0.20876771464E+03  0.00000000000E+00 0. -1.
          2    1    1    2  501    0 -0.84482930636E+02  0.18473927435E+03  0.11724236139E+04  0.11898920520E+04  0.00000000000E+00 0. -1.
<mgrwt>
<rscale>  4 0.23890542E+03</rscale>
<asrwt>0</asrwt>
<pdfrwt beam="1">  1       21 0.86678525E-01 0.23890542E+03</pdfrwt>
<pdfrwt beam="2">  1        2 0.18907445E+00 0.23890542E+03</pdfrwt>
<totfact> 0.27250508E+02</totfact>
</mgrwt>
</event>
<event>
 5    0  0.3040647E+000  0.2469779E+03  0.7546771E-02  0.1115230E+00
         21   -1    0    0  503  502  0.00000000000E+00  0.00000000000E+00  0.79122034119E+03  0.79122034119E+03  0.00000000000E+00 0.  1.
          2   -1    0    0  502    0 -0.00000000000E+00 -0.00000000000E+00 -0.94859101685E+02  0.94859101685E+02  0.00000000000E+00 0. -1.
         25    1    1    2    0    0  0.19810639866E+03 -0.27813384712E+02  0.35649788273E+03  0.42747569515E+03  0.12500000000E+03 0.  0.
         21    1    1    2  503  501  0.20809597853E+02  0.71788154686E+01  0.19284178385E+03  0.19409412241E+03  0.00000000000E+00 0.  1.
          2    1    1    2  501    0 -0.21891599651E+03  0.20634569244E+02  0.14702157293E+03  0.26450962531E+03  0.00000000000E+00 0. -1.
<mgrwt>
<rscale>  4 0.24697787E+03</rscale>
<asrwt>0</asrwt>
<pdfrwt beam="1">  1       21 0.12172620E+00 0.24697787E+03</pdfrwt>
<pdfrwt beam="2">  1        2 0.14593708E-01 0.24697787E+03</pdfrwt>
<totfact> 0.24476525E+03</totfact>
</mgrwt>
</event>
<event>
 5    0  0.3040647E+000  0.4960670E+03  0.7546771E-02  0.1014811E+00
         21   -1    0    0  503  502  0.00000000000E+00  0.00000000000E+00  0.45156744058E+03  0.45156744058E+03  0.00000000000E+00 0.  1.
          2   -1    0    0  502    0 -0.00000000000E+00 -0.00000000000E+00 -0.91968204586E+03  0.91968204586E+03  0.00000000000E+00 0. -1.
         25    1    1    2    0    0  0.47760117622E+03  0.13392490988E+03 -0.24872209384E+03  0.56879385104E+03  0.12500000000E+03 0.  0.
         21    1    1    2  503  501 -0.22021654852E+02 -0.20981166207E+02  0.18220495967E+03  0.18472631092E+03  0.00000000000E+00 0.  1.
          2    1    1    2  501    0 -0.45557952137E+03 -0.11294374367E+03 -0.40159747111E+03  0.61772932448E+03  0.00000000000E+00 0. -1.
<mgrwt>
<rscale>  4 0.49606703E+03</rscale>
<asrwt>0</asrwt>
<pdfrwt beam="1">  1       21 0.69471914E-01 0.49606703E+03</pdfrwt>
<pdfrwt beam="2">  1        2 0.14148955E+00 0.49606703E+03</pdfrwt>
<totfact> 0.62739982E+02</totfact>
</mgrwt>
</event>
<event>
 5    0  0.3040647E+000  0.2400633E+03  0.7546771E-02  0.1119751E+00
          1   -1    0    0  502    0 -0.00000000000E+00  0.00000000000E+00  0.10482187316E+04  0.10482187316E+04  0.00000000000E+00 0.  1.
         21   -1    0    0  503  502  0.00000000000E+00 -0.00000000000E+00 -0.33101506473E+03  0.33101506473E+03  0.00000000000E+00 0. -1.
         25    1    1    2    0    0 -0.13633680849E+03  0.25800206404E+03 -0.16037022513E+03  0.35566332325E+03  0.12500000000E+03 0.  0.
         21    1    1    2  503  501 -0.21972232976E+02 -0.13240425985E+03  0.12034071135E+02  0.13475342636E+03  0.00000000000E+00 0.  1.
          1    1    1    2  501    0  0.15830904147E+03 -0.12559780419E+03  0.86553982091E+03  0.88881704676E+03  0.00000000000E+00 0.  1.
<mgrwt>
<rscale>  4 0.24006325E+03</rscale>
<asrwt>0</asrwt>
<pdfrwt beam="1">  1       21 0.50925395E-01 0.24006325E+03</pdfrwt>
<pdfrwt beam="2">  1        1 0.16126442E+00 0.24006325E+03</pdfrwt>
<totfact> 0.59065857E+02</totfact>
</mgrwt>
</event>
<event>
 5    0  0.3040647E+000  0.1814299E+03  0.7546771E-02  0.1166426E+00
          2   -1    0    0  502    0 -0.00000000000E+00  0.00000000000E+00  0.10489585954E+04  0.10489585954E+04  0.00000000000E+00 0. -1.
         21   -1    0    0  503  502  0.00000000000E+00 -0.00000000000E+00 -0.57057779105E+03  0.57057779105E+03  0.00000000000E+00 0. -1.
         25    1    1    2    0    0  0.10360653891E+02  0.23296131610E+03  0.15521452561E+03  0.30674886619E+03  0.12500000000E+03 0.  0.
         21    1    1    2  503  501 -0.18686696906E+02 -0.10812816305E+03 -0.48384703804E+03  0.49613390179E+03  0.00000000000E+00 0. -1.
          2    1    1    2  501    0  0.83260430155E+01 -0.12483315306E+03  0.80701331675E+03  0.81665361844E+03  0.00000000000E+00 0. -1.
<mgrwt>
<rscale>  4 0.18142990E+03</rscale>
<asrwt>0</asrwt>
<pdfrwt beam="1">  1       21 0.87781199E-01 0.18142990E+03</pdfrwt>
<pdfrwt beam="2">  1        2 0.16137824E+00 0.18142990E+03</pdfrwt>
<totfact> 0.35034891E+02</totfact>
</mgrwt>
</event>
<event>
 5    0  0.3040647E+000  0.2639567E+03  0.7546771E-02  0.1104789E+00
         21   -1    0    0  503  502  0.00000000000E+00  0.00000000000E+00  0.33274044071E+03  0.33274044071E+03  0.00000000000E+00 0.  1.
          2   -1    0    0  502    0 -0.00000000000E+00 -0.00000000000E+00 -0.11378694170E+04  0.11378694170E+04  0.00000000000E+00 0. -1.
         25    1    1    2    0    0  0.82176640858E+02  0.24613384321E+03 -0.17468551434E+02  0.28855678707E+03  0.12500000000E+03 0.  0.
         21    1    1    2  503  501  0.16392452612E+02 -0.38359158264E+02  0.18137145435E+03  0.18610680261E+03  0.00000000000E+00 0.  1.
          2    1    1    2  501    0 -0.98569093470E+02 -0.20777468494E+03 -0.96903187923E+03  0.99594626805E+03  0.00000000000E+00 0. -1.
<mgrwt>
<rscale>  4 0.26395675E+03</rscale>
<asrwt>0</asrwt>
<pdfrwt beam="1">  1       21 0.51190836E-01 0.26395675E+03</pdfrwt>
<pdfrwt beam="2">  1        2 0.17505684E+00 0.26395675E+03</pdfrwt>
<totfact> 0.96705209E+02</totfact>
</mgrwt>
</event>
<event>
 5    0  0.3040647E+000  0.2622456E+03  0.7546771E-02  0.1105802E+00
          1   -1    0    0  502    0 -0.00000000000E+00  0.00000000000E+00  0.26764763560E+04  0.26764763560E+04  0.00000000000E+00 0. -1.
         21   -1    0    0  503  502  0.00000000000E+00 -0.00000000000E+00 -0.51025034159E+02  0.51025034159E+02  0.00000000000E+00 0. -1.
         25    1    1    2    0    0  0.20649962237E+03  0.10168114891E+03  0.35124322518E+03  0.43815288806E+03  0.12500000000E+03 0.  0.
         21    1    1    2  503  501 -0.76141842573E+01  0.20478531373E+02  0.86177064095E+02  0.88903500634E+02  0.00000000000E+00 0. -1.
          1    1    1    2  501    0 -0.19888543811E+03 -0.12215968028E+03  0.21880310326E+04  0.22004450015E+04  0.00000000000E+00 0. -1.
<mgrwt>
<rscale>  4 0.26224556E+03</rscale>
<asrwt>0</asrwt>
<pdfrwt beam="1">  1       21 0.78500073E-02 0.26224556E+03</pdfrwt>
<pdfrwt beam="2">  1        1 0.41176548E+00 0.26224556E+03</pdfrwt>
<totfact> 0.16671282E+03</totfact>
</mgrwt>
</event>
<event>
 5    0  0.3040647E+000  0.3802886E+03  0.7546771E-02  0.1050827E+00
         21   -1    0    0  503  502  0.00000000000E+00  0.00000000000E+00  0.30245331108E+03  0.30245331108E+03  0.00000000000E+00 0. -1.
          2   -1    0    0  502    0 -0.00000000000E+00 -0.00000000000E+00 -0.11213494464E+04  0.11213494464E+04  0.00000000000E+00 0. -1.
         25    1    1    2    0    0  0.16089060450E+03 -0.36770530158E+03 -0.19421891060E+02  0.42082678774E+03  0.12500000000E+03 0.  0.
         21    1    1    2  503  501  0.24377709436E+01  0.55915722806E+02  0.55231672652E+02  0.78632362600E+02  0.00000000000E+00 0.  1.
          2    1    1    2  501    0 -0.16332837544E+03  0.31178957878E+03 -0.85470591691E+03  0.92434360714E+03  0.00000000000E+00 0. -1.
<mgrwt>
<rscale>  4 0.38028859E+03</rscale>
<asrwt>0</asrwt>
<pdfrwt beam="1">  1       21 0.46531280E-01 0.38028859E+03</pdfrwt>
<pdfrwt beam="2">  1        2 0.17251530E+00 0.38028859E+03</pdfrwt>
<totfact> 0.11580797E+03</totfact>
</mgrwt>
</event>
<event>
 5    0  0.3040647E+000  0.2144765E+03  0.7546771E-02  0.1138069E+00
         21   -1    0    0  503  502  0.00000000000E+00  0.00000000000E+00  0.77248050142E+02  0.77248050142E+02  0.00000000000E+00 0.  1.
          2   -1    0    0  502    0 -0.00000000000E+00 -0.00000000000E+00 -0.11743289984E+04  0.11743289984E+04  0.00000000000E+00 0.  1.
         25    1    1    2    0    0 -0.18238325494E+03  0.10172223311E+03 -0.34575880841E+03  0.42283001074E+03  0.12500000000E+03 0.  0.
         21    1    1    2  503  501  0.29585264944E+02 -0.35743587392E+02  0.11644619198E+02  0.47838155250E+02  0.00000000000E+00 0.  1.
          2    1    1    2  501    0  0.15279798999E+03 -0.65978645720E+02 -0.76296675901E+03  0.78090888251E+03  0.00000000000E+00 0.  1.
<mgrwt>
<rscale>  4 0.21447650E+03</rscale>
<asrwt>0</asrwt>
<pdfrwt beam="1">  1       21 0.11884316E-01 0.21447650E+03</pdfrwt>
<pdfrwt beam="2">  1        2 0.18066599E+00 0.21447650E+03</pdfrwt>
<totfact> 0.15670087E+04</totfact>
</mgrwt>
</event>
<event>
 5    0  0.3040647E+000  0.3009009E+03  0.7546771E-02  0.1084791E+00
          2   -1    0    0  502    0 -0.00000000000E+00  0.00000000000E+00  0.34152887303E+04  0.34152887303E+04  0.00000000000E+00 0. -1.
         21   -1    0    0  503  502  0.00000000000E+00 -0.00000000000E+00 -0.54632867113E+02  0.54632867113E+02  0.00000000000E+00 0.  1.
         25    1    1    2    0    0 -0.16652925801E+03  0.22300528665E+03  0.51842753094E+03  0.60154422654E+03  0.12500000000E+03 0.  0.
         21    1    1    2  503  501 -0.20760571831E+02 -0.24078743253E+02  0.32745230350E+02  0.45640303790E+02  0.00000000000E+00 0. -1.
          2    1    1    2  501    0  0.18728982984E+03 -0.19892654340E+03  0.28094831019E+04  0.28227370671E+04  0.00000000000E+00 0. -1.
<mgrwt>
<rscale>  4 0.30090095E+03</rscale>
<asrwt>0</asrwt>
<pdfrwt beam="1">  1       21 0.84050591E-02 0.30090095E+03</pdfrwt>
<pdfrwt beam="2">  1        2 0.52542887E+00 0.30090095E+03</pdfrwt>
<totfact> 0.15752070E+03</totfact>
</mgrwt>
</event>
<event>
 5    0  0.3040647E+000  0.3164182E+03  0.7546771E-02  0.1077310E+00
         21   -1    0    0  503  502  0.00000000000E+00  0.00000000000E+00  0.18371807551E+04  0.18371807551E+04  0.00000000000E+00 0.  1.
          2   -1    0    0  502    0 -0.00000000000E+00 -0.00000000000E+00 -0.36191726157E+03  0.36191726157E+03  0.00000000000E+00 0.  1.
         25    1    1    2    0    0  0.17099383573E+03  0.18694226131E+03  0.16218280152E+04  0.16462494986E+04  0.12500000000E+03 0.  0.
         21    1    1    2  503  501  0.50475115783E+02  0.36061329020E+01  0.13679056933E+03  0.14585061318E+03  0.00000000000E+00 0. -1.
          2    1    1    2  501    0 -0.22146895151E+03 -0.19054839421E+03 -0.28335509094E+03  0.40699790489E+03  0.00000000000E+00 0.  1.
<mgrwt>
<rscale>  4 0.31641819E+03</rscale>
<asrwt>0</asrwt>
<pdfrwt beam="1">  1       21 0.28264319E+00 0.31641819E+03</pdfrwt>
<pdfrwt beam="2">  1        2 0.55679580E-01 0.31641819E+03</pdfrwt>
<totfact> 0.42368239E+01</totfact>
</mgrwt>
</event>
<event>
 5    0  0.3040647E+000  0.5250909E+03  0.7546771E-02  0.1007430E+00
         21   -1    0    0  503  502  0.00000000000E+00  0.00000000000E+00  0.65712237902E+03  0.65712237902E+03  0.00000000000E+00 0. -1.
          1   -1    0    0  502    0 -0.00000000000E+00 -0.00000000000E+00 -0.16599397142E+04  0.16599397142E+04  0.00000000000E+00 0. -1.
         25    1    1    2    0    0 -0.29684507629E+03  0.44263663447E+03 -0.25186867637E+03  0.60258362044E+03  0.12500000000E+03 0.  0.
         21    1    1    2  503  501  0.31265106413E+02 -0.15068082406E+02  0.42965592165E+03  0.43105540827E+03  0.00000000000E+00 0. -1.
          1    1    1    2  501    0  0.26557996988E+03 -0.42756855206E+03 -0.11806045804E+04  0.12834230645E+04  0.00000000000E+00 0. -1.
<mgrwt>
<rscale>  4 0.52509095E+03</rscale>
<asrwt>0</asrwt>
<pdfrwt beam="1">  1       21 0.10109575E+00 0.52509095E+03</pdfrwt>
<pdfrwt beam="2">  1        1 0.25537534E+00 0.52509095E+03</pdfrwt>
<totfact> 0.42024227E+01</totfact>
</mgrwt>
</event>
<event>
 5    0  0.3040647E+000  0.1692514E+03  0.7546771E-02  0.1178631E+00
          2   -1    0    0  502    0 -0.00000000000E+00  0.00000000000E+00  0.26041110572E+04  0.26041110572E+04  0.00000000000E+00 0.  1.
         21   -1    0    0  503  502  0.00000000000E+00 -0.00000000000E+00 -0.90657877525E+02  0.90657877525E+02  0.00000000000E+00 0.  1.
         25    1    1    2    0    0 -0.60947681436E+02 -0.19388691181E+03  0.19825333945E+03  0.31021950462E+03  0.12500000000E+03 0.  0.
         21    1    1    2  503  501  0.33259127932E+02  0.85429423745E+02  0.29781280383E+02  0.96391289510E+02  0.00000000000E+00 0.  1.
          2    1    1    2  501    0  0.27688553505E+02  0.10845748806E+03  0.22854185599E+04  0.22881581406E+04  0.00000000000E+00 0.  1.
<mgrwt>
<rscale>  4 0.16925144E+03</rscale>
<asrwt>0</asrwt>
<pdfrwt beam="1">  1       21 0.13947368E-01 0.16925144E+03</pdfrwt>
<pdfrwt beam="2">  1        2 0.40063241E+00 0.16925144E+03</pdfrwt>
<totfact> 0.20951080E+03</totfact>
</mgrwt>
</event>
<event>
 5    0  0.3040647E+000  0.3040605E+03  0.7546771E-02  0.1083228E+00
         21   -1    0    0  503  502  0.00000000000E+00  0.00000000000E+00  0.12145743762E+03  0.12145743762E+03  0.00000000000E+00 0.  1.
          2   -1    0    0  502    0 -0.00000000000E+00 -0.00000000000E+00 -0.28427744670E+04  0.28427744670E+04  0.00000000000E+00 0.  1.
         25    1    1    2    0    0  0.21551983499E+03  0.85902664242E+02 -0.98648430154E+03  0.10210799891E+04  0.12500000000E+03 0.  0.
         21    1    1    2  503  501 -0.25557416087E+03 -0.12886160318E+03 -0.93992480251E+02  0.30126076881E+03  0.00000000000E+00 0.  1.
          2    1    1    2  501    0  0.40054325885E+02  0.42958938935E+02 -0.16408402476E+04  0.16418911467E+04  0.00000000000E+00 0.  1.
<mgrwt>
<rscale>  4 0.30406045E+03</rscale>
<asrwt>0</asrwt>
<pdfrwt beam="1">  1       21 0.18685761E-01 0.30406045E+03</pdfrwt>
<pdfrwt beam="2">  1        2 0.43734989E+00 0.30406045E+03</pdfrwt>
<totfact> 0.82595290E+02</totfact>
</mgrwt>
</event>
<event>
 5    0  0.3040647E+000  0.2604395E+03  0.7546771E-02  0.1106879E+00
         21   -1    0    0  503  502  0.00000000000E+00  0.00000000000E+00  0.65943855764E+03  0.65943855764E+03  0.00000000000E+00 0. -1.
          2   -1    0    0  502    0 -0.00000000000E+00 -0.00000000000E+00 -0.32177716783E+03  0.32177716783E+03  0.00000000000E+00 0.  1.
         25    1    1    2    0    0 -0.17364257242E+03 -0.10220237740E+03  0.19132071747E+02  0.23788254470E+03  0.12500000000E+03 0.  0.
         21    1    1    2  503  501  0.56734204824E+01 -0.79099253386E+02  0.45441929101E+03  0.46128708157E+03  0.00000000000E+00 0. -1.
          2    1    1    2  501    0  0.16796915194E+03  0.18130163078E+03 -0.13588997294E+03  0.28204609920E+03  0.00000000000E+00 0.  1.
<mgrwt>
<rscale>  4 0.26043952E+03</rscale>
<asrwt>0</asrwt>
<pdfrwt beam="1">  1       21 0.10145209E+00 0.26043952E+03</pdfrwt>
<pdfrwt beam="2">  1        2 0.49504180E-01 0.26043952E+03</pdfrwt>
<totfact> 0.96647236E+02</totfact>
</mgrwt>
</event>
<event>
 5    0  0.3040647E+000  0.2560785E+03  0.7546771E-02  0.1109523E+00
         21   -1    0    0  503  502  0.00000000000E+00  0.00000000000E+00  0.68601948241E+02  0.68601948241E+02  0.00000000000E+00 0. -1.
          2   -1    0    0  502    0 -0.00000000000E+00 -0.00000000000E+00 -0.22536032775E+04  0.22536032775E+04  0.00000000000E+00 0. -1.
         25    1    1    2    0    0  0.99636018077E+01  0.20273876928E+03 -0.58811894451E+03  0.63459528427E+03  0.12500000000E+03 0.  0.
         21    1    1    2  503  501 -0.66481235331E+02  0.23699680389E+02  0.31466566252E+01  0.70649352082E+02  0.00000000000E+00 0. -1.
          2    1    1    2  501    0  0.56517633524E+02 -0.22643844967E+03 -0.16000290414E+04  0.16169605894E+04  0.00000000000E+00 0. -1.
<mgrwt>
<rscale>  4 0.25607846E+03</rscale>
<asrwt>0</asrwt>
<pdfrwt beam="1">  1       21 0.10554148E-01 0.25607846E+03</pdfrwt>
<pdfrwt beam="2">  1        2 0.34670812E+00 0.25607846E+03</pdfrwt>
<totfact> 0.50821653E+03</totfact>
</mgrwt>
</event>
<event>
 5    0  0.3040647E+000  0.2397509E+03  0.7546771E-02  0.1119959E+00
          2   -1    0    0  502    0 -0.00000000000E+00  0.00000000000E+00  0.25076735298E+03  0.25076735298E+03  0.00000000000E+00 0. -1.
         21   -1    0    0  503  502  0.00000000000E+00 -0.00000000000E+00 -0.81979264313E+03  0.81979264313E+03  0.00000000000E+00 0.  1.
         25    1    1    2    0    0  0.54797469925E+02  0.20131872048E+03  0.14902172156E+03  0.28524456774E+03  0.12500000000E+03 0.  0.
         21    1    1    2  503  501 -0.52197447223E+00 -0.20530262633E+02 -0.48490458572E+03  0.48533928483E+03  0.00000000000E+00 0.  1.
          2    1    1    2  501    0 -0.54275495452E+02 -0.18078845785E+03 -0.23314242599E+03  0.29997614354E+03  0.00000000000E+00 0. -1.
<mgrwt>
<rscale>  4 0.23975089E+03</rscale>
<asrwt>0</asrwt>
<pdfrwt beam="1">  1       21 0.12612194E+00 0.23975089E+03</pdfrwt>
<pdfrwt beam="2">  1        2 0.38579593E-01 0.23975089E+03</pdfrwt>
<totfact> 0.74764969E+02</totfact>
</mgrwt>
</event>
<event>
 5    0  0.3040647E+000  0.3098722E+03  0.7546771E-02  0.1080407E+00
         21   -1    0    0  503  502  0.00000000000E+00  0.00000000000E+00  0.46627736629E+02  0.46627736629E+02  0.00000000000E+00 0. -1.
          2   -1    0    0  502    0 -0.00000000000E+00 -0.00000000000E+00 -0.21537882873E+04  0.21537882873E+04  0.00000000000E+00 0. -1.
         25    1    1    2    0    0  0.27014249983E+03 -0.27561020306E+02 -0.91330996339E+03  0.96098734085E+03  0.12500000000E+03 0.  0.
         21    1    1    2  503  501  0.20954506986E+02 -0.16694426195E+01 -0.17831121575E+02  0.27564965052E+02  0.00000000000E+00 0.  1.
          2    1    1    2  501    0 -0.29109700681E+03  0.29230462925E+02 -0.11760194657E+04  0.12118637180E+04  0.00000000000E+00 0. -1.
<mgrwt>
<rscale>  4 0.30987223E+03</rscale>
<asrwt>0</asrwt>
<pdfrwt beam="1">  1       21 0.71734982E-02 0.30987223E+03</pdfrwt>
<pdfrwt beam="2">  1        2 0.33135203E+00 0.30987223E+03</pdfrwt>
<totfact> 0.11152201E+04</totfact>
</mgrwt>
</event>
<event>
 5    0  0.3040647E+000  0.3007088E+03  0.7546771E-02  0.1084887E+00
         21   -1    0    0  503  502  0.00000000000E+00  0.00000000000E+00  0.12117833498E+03  0.12117833498E+03  0.00000000000E+00 0.  1.
          2   -1    0    0  502    0 -0.00000000000E+00 -0.00000000000E+00 -0.77015153838E+03  0.77015153838E+03  0.00000000000E+00 0. -1.
         25    1    1    2    0    0  0.84365529387E+02  0.26178577822E+03 -0.27355716674E+03  0.40756331987E+03  0.12500000000E+03 0.  0.
         21    1    1    2  503  501 -0.22612867306E+02  0.39799911051E+01 -0.46489211076E+01  0.23426364730E+02  0.00000000000E+00 0.  1.
          2    1    1    2  501    0 -0.61752662081E+02 -0.26576576932E+03 -0.37076711555E+03  0.46034018876E+03  0.00000000000E+00 0. -1.
<mgrwt>
<rscale>  4 0.30070884E+03</rscale>
<asrwt>0</asrwt>
<pdfrwt beam="1">  1       21 0.18642820E-01 0.30070884E+03</pdfrwt>
<pdfrwt beam="2">  1        2 0.11848486E+00 0.30070884E+03</pdfrwt>
<totfact> 0.12094686E+04</totfact>
</mgrwt>
</event>
<event>
 5    0  0.3040647E+000  0.2689965E+03  0.7546771E-02  0.1101855E+00
         21   -1    0    0  503  502  0.00000000000E+00  0.00000000000E+00  0.27535049644E+03  0.27535049644E+03  0.00000000000E+00 0. -1.
          2   -1    0    0  502    0 -0.00000000000E+00 -0.00000000000E+00 -0.11331586248E+04  0.11331586248E+04  0.00000000000E+00 0. -1.
         25    1    1    2    0    0 -0.18715098461E+02 -0.25201347848E+03  0.16633179069E+03  0.32734127885E+03  0.12500000000E+03 0.  0.
         21    1    1    2  503  501 -0.13393578197E+02  0.16773893929E+02  0.73638794532E+01  0.22693130570E+02  0.00000000000E+00 0. -1.
          2    1    1    2  501    0  0.32108676658E+02  0.23523958455E+03 -0.10315037985E+04  0.10584747119E+04  0.00000000000E+00 0. -1.
<mgrwt>
<rscale>  4 0.26899652E+03</rscale>
<asrwt>0</asrwt>
<pdfrwt beam="1">  1       21 0.42361616E-01 0.26899652E+03</pdfrwt>
<pdfrwt beam="2">  1        2 0.17433209E+00 0.26899652E+03</pdfrwt>
<totfact> 0.14397341E+03</totfact>
</mgrwt>
</event>
<event>
 5    0  0.3040647E+000  0.3330144E+03  0.7546771E-02  0.1069811E+00
         21   -1    0    0  503  502  0.00000000000E+00  0.00000000000E+00  0.30262155038E+03  0.30262155038E+03  0.00000000000E+00 0. -1.
          2   -1    0    0  502    0 -0.00000000000E+00 -0.00000000000E+00 -0.78964044268E+03  0.78964044268E+03  0.00000000000E+00 0. -1.
         25    1    1    2    0    0 -0.19893784947E+03 -0.30147092506E+03  0.54565812752E+02  0.38608731464E+03  0.12500000000E+03 0.  0.
         21    1    1    2  503  501  0.19882192799E+02  0.60977451030E+02  0.21993366688E+02  0.67803092133E+02  0.00000000000E+00 0. -1.
          2    1    1    2  501    0  0.17905565667E+03  0.24049347403E+03 -0.56357807174E+03  0.63837158629E+03  0.00000000000E+00 0. -1.
<mgrwt>
<rscale>  4 0.33301444E+03</rscale>
<asrwt>0</asrwt>
<pdfrwt beam="1">  1       21 0.46557163E-01 0.33301444E+03</pdfrwt>
<pdfrwt beam="2">  1        2 0.12148314E+00 0.33301444E+03</pdfrwt>
<totfact> 0.19120519E+03</totfact>
</mgrwt>
</event>
<event>
 5    0  0.3040647E+000  0.3169464E+03  0.7546771E-02  0.1077063E+00
          2   -1    0    0  502    0 -0.00000000000E+00  0.00000000000E+00  0.18513270394E+04  0.18513270394E+04  0.00000000000E+00 0. -1.
         21   -1    0    0  503  502  0.00000000000E+00 -0.00000000000E+00 -0.19707389032E+03  0.19707389032E+03  0.00000000000E+00 0. -1.
         25    1    1    2    0    0  0.25108630471E+03  0.17936041289E+03  0.63524558288E+03  0.71720041877E+03  0.12500000000E+03 0.  0.
         21    1    1    2  503  501 -0.40557843590E+02  0.12110033387E+02 -0.13559363905E+03  0.14204656468E+03  0.00000000000E+00 0. -1.
          2    1    1    2  501    0 -0.21052846112E+03 -0.19147044628E+03  0.11546012053E+04  0.11891539463E+04  0.00000000000E+00 0. -1.
<mgrwt>
<rscale>  4 0.31694637E+03</rscale>
<asrwt>0</asrwt>
<pdfrwt beam="1">  1       21 0.30319061E-01 0.31694637E+03</pdfrwt>
<pdfrwt beam="2">  1        2 0.28481953E+00 0.31694637E+03</pdfrwt>
<totfact> 0.11250919E+03</totfact>
</mgrwt>
</event>
<event>
 5    0  0.3040647E+000  0.2700761E+03  0.7546771E-02  0.1101236E+00
          2   -1    0    0  502    0 -0.00000000000E+00  0.00000000000E+00  0.29045045014E+03  0.29045045014E+03  0.00000000000E+00 0. -1.
         21   -1    0    0  503  502  0.00000000000E+00 -0.00000000000E+00 -0.80472723578E+03  0.80472723578E+03  0.00000000000E+00 0.  1.
         25    1    1    2    0    0 -0.19756441494E+03 -0.14046063442E+03 -0.71504016724E+03  0.76528970242E+03  0.12500000000E+03 0.  0.
         21    1    1    2  503  501  0.13010713381E+02  0.37422551871E+02  0.18847424204E+01  0.39664572420E+02  0.00000000000E+00 0. -1.
          2    1    1    2  501    0  0.18455370156E+03  0.10303808255E+03  0.19887863918E+03  0.29022341108E+03  0.00000000000E+00 0. -1.
<mgrwt>
<rscale>  4 0.27007612E+03</rscale>
<asrwt>0</asrwt>
<pdfrwt beam="1">  1       21 0.12380419E+00 0.27007612E+03</pdfrwt>
<pdfrwt beam="2">  1        2 0.44684686E-01 0.27007612E+03</pdfrwt>
<totfact> 0.65916715E+02</totfact>
</mgrwt>
</event>
<event>
 5    0  0.3040647E+000  0.4057690E+03  0.7546771E-02  0.1041800E+00
         21   -1    0    0  503  502  0.00000000000E+00  0.00000000000E+00  0.46647180676E+03  0.46647180676E+03  0.00000000000E+00 0.  1.
          1   -1    0    0  502    0 -0.00000000000E+00 -0.00000000000E+00 -0.95852595054E+03  0.95852595054E+03  0.00000000000E+00 0.  1.
         25    1    1    2    0    0 -0.21744164322E+03  0.35630308546E+03  0.26924594466E+03  0.51220224095E+03  0.12500000000E+03 0.  0.
         21    1    1    2  503  501  0.25646305664E+02 -0.25371161514E+02  0.21179502200E+02  0.41833003050E+02  0.00000000000E+00 0.  1.
          1    1    1    2  501    0  0.19179533756E+03 -0.33093192394E+03 -0.78247959065E+03  0.87096251330E+03  0.00000000000E+00 0.  1.
<mgrwt>
<rscale>  4 0.40576896E+03</rscale>
<asrwt>0</asrwt>
<pdfrwt beam="1">  1       21 0.71764895E-01 0.40576896E+03</pdfrwt>
<pdfrwt beam="2">  1        1 0.14746553E+00 0.40576896E+03</pdfrwt>
<totfact> 0.30514133E+02</totfact>
</mgrwt>
</event>
<event>
 5    0  0.3040647E+000  0.1946468E+03  0.7546771E-02  0.1154336E+00
         -4   -1    0    0    0  501 -0.00000000000E+00  0.00000000000E+00  0.16374962921E+03  0.16374962921E+03  0.00000000000E+00 0.  1.
         21   -1    0    0  501  502  0.00000000000E+00 -0.00000000000E+00 -0.19594548671E+04  0.19594548671E+04  0.00000000000E+00 0.  1.
         25    1    1    2    0    0 -0.95066414060E+02 -0.22692547618E+03 -0.47996333671E+03  0.55364483146E+03  0.12500000000E+03 0.  0.
         21    1    1    2  503  502  0.25499882159E+02  0.10338548066E+03 -0.14003900221E+04  0.14044326312E+04  0.00000000000E+00 0.  1.
         -4    1    1    2    0  503  0.69566531901E+02  0.12353999552E+03  0.84648120941E+02  0.16512703362E+03  0.00000000000E+00 0.  1.
<mgrwt>
<rscale>  4 0.19464676E+03</rscale>
<asrwt>0</asrwt>
<pdfrwt beam="1">  1       21 0.30145458E+00 0.19464676E+03</pdfrwt>
<pdfrwt beam="2">  1       -4 0.25192252E-01 0.19464676E+03</pdfrwt>
<totfact> 0.20758857E+01</totfact>
</mgrwt>
</event>
<event>
 5    0  0.3040647E+000  0.2654136E+03  0.7546771E-02  0.1103934E+00
          2   -1    0    0  502    0 -0.00000000000E+00  0.00000000000E+00  0.23033918522E+04  0.23033918522E+04  0.00000000000E+00 0. -1.
         21   -1    0    0  503  502  0.00000000000E+00 -0.00000000000E+00 -0.39066571162E+02  0.39066571162E+02  0.00000000000E+00 0. -1.
         25    1    1    2    0    0 -0.24641203498E+03  0.29821335063E+02  0.65692255657E+03  0.71328847484E+03  0.12500000000E+03 0.  0.
         21    1    1    2  503  501  0.16698735785E+02 -0.17925468898E+02  0.60709480764E+02  0.65466107771E+02  0.00000000000E+00 0. -1.
          2    1    1    2  501    0  0.22971329920E+03 -0.11895866165E+02  0.15466932437E+04  0.15637038408E+04  0.00000000000E+00 0. -1.
<mgrwt>
<rscale>  4 0.26541358E+03</rscale>
<asrwt>0</asrwt>
<pdfrwt beam="1">  1       21 0.60102435E-02 0.26541358E+03</pdfrwt>
<pdfrwt beam="2">  1        2 0.35436787E+00 0.26541358E+03</pdfrwt>
<totfact> 0.12781819E+04</totfact>
</mgrwt>
</event>
<event>
 5    0  0.3040647E+000  0.3050364E+03  0.7546771E-02  0.1082750E+00
         21   -1    0    0  503  502  0.00000000000E+00  0.00000000000E+00  0.18341196342E+04  0.18341196342E+04  0.00000000000E+00 0. -1.
          1   -1    0    0  502    0 -0.00000000000E+00 -0.00000000000E+00 -0.15112352458E+04  0.15112352458E+04  0.00000000000E+00 0. -1.
         25    1    1    2    0    0  0.12181766790E+01  0.37914370006E+03 -0.51137844280E+03  0.64875599497E+03  0.12500000000E+03 0.  0.
         21    1    1    2  503  501 -0.39070985581E+02 -0.27365377111E+03  0.17511770906E+04  0.17728604376E+04  0.00000000000E+00 0. -1.
          1    1    1    2  501    0  0.37852808903E+02 -0.10548992894E+03 -0.91691425938E+03  0.92373844745E+03  0.00000000000E+00 0. -1.
<mgrwt>
<rscale>  4 0.30503637E+03</rscale>
<asrwt>0</asrwt>
<pdfrwt beam="1">  1       21 0.28217225E+00 0.30503637E+03</pdfrwt>
<pdfrwt beam="2">  1        1 0.23249773E+00 0.30503637E+03</pdfrwt>
<totfact> 0.29833855E+00</totfact>
</mgrwt>
</event>
<event>
 5    0  0.3040647E+000  0.2215943E+03  0.7546771E-02  0.1132700E+00
          2   -1    0    0  502    0 -0.00000000000E+00  0.00000000000E+00  0.23292614497E+04  0.23292614497E+04  0.00000000000E+00 0.  1.
         21   -1    0    0  503  502  0.00000000000E+00 -0.00000000000E+00 -0.55784349517E+02  0.55784349517E+02  0.00000000000E+00 0. -1.
         25    1    1    2    0    0 -0.22496960876E+03  0.10134567402E+03  0.40636680041E+03  0.49157018521E+03  0.12500000000E+03 0.  0.
         21    1    1    2  503  501  0.56064348667E+02 -0.50533486876E+02  0.15601453671E+03  0.17331295437E+03  0.00000000000E+00 0. -1.
          2    1    1    2  501    0  0.16890526010E+03 -0.50812187142E+02  0.17110957630E+04  0.17201626596E+04  0.00000000000E+00 0.  1.
<mgrwt>
<rscale>  4 0.22159434E+03</rscale>
<asrwt>0</asrwt>
<pdfrwt beam="1">  1       21 0.85822094E-02 0.22159434E+03</pdfrwt>
<pdfrwt beam="2">  1        2 0.35834784E+00 0.22159434E+03</pdfrwt>
<totfact> 0.67777561E+03</totfact>
</mgrwt>
</event>
<event>
 5    0  0.3040647E+000  0.2546756E+03  0.7546771E-02  0.1110385E+00
         21   -1    0    0  503  502  0.00000000000E+00  0.00000000000E+00  0.51590636461E+02  0.51590636461E+02  0.00000000000E+00 0. -1.
          2   -1    0    0  502    0 -0.00000000000E+00 -0.00000000000E+00 -0.14506825805E+04  0.14506825805E+04  0.00000000000E+00 0. -1.
         25    1    1    2    0    0 -0.16068132331E+03 -0.15421207033E+03 -0.41652997003E+03  0.48859192199E+03  0.12500000000E+03 0.  0.
         21    1    1    2  503  501  0.18370730464E+02 -0.16107224748E+02 -0.59715067960E+02  0.64519886612E+02  0.00000000000E+00 0.  1.
          2    1    1    2  501    0  0.14231059285E+03  0.17031929508E+03 -0.92284690601E+03  0.94916140832E+03  0.00000000000E+00 0. -1.
<mgrwt>
<rscale>  4 0.25467559E+03</rscale>
<asrwt>0</asrwt>
<pdfrwt beam="1">  1       21 0.79370205E-02 0.25467559E+03</pdfrwt>
<pdfrwt beam="2">  1        2 0.22318195E+00 0.25467559E+03</pdfrwt>
<totfact> 0.22331953E+04</totfact>
</mgrwt>
</event>
<event>
 5    0  0.3040647E+000  0.2852620E+03  0.7546771E-02  0.1092849E+00
         21   -1    0    0  503  502  0.00000000000E+00  0.00000000000E+00  0.43882159763E+03  0.43882159763E+03  0.00000000000E+00 0.  1.
          2   -1    0    0  502    0 -0.00000000000E+00 -0.00000000000E+00 -0.26530558088E+03  0.26530558088E+03  0.00000000000E+00 0.  1.
         25    1    1    2    0    0  0.12528630170E+03  0.23255791115E+03  0.19273546704E+03  0.35007399173E+03  0.12500000000E+03 0.  0.
         21    1    1    2  503  501 -0.25218424094E+02  0.10916069640E+01  0.77950934757E+02  0.81936003985E+02  0.00000000000E+00 0.  1.
          2    1    1    2  501    0 -0.10006787761E+03 -0.23364951811E+03 -0.97170385046E+02  0.27211718279E+03  0.00000000000E+00 0.  1.
<mgrwt>
<rscale>  4 0.28526196E+03</rscale>
<asrwt>0</asrwt>
<pdfrwt beam="1">  1       21 0.67511015E-01 0.28526196E+03</pdfrwt>
<pdfrwt beam="2">  1        2 0.40816243E-01 0.28526196E+03</pdfrwt>
<totfact> 0.30145524E+03</totfact>
</mgrwt>
</event>
<event>
 5    0  0.3040647E+000  0.1945363E+03  0.7546771E-02  0.1154432E+00
          2   -1    0    0  502    0 -0.00000000000E+00  0.00000000000E+00  0.14349209563E+04  0.14349209563E+04  0.00000000000E+00 0.  1.
         21   -1    0    0  503  502  0.00000000000E+00 -0.00000000000E+00 -0.24855011737E+04  0.24855011737E+04  0.00000000000E+00 0. -1.
         25    1    1    2    0    0  0.18360973362E+03  0.17163083170E+03 -0.21669026919E+03  0.35461154724E+03  0.12500000000E+03 0.  0.
         21    1    1    2  503  501 -0.12337055833E+03 -0.77389815641E+02 -0.21951437449E+04  0.21999694404E+04  0.00000000000E+00 0. -1.
          2    1    1    2  501    0 -0.60239175294E+02 -0.94241016064E+02  0.13612537966E+04  0.13658411424E+04  0.00000000000E+00 0.  1.
<mgrwt>
<rscale>  4 0.19453628E+03</rscale>
<asrwt>0</asrwt>
<pdfrwt beam="1">  1       21 0.38238480E+00 0.19453628E+03</pdfrwt>
<pdfrwt beam="2">  1        2 0.22075707E+00 0.19453628E+03</pdfrwt>
<totfact> 0.21174375E+00</totfact>
</mgrwt>
</event>
<event>
 5    0  0.3040647E+000  0.3161310E+03  0.7546771E-02  0.1077444E+00
         -1   -1    0    0    0  501 -0.00000000000E+00  0.00000000000E+00  0.16704287754E+04  0.16704287754E+04  0.00000000000E+00 0.  1.
         21   -1    0    0  501  502  0.00000000000E+00 -0.00000000000E+00 -0.27843244074E+03  0.27843244074E+03  0.00000000000E+00 0.  1.
         25    1    1    2    0    0  0.77196674243E+02  0.27965986616E+03  0.65755111266E+01  0.31597025905E+03  0.12500000000E+03 0.  0.
         21    1    1    2  503  502  0.96082635847E+02 -0.44595359995E+02 -0.83713712337E+02  0.13501335000E+03  0.00000000000E+00 0.  1.
         -1    1    1    2    0  503 -0.17327931009E+03 -0.23506450617E+03  0.14691345358E+04  0.14978776071E+04  0.00000000000E+00 0.  1.
<mgrwt>
<rscale>  4 0.31613097E+03</rscale>
<asrwt>0</asrwt>
<pdfrwt beam="1">  1       21 0.42835761E-01 0.31613097E+03</pdfrwt>
<pdfrwt beam="2">  1       -1 0.25698903E+00 0.31613097E+03</pdfrwt>
<totfact> 0.33351019E+01</totfact>
</mgrwt>
</event>
<event>
 5    0  0.3040647E+000  0.4268377E+03  0.7546771E-02  0.1034864E+00
          4   -1    0    0  502    0 -0.00000000000E+00  0.00000000000E+00  0.38217482358E+03  0.38217482358E+03  0.00000000000E+00 0.  1.
         21   -1    0    0  503  502  0.00000000000E+00 -0.00000000000E+00 -0.82755016071E+03  0.82755016071E+03  0.00000000000E+00 0. -1.
         25    1    1    2    0    0 -0.38832946881E+03  0.12899770869E+03 -0.55886653093E+03  0.70384443209E+03  0.12500000000E+03 0.  0.
         21    1    1    2  503  501 -0.48562752772E+01 -0.20100612693E+02 -0.59306834910E+02  0.62808587846E+02  0.00000000000E+00 0. -1.
          4    1    1    2  501    0  0.39318574409E+03 -0.10889709600E+03  0.17279802871E+03  0.44307196436E+03  0.00000000000E+00 0.  1.
<mgrwt>
<rscale>  4 0.42683773E+03</rscale>
<asrwt>0</asrwt>
<pdfrwt beam="1">  1       21 0.12731541E+00 0.42683773E+03</pdfrwt>
<pdfrwt beam="2">  1        4 0.58796127E-01 0.42683773E+03</pdfrwt>
<totfact> 0.49701067E+01</totfact>
</mgrwt>
</event>
<event>
 5    0  0.3040647E+000  0.3117235E+03  0.7546771E-02  0.1079523E+00
          2   -1    0    0  502    0 -0.00000000000E+00  0.00000000000E+00  0.76510520308E+03  0.76510520308E+03  0.00000000000E+00 0.  1.
         21   -1    0    0  503  502  0.00000000000E+00 -0.00000000000E+00 -0.13014104375E+03  0.13014104375E+03  0.00000000000E+00 0.  1.
         25    1    1    2    0    0  0.75450345629E+02 -0.27541571065E+03  0.45323077550E+03  0.55008154322E+03  0.12500000000E+03 0.  0.
         21    1    1    2  503  501 -0.70969994276E+02  0.21277060497E+03  0.10997983636E+03  0.24980719532E+03  0.00000000000E+00 0.  1.
          2    1    1    2  501    0 -0.44803513524E+01  0.62645105681E+02  0.71753547465E+02  0.95357508293E+02  0.00000000000E+00 0.  1.
<mgrwt>
<rscale>  4 0.31172354E+03</rscale>
<asrwt>0</asrwt>
<pdfrwt beam="1">  1       21 0.20021700E-01 0.31172354E+03</pdfrwt>
<pdfrwt beam="2">  1        2 0.11770849E+00 0.31172354E+03</pdfrwt>
<totfact> 0.10641992E+04</totfact>
</mgrwt>
</event>
<event>
 5    0  0.3040647E+000  0.2361431E+03  0.7546771E-02  0.1122389E+00
         21   -1    0    0  503  502  0.00000000000E+00  0.00000000000E+00  0.98967228792E+03  0.98967228792E+03  0.00000000000E+00 0.  1.
          1   -1    0    0  502    0 -0.00000000000E+00 -0.00000000000E+00 -0.19423142075E+03  0.19423142075E+03  0.00000000000E+00 0. -1.
         25    1    1    2    0    0 -0.14664386235E+03  0.22031779969E+03  0.69577469326E+03  0.75483228535E+03  0.12500000000E+03 0.  0.
         21    1    1    2  503  501 -0.21614500157E+02 -0.11872450621E+03  0.18002394559E+03  0.21672866903E+03  0.00000000000E+00 0.  1.
          1    1    1    2  501    0  0.16825836250E+03 -0.10159329348E+03 -0.80357771680E+02  0.21234275430E+03  0.00000000000E+00 0. -1.
<mgrwt>
<rscale>  4 0.23614314E+03</rscale>
<asrwt>0</asrwt>
<pdfrwt beam="1">  1       21 0.15225727E+00 0.23614314E+03</pdfrwt>
<pdfrwt beam="2">  1        1 0.29881758E-01 0.23614314E+03</pdfrwt>
<totfact> 0.46188182E+02</totfact>
</mgrwt>
</event>
<event>
 5    0  0.3040647E+000  0.2797134E+03  0.7546771E-02  0.1095846E+00
         21   -1    0    0  503  502  0.00000000000E+00  0.00000000000E+00  0.92133604292E+02  0.92133604292E+02  0.00000000000E+00 0. -1.
          2   -1    0    0  502    0 -0.00000000000E+00 -0.00000000000E+00 -0.92217950189E+03  0.92217950189E+03  0.00000000000E+00 0. -1.
         25    1    1    2    0    0 -0.18319630623E+03  0.18225696476E+03 -0.28357845922E+03  0.40350988879E+03  0.12500000000E+03 0.  0.
         21    1    1    2  503  501  0.16198855395E+03 -0.17628315438E+03 -0.42894273344E+03  0.49123101561E+03  0.00000000000E+00 0. -1.
          2    1    1    2  501    0  0.21207752283E+02 -0.59738103800E+01 -0.11752470494E+03  0.11957220178E+03  0.00000000000E+00 0. -1.
<mgrwt>
<rscale>  4 0.27971338E+03</rscale>
<asrwt>0</asrwt>
<pdfrwt beam="1">  1       21 0.14174400E-01 0.27971338E+03</pdfrwt>
<pdfrwt beam="2">  1        2 0.14187377E+00 0.27971338E+03</pdfrwt>
<totfact> 0.15918513E+04</totfact>
</mgrwt>
</event>
<event>
 5    0  0.3040647E+000  0.2202017E+03  0.7546771E-02  0.1133733E+00
         21   -1    0    0  503  502  0.00000000000E+00  0.00000000000E+00  0.34874979022E+03  0.34874979022E+03  0.00000000000E+00 0. -1.
          1   -1    0    0  502    0 -0.00000000000E+00 -0.00000000000E+00 -0.99215643815E+03  0.99215643815E+03  0.00000000000E+00 0. -1.
         25    1    1    2    0    0  0.46513466553E+02 -0.19843369016E+03  0.12456881371E+02  0.23941513289E+03  0.12500000000E+03 0.  0.
         21    1    1    2  503  501 -0.68595575879E+02  0.16111989307E+03  0.18776436231E+03  0.25674973949E+03  0.00000000000E+00 0. -1.
          1    1    1    2  501    0  0.22082109325E+02  0.37313797091E+02 -0.84362789161E+03  0.84474135598E+03  0.00000000000E+00 0. -1.
<mgrwt>
<rscale>  4 0.22020167E+03</rscale>
<asrwt>0</asrwt>
<pdfrwt beam="1">  1       21 0.53653815E-01 0.22020167E+03</pdfrwt>
<pdfrwt beam="2">  1        1 0.15263945E+00 0.22020167E+03</pdfrwt>
<totfact> 0.58862836E+02</totfact>
</mgrwt>
</event>
<event>
 5    0  0.3040647E+000  0.3659162E+03  0.7546771E-02  0.1056266E+00
          1   -1    0    0  502    0 -0.00000000000E+00  0.00000000000E+00  0.14751031954E+04  0.14751031954E+04  0.00000000000E+00 0. -1.
         21   -1    0    0  503  502  0.00000000000E+00 -0.00000000000E+00 -0.89646307249E+03  0.89646307249E+03  0.00000000000E+00 0. -1.
         25    1    1    2    0    0  0.27107070084E+03  0.10736202042E+03 -0.62233542465E+03  0.69852151653E+03  0.12500000000E+03 0.  0.
         21    1    1    2  503  501 -0.16100771946E+02  0.12679740278E+03 -0.19590170020E+03  0.23391086411E+03  0.00000000000E+00 0.  1.
          1    1    1    2  501    0 -0.25496992889E+03 -0.23415942320E+03  0.13968772478E+04  0.14391338873E+04  0.00000000000E+00 0. -1.
<mgrwt>
<rscale>  4 0.36591623E+03</rscale>
<asrwt>0</asrwt>
<pdfrwt beam="1">  1       21 0.13791740E+00 0.36591623E+03</pdfrwt>
<pdfrwt beam="2">  1        1 0.22693895E+00 0.36591623E+03</pdfrwt>
<totfact> 0.27364623E+01</totfact>
</mgrwt>
</event>
<event>
 5    0  0.3040647E+000  0.2908306E+03  0.7546771E-02  0.1089916E+00
         21   -1    0    0  501  502  0.00000000000E+00  0.00000000000E+00  0.82436459250E+03  0.82436459250E+03  0.00000000000E+00 0.  1.
         -4   -1    0    0    0  501 -0.00000000000E+00 -0.00000000000E+00 -0.95331910933E+03  0.95331910933E+03  0.00000000000E+00 0. -1.
         25    1    1    2    0    0 -0.16437606062E+03 -0.19028240339E+03  0.34487566102E+03  0.44473711775E+03  0.12500000000E+03 0.  0.
         21    1    1    2  503  502 -0.36225572927E+02  0.19770980473E+02  0.40931652131E+03  0.41139178215E+03  0.00000000000E+00 0.  1.
         -4    1    1    2    0  503  0.20060163355E+03  0.17051142292E+03 -0.88314669915E+03  0.92155480193E+03  0.00000000000E+00 0. -1.
<mgrwt>
<rscale>  4 0.29083056E+03</rscale>
<asrwt>0</asrwt>
<pdfrwt beam="1">  1       21 0.12682532E+00 0.29083056E+03</pdfrwt>
<pdfrwt beam="2">  1       -4 0.14666448E+00 0.29083056E+03</pdfrwt>
<totfact> 0.61772537E+00</totfact>
</mgrwt>
</event>
<event>
 5    0  0.3040647E+000  0.1924725E+03  0.7546771E-02  0.1156250E+00
          2   -1    0    0  502    0 -0.00000000000E+00  0.00000000000E+00  0.18329369605E+04  0.18329369605E+04  0.00000000000E+00 0. -1.
         21   -1    0    0  503  502  0.00000000000E+00 -0.00000000000E+00 -0.16381279268E+03  0.16381279268E+03  0.00000000000E+00 0. -1.
         25    1    1    2    0    0 -0.21188832381E+03  0.38520129023E+02  0.35822064364E+03  0.43626539129E+03  0.12500000000E+03 0.  0.
         21    1    1    2  503  501  0.13848277416E+03 -0.17246440857E+02 -0.84399700304E+02  0.16308963141E+03  0.00000000000E+00 0. -1.
          2    1    1    2  501    0  0.73405549653E+02 -0.21273688166E+02  0.13953032245E+04  0.13973947305E+04  0.00000000000E+00 0. -1.
<mgrwt>
<rscale>  4 0.19247255E+03</rscale>
<asrwt>0</asrwt>
<pdfrwt beam="1">  1       21 0.25201969E-01 0.19247255E+03</pdfrwt>
<pdfrwt beam="2">  1        2 0.28199029E+00 0.19247255E+03</pdfrwt>
<totfact> 0.17548218E+03</totfact>
</mgrwt>
</event>
<event>
 5    0  0.3040647E+000  0.2023983E+03  0.7546771E-02  0.1147731E+00
          1   -1    0    0  502    0 -0.00000000000E+00  0.00000000000E+00  0.19680895660E+04  0.19680895660E+04  0.00000000000E+00 0.  1.
         21   -1    0    0  503  502  0.00000000000E+00 -0.00000000000E+00 -0.70775070171E+02  0.70775070171E+02  0.00000000000E+00 0.  1.
         25    1    1    2    0    0  0.15445993093E+03 -0.13041274174E+03  0.17062868108E+03  0.29258246748E+03  0.12500000000E+03 0.  0.
         21    1    1    2  503  501 -0.33366435871E+02  0.31161218930E+02  0.79537380167E+02  0.91708971490E+02  0.00000000000E+00 0.  1.
          1    1    1    2  501    0 -0.12109349506E+03  0.99251522814E+02  0.16471484346E+04  0.16545731972E+04  0.00000000000E+00 0.  1.
<mgrwt>
<rscale>  4 0.20239834E+03</rscale>
<asrwt>0</asrwt>
<pdfrwt beam="1">  1       21 0.10888474E-01 0.20239834E+03</pdfrwt>
<pdfrwt beam="2">  1        1 0.30278297E+00 0.20239834E+03</pdfrwt>
<totfact> 0.28111732E+03</totfact>
</mgrwt>
</event>
<event>
 5    0  0.3040647E+000  0.3443419E+03  0.7546771E-02  0.1064962E+00
          3   -1    0    0  502    0 -0.00000000000E+00  0.00000000000E+00  0.35670189342E+03  0.35670189342E+03  0.00000000000E+00 0. -1.
         21   -1    0    0  503  502  0.00000000000E+00 -0.00000000000E+00 -0.65962310498E+03  0.65962310498E+03  0.00000000000E+00 0. -1.
         25    1    1    2    0    0  0.27220314650E+03  0.13032945027E+03 -0.36538094339E+03  0.49011075520E+03  0.12500000000E+03 0.  0.
         21    1    1    2  503  501  0.49419412117E+01  0.39769760619E+02 -0.13834245682E+03  0.14403017740E+03  0.00000000000E+00 0. -1.
          3    1    1    2  501    0 -0.27714508771E+03 -0.17009921089E+03  0.20080218866E+03  0.38218406580E+03  0.00000000000E+00 0. -1.
<mgrwt>
<rscale>  4 0.34434191E+03</rscale>
<asrwt>0</asrwt>
<pdfrwt beam="1">  1       21 0.10148048E+00 0.34434191E+03</pdfrwt>
<pdfrwt beam="2">  1        3 0.54877215E-01 0.34434191E+03</pdfrwt>
<totfact> 0.12376884E+02</totfact>
</mgrwt>
</event>
<event>
 5    0  0.3040647E+000  0.4074417E+03  0.7546771E-02  0.1041233E+00
          1   -1    0    0  502    0 -0.00000000000E+00  0.00000000000E+00  0.62777342832E+03  0.62777342832E+03  0.00000000000E+00 0.  1.
         21   -1    0    0  503  502  0.00000000000E+00 -0.00000000000E+00 -0.10236487939E+04  0.10236487939E+04  0.00000000000E+00 0.  1.
         25    1    1    2    0    0  0.23379463170E+03 -0.25848922551E+03 -0.72826581564E+03  0.81699002916E+03  0.12500000000E+03 0.  0.
         21    1    1    2  503  501 -0.10278171263E+02 -0.62794250903E+02 -0.17927921746E+03  0.19023615998E+03  0.00000000000E+00 0.  1.
          1    1    1    2  501    0 -0.22351646043E+03  0.32128347641E+03  0.51166966755E+03  0.64419603305E+03  0.00000000000E+00 0.  1.
<mgrwt>
<rscale>  4 0.40744166E+03</rscale>
<asrwt>0</asrwt>
<pdfrwt beam="1">  1       21 0.15748443E+00 0.40744166E+03</pdfrwt>
<pdfrwt beam="2">  1        1 0.96580528E-01 0.40744166E+03</pdfrwt>
<totfact> 0.84398031E+01</totfact>
</mgrwt>
</event>
<event>
 5    0  0.3040647E+000  0.2447820E+03  0.7546771E-02  0.1116648E+00
         21   -1    0    0  501  502  0.00000000000E+00  0.00000000000E+00  0.58935770984E+03  0.58935770984E+03  0.00000000000E+00 0. -1.
         -3   -1    0    0    0  501 -0.00000000000E+00 -0.00000000000E+00 -0.20035218051E+03  0.20035218051E+03  0.00000000000E+00 0.  1.
         25    1    1    2    0    0  0.20535724740E+03 -0.14482892872E+03  0.35452035771E+03  0.45216888624E+03  0.12500000000E+03 0.  0.
         21    1    1    2  503  502 -0.55711968593E+02  0.68867679416E+01  0.10753454942E+03  0.12130511257E+03  0.00000000000E+00 0.  1.
         -3    1    1    2    0  503 -0.14964527881E+03  0.13794216078E+03 -0.73049377799E+02  0.21623589153E+03  0.00000000000E+00 0.  1.
<mgrwt>
<rscale>  4 0.24478204E+03</rscale>
<asrwt>0</asrwt>
<pdfrwt beam="1">  1       21 0.90670416E-01 0.24478204E+03</pdfrwt>
<pdfrwt beam="2">  1       -3 0.30823413E-01 0.24478204E+03</pdfrwt>
<totfact> 0.51402482E+02</totfact>
</mgrwt>
</event>
<event>
 5    0  0.3040647E+000  0.2631084E+03  0.7546771E-02  0.1105290E+00
          1   -1    0    0  502    0 -0.00000000000E+00  0.00000000000E+00  0.21291250423E+04  0.21291250423E+04  0.00000000000E+00 0. -1.
         21   -1    0    0  503  502  0.00000000000E+00 -0.00000000000E+00 -0.89392519489E+03  0.89392519489E+03  0.00000000000E+00 0.  1.
         25    1    1    2    0    0 -0.31787753083E+02 -0.22082217368E+03  0.56584909701E+03  0.62095337524E+03  0.12500000000E+03 0.  0.
         21    1    1    2  503  501  0.24089660319E+02 -0.13644976877E+02 -0.85718927565E+03  0.85763625822E+03  0.00000000000E+00 0.  1.
          1    1    1    2  501    0  0.76980927637E+01  0.23446715055E+03  0.15265400260E+04  0.15444606037E+04  0.00000000000E+00 0. -1.
<mgrwt>
<rscale>  4 0.26310843E+03</rscale>
<asrwt>0</asrwt>
<pdfrwt beam="1">  1       21 0.13752695E+00 0.26310843E+03</pdfrwt>
<pdfrwt beam="2">  1        1 0.32755770E+00 0.26310843E+03</pdfrwt>
<totfact> 0.11060374E+01</totfact>
</mgrwt>
</event>
<event>
 5    0  0.3040647E+000  0.2747370E+03  0.7546771E-02  0.1098599E+00
         21   -1    0    0  503  502  0.00000000000E+00  0.00000000000E+00  0.39252796928E+02  0.39252796928E+02  0.00000000000E+00 0.  1.
          2   -1    0    0  502    0 -0.00000000000E+00 -0.00000000000E+00 -0.26321441484E+04  0.26321441484E+04  0.00000000000E+00 0. -1.
         25    1    1    2    0    0 -0.50459381758E+02 -0.26556278764E+03 -0.75971329721E+03  0.81600186112E+03  0.12500000000E+03 0.  0.
         21    1    1    2  503  501 -0.44120468478E+01  0.34642321560E+02 -0.97537302581E+02  0.10360058878E+03  0.00000000000E+00 0.  1.
          2    1    1    2  501    0  0.54871428606E+02  0.23092046608E+03 -0.17356407517E+04  0.17517944954E+04  0.00000000000E+00 0. -1.
<mgrwt>
<rscale>  4 0.27473704E+03</rscale>
<asrwt>0</asrwt>
<pdfrwt beam="1">  1       21 0.60388909E-02 0.27473704E+03</pdfrwt>
<pdfrwt beam="2">  1        2 0.40494532E+00 0.27473704E+03</pdfrwt>
<totfact> 0.83557368E+03</totfact>
</mgrwt>
</event>
<event>
 5    0  0.3040647E+000  0.1744568E+03  0.7546771E-02  0.1173278E+00
          1   -1    0    0  502    0 -0.00000000000E+00  0.00000000000E+00  0.13242404621E+04  0.13242404621E+04  0.00000000000E+00 0. -1.
         21   -1    0    0  503  502  0.00000000000E+00 -0.00000000000E+00 -0.61215080311E+03  0.61215080311E+03  0.00000000000E+00 0. -1.
         25    1    1    2    0    0  0.49330004864E+02 -0.20324842945E+03 -0.18566251209E+03  0.30633142485E+03  0.12500000000E+03 0.  0.
         21    1    1    2  503  501 -0.36345052093E+02  0.83260293740E+02 -0.35757974281E+03  0.36893971295E+03  0.00000000000E+00 0. -1.
          1    1    1    2  501    0 -0.12984952771E+02  0.11998813571E+03  0.12553319139E+04  0.12611201274E+04  0.00000000000E+00 0. -1.
<mgrwt>
<rscale>  4 0.17445683E+03</rscale>
<asrwt>0</asrwt>
<pdfrwt beam="1">  1       21 0.94177047E-01 0.17445683E+03</pdfrwt>
<pdfrwt beam="2">  1        1 0.20372930E+00 0.17445683E+03</pdfrwt>
<totfact> 0.10234729E+02</totfact>
</mgrwt>
</event>
<event>
 5    0  0.3040647E+000  0.3317775E+03  0.7546771E-02  0.1070353E+00
         21   -1    0    0  503  502  0.00000000000E+00  0.00000000000E+00  0.10831213487E+03  0.10831213487E+03  0.00000000000E+00 0.  1.
          2   -1    0    0  502    0 -0.00000000000E+00 -0.00000000000E+00 -0.11152099408E+04  0.11152099408E+04  0.00000000000E+00 0. -1.
         25    1    1    2    0    0  0.10181393488E+03 -0.27085786610E+03 -0.31848959569E+03  0.44809673456E+03  0.12500000000E+03 0.  0.
         21    1    1    2  503  501  0.15762328725E+02 -0.23778906221E+02 -0.17952788278E+02  0.33707417505E+02  0.00000000000E+00 0.  1.
          2    1    1    2  501    0 -0.11757626361E+03  0.29463677232E+03 -0.67045542201E+03  0.74171792365E+03  0.00000000000E+00 0. -1.
<mgrwt>
<rscale>  4 0.33177754E+03</rscale>
<asrwt>0</asrwt>
<pdfrwt beam="1">  1       21 0.16663405E-01 0.33177754E+03</pdfrwt>
<pdfrwt beam="2">  1        2 0.17157076E+00 0.33177754E+03</pdfrwt>
<totfact> 0.89012123E+03</totfact>
</mgrwt>
</event>
<event>
 5    0  0.3040647E+000  0.1895055E+03  0.7546771E-02  0.1158908E+00
          2   -1    0    0  502    0 -0.00000000000E+00  0.00000000000E+00  0.84388985059E+03  0.84388985059E+03  0.00000000000E+00 0.  1.
         21   -1    0    0  503  502  0.00000000000E+00 -0.00000000000E+00 -0.29525600717E+03  0.29525600717E+03  0.00000000000E+00 0. -1.
         25    1    1    2    0    0  0.20844993825E+03  0.17557441961E+03 -0.15390814727E+03  0.33703185513E+03  0.12500000000E+03 0.  0.
         21    1    1    2  503  501 -0.10490313322E+03 -0.83590739440E+02  0.63811448457E+02  0.14853948981E+03  0.00000000000E+00 0. -1.
          2    1    1    2  501    0 -0.10354680503E+03 -0.91983680169E+02  0.63873054222E+03  0.65357451283E+03  0.00000000000E+00 0.  1.
<mgrwt>
<rscale>  4 0.18950552E+03</rscale>
<asrwt>0</asrwt>
<pdfrwt beam="1">  1       21 0.45424001E-01 0.18950552E+03</pdfrwt>
<pdfrwt beam="2">  1        2 0.12982921E+00 0.18950552E+03</pdfrwt>
<totfact> 0.19515501E+03</totfact>
</mgrwt>
</event>
<event>
 5    0  0.3040647E+000  0.4093273E+03  0.7546771E-02  0.1040597E+00
          2   -1    0    0  502    0 -0.00000000000E+00  0.00000000000E+00  0.13778108416E+04  0.13778108416E+04  0.00000000000E+00 0.  1.
         21   -1    0    0  503  502  0.00000000000E+00 -0.00000000000E+00 -0.23940931603E+03  0.23940931603E+03  0.00000000000E+00 0.  1.
         25    1    1    2    0    0  0.35796073792E+03  0.11945795540E+03  0.12286208666E+02  0.39772106296E+03  0.12500000000E+03 0.  0.
         21    1    1    2  503  501  0.18823620116E+02 -0.11485506301E+02 -0.48186266439E+01  0.22571324551E+02  0.00000000000E+00 0.  1.
          2    1    1    2  501    0 -0.37678435804E+03 -0.10797244910E+03  0.11309339435E+04  0.11969277701E+04  0.00000000000E+00 0.  1.
<mgrwt>
<rscale>  4 0.40932726E+03</rscale>
<asrwt>0</asrwt>
<pdfrwt beam="1">  1       21 0.36832203E-01 0.40932726E+03</pdfrwt>
<pdfrwt beam="2">  1        2 0.21197090E+00 0.40932726E+03</pdfrwt>
<totfact> 0.13275052E+03</totfact>
</mgrwt>
</event>
<event>
 5    0  0.3040647E+000  0.2621072E+03  0.7546771E-02  0.1105884E+00
         21   -1    0    0  503  502  0.00000000000E+00  0.00000000000E+00  0.55539553181E+03  0.55539553181E+03  0.00000000000E+00 0.  1.
          1   -1    0    0  502    0 -0.00000000000E+00 -0.00000000000E+00 -0.58840404241E+03  0.58840404241E+03  0.00000000000E+00 0. -1.
         25    1    1    2    0    0 -0.13397438088E+03 -0.15788846341E+03 -0.34973225588E+02  0.24438909165E+03  0.12500000000E+03 0.  0.
         21    1    1    2  503  501 -0.19392248776E+02 -0.23293967198E+02  0.41870766806E+03  0.41980326287E+03  0.00000000000E+00 0.  1.
          1    1    1    2  501    0  0.15336662966E+03  0.18118243060E+03 -0.41674295307E+03  0.47960721970E+03  0.00000000000E+00 0. -1.
<mgrwt>
<rscale>  4 0.26210720E+03</rscale>
<asrwt>0</asrwt>
<pdfrwt beam="1">  1       21 0.85445467E-01 0.26210720E+03</pdfrwt>
<pdfrwt beam="2">  1        1 0.90523698E-01 0.26210720E+03</pdfrwt>
<totfact> 0.45668293E+02</totfact>
</mgrwt>
</event>
<event>
 5    0  0.3040647E+000  0.2243770E+03  0.7546771E-02  0.1130661E+00
         21   -1    0    0  503  502  0.00000000000E+00  0.00000000000E+00  0.35925252620E+03  0.35925252620E+03  0.00000000000E+00 0. -1.
          2   -1    0    0  502    0 -0.00000000000E+00 -0.00000000000E+00 -0.32831920267E+03  0.32831920267E+03  0.00000000000E+00 0. -1.
         25    1    1    2    0    0  0.23409720390E+03 -0.39118478749E+02 -0.11998254835E+02  0.26851576187E+03  0.12500000000E+03 0.  0.
         21    1    1    2  503  501 -0.13441425824E+03  0.11892980656E+03  0.16397758013E+03  0.24310520047E+03  0.00000000000E+00 0. -1.
          2    1    1    2  501    0 -0.99682945658E+02 -0.79811327815E+02 -0.12104600177E+03  0.17595076654E+03  0.00000000000E+00 0. -1.
<mgrwt>
<rscale>  4 0.22437695E+03</rscale>
<asrwt>0</asrwt>
<pdfrwt beam="1">  1       21 0.55269619E-01 0.22437695E+03</pdfrwt>
<pdfrwt beam="2">  1        2 0.50510647E-01 0.22437695E+03</pdfrwt>
<totfact> 0.37603143E+03</totfact>
</mgrwt>
</event>
<event>
 5    0  0.3040647E+000  0.2511993E+03  0.7546771E-02  0.1112549E+00
         21   -1    0    0  503  502  0.00000000000E+00  0.00000000000E+00  0.39820124903E+03  0.39820124903E+03  0.00000000000E+00 0. -1.
          3   -1    0    0  502    0 -0.00000000000E+00 -0.00000000000E+00 -0.45323282444E+03  0.45323282444E+03  0.00000000000E+00 0. -1.
         25    1    1    2    0    0  0.18353370356E+02  0.20263016384E+03  0.24464707632E+03  0.34186696455E+03  0.12500000000E+03 0.  0.
         21    1    1    2  503  501  0.92680182094E+02 -0.11054822498E+02  0.42049821881E+02  0.10237193353E+03  0.00000000000E+00 0. -1.
          3    1    1    2  501    0 -0.11103355245E+03 -0.19157534134E+03 -0.34172847361E+03  0.40719517539E+03  0.00000000000E+00 0. -1.
<mgrwt>
<rscale>  4 0.25119934E+03</rscale>
<asrwt>0</asrwt>
<pdfrwt beam="1">  1       21 0.61261730E-01 0.25119934E+03</pdfrwt>
<pdfrwt beam="2">  1        3 0.69728127E-01 0.25119934E+03</pdfrwt>
<totfact> 0.24217036E+02</totfact>
</mgrwt>
</event>
<event>
 5    0  0.3040647E+000  0.2742209E+03  0.7546771E-02  0.1098888E+00
          1   -1    0    0  502    0 -0.00000000000E+00  0.00000000000E+00  0.23075039997E+03  0.23075039997E+03  0.00000000000E+00 0.  1.
         21   -1    0    0  503  502  0.00000000000E+00 -0.00000000000E+00 -0.39512927479E+03  0.39512927479E+03  0.00000000000E+00 0.  1.
         25    1    1    2    0    0 -0.20938242810E+03 -0.14714200914E+03 -0.18551717286E+03  0.33990203512E+03  0.12500000000E+03 0.  0.
         21    1    1    2  503  501  0.52667503467E+02 -0.19386550993E+02  0.10212227142E+02  0.57043789005E+02  0.00000000000E+00 0.  1.
          1    1    1    2  501    0  0.15671492463E+03  0.16652856013E+03  0.10926070900E+02  0.22893385064E+03  0.00000000000E+00 0.  1.
<mgrwt>
<rscale>  4 0.27422092E+03</rscale>
<asrwt>0</asrwt>
<pdfrwt beam="1">  1       21 0.60789119E-01 0.27422092E+03</pdfrwt>
<pdfrwt beam="2">  1        1 0.35500062E-01 0.27422092E+03</pdfrwt>
<totfact> 0.32692898E+03</totfact>
</mgrwt>
</event>
<event>
 5    0  0.3040647E+000  0.2291276E+03  0.7546771E-02  0.1127255E+00
          2   -1    0    0  502    0 -0.00000000000E+00  0.00000000000E+00  0.13021490081E+04  0.13021490081E+04  0.00000000000E+00 0.  1.
         21   -1    0    0  503  502  0.00000000000E+00 -0.00000000000E+00 -0.45281669941E+03  0.45281669941E+03  0.00000000000E+00 0. -1.
         25    1    1    2    0    0 -0.17439501503E+03 -0.15217376332E+03 -0.23782962752E+03  0.35462431845E+03  0.12500000000E+03 0.  0.
         21    1    1    2  503  501  0.16172688497E+02  0.45025780778E+02 -0.14539279355E+03  0.15306188684E+03  0.00000000000E+00 0. -1.
          2    1    1    2  501    0  0.15822232653E+03  0.10714798254E+03  0.12325547298E+04  0.12472795022E+04  0.00000000000E+00 0.  1.
<mgrwt>
<rscale>  4 0.22912758E+03</rscale>
<asrwt>0</asrwt>
<pdfrwt beam="1">  1       21 0.69664108E-01 0.22912758E+03</pdfrwt>
<pdfrwt beam="2">  1        2 0.20033062E+00 0.22912758E+03</pdfrwt>
<totfact> 0.40916323E+02</totfact>
</mgrwt>
</event>
<event>
 5    0  0.3040647E+000  0.3638194E+03  0.7546771E-02  0.1057082E+00
          1   -1    0    0  502    0 -0.00000000000E+00  0.00000000000E+00  0.68409062531E+03  0.68409062531E+03  0.00000000000E+00 0.  1.
         21   -1    0    0  503  502  0.00000000000E+00 -0.00000000000E+00 -0.92571922396E+03  0.92571922396E+03  0.00000000000E+00 0.  1.
         25    1    1    2    0    0  0.33715880257E+03  0.88357386131E+02 -0.35749489941E+03  0.51469475317E+03  0.12500000000E+03 0.  0.
         21    1    1    2  503  501 -0.84072001319E+00 -0.31728273887E+02 -0.44098294445E+03  0.44212367893E+03  0.00000000000E+00 0.  1.
          1    1    1    2  501    0 -0.33631808256E+03 -0.56629112244E+02  0.55684924522E+03  0.65299141718E+03  0.00000000000E+00 0.  1.
<mgrwt>
<rscale>  4 0.36381942E+03</rscale>
<asrwt>0</asrwt>
<pdfrwt beam="1">  1       21 0.14241834E+00 0.36381942E+03</pdfrwt>
<pdfrwt beam="2">  1        1 0.10524471E+00 0.36381942E+03</pdfrwt>
<totfact> 0.99683603E+01</totfact>
</mgrwt>
</event>
<event>
 5    0  0.3040647E+000  0.3462622E+03  0.7546771E-02  0.1064160E+00
         21   -1    0    0  501  502  0.00000000000E+00  0.00000000000E+00  0.12662658186E+03  0.12662658186E+03  0.00000000000E+00 0.  1.
         -1   -1    0    0    0  501 -0.00000000000E+00 -0.00000000000E+00 -0.16432058512E+04  0.16432058512E+04  0.00000000000E+00 0. -1.
         25    1    1    2    0    0 -0.23867899019E+03  0.22428567805E+03 -0.22329127037E+03  0.41563892642E+03  0.12500000000E+03 0.  0.
         21    1    1    2  503  502 -0.10419426396E+02 -0.20096261569E+02 -0.13133144933E+01  0.22674853262E+02  0.00000000000E+00 0.  1.
         -1    1    1    2    0  503  0.24909841658E+03 -0.20418941648E+03 -0.12919746845E+04  0.13315186534E+04  0.00000000000E+00 0. -1.
<mgrwt>
<rscale>  4 0.34626225E+03</rscale>
<asrwt>0</asrwt>
<pdfrwt beam="1">  1       21 0.19481013E-01 0.34626225E+03</pdfrwt>
<pdfrwt beam="2">  1       -1 0.25280089E+00 0.34626225E+03</pdfrwt>
<totfact> 0.16506914E+02</totfact>
</mgrwt>
</event>
<event>
 5    0  0.3040647E+000  0.2488809E+03  0.7546771E-02  0.1114014E+00
          2   -1    0    0  502    0 -0.00000000000E+00  0.00000000000E+00  0.11286368743E+04  0.11286368743E+04  0.00000000000E+00 0. -1.
         21   -1    0    0  503  502  0.00000000000E+00 -0.00000000000E+00 -0.86580447779E+02  0.86580447779E+02  0.00000000000E+00 0. -1.
         25    1    1    2    0    0 -0.23277166572E+03 -0.22436918684E+02  0.26292169792E+03  0.37341516161E+03  0.12500000000E+03 0.  0.
         21    1    1    2  503  501  0.43640255849E+02 -0.76609634906E+02  0.11968727691E+03  0.14865581841E+03  0.00000000000E+00 0.  1.
          2    1    1    2  501    0  0.18913140987E+03  0.99046553590E+02  0.65944745165E+03  0.69314634203E+03  0.00000000000E+00 0. -1.
<mgrwt>
<rscale>  4 0.24888092E+03</rscale>
<asrwt>0</asrwt>
<pdfrwt beam="1">  1       21 0.13320070E-01 0.24888092E+03</pdfrwt>
<pdfrwt beam="2">  1        2 0.17363643E+00 0.24888092E+03</pdfrwt>
<totfact> 0.13436013E+04</totfact>
</mgrwt>
</event>
<event>
 5    0  0.3040647E+000  0.2403429E+03  0.7546771E-02  0.1119565E+00
         21   -1    0    0  503  502  0.00000000000E+00  0.00000000000E+00  0.37502899272E+03  0.37502899272E+03  0.00000000000E+00 0.  1.
          2   -1    0    0  502    0 -0.00000000000E+00 -0.00000000000E+00 -0.18194159746E+04  0.18194159746E+04  0.00000000000E+00 0.  1.
         25    1    1    2    0    0 -0.79960139348E+02 -0.21141587512E+03  0.31093750460E+03  0.40422447712E+03  0.12500000000E+03 0.  0.
         21    1    1    2  503  501 -0.13325785551E+02  0.28922012829E+02 -0.10693190154E+02  0.33591720740E+02  0.00000000000E+00 0.  1.
          2    1    1    2  501    0  0.93285924900E+02  0.18249386229E+03 -0.17446312963E+04  0.17566287694E+04  0.00000000000E+00 0.  1.
<mgrwt>
<rscale>  4 0.24034287E+03</rscale>
<asrwt>0</asrwt>
<pdfrwt beam="1">  1       21 0.57696768E-01 0.24034287E+03</pdfrwt>
<pdfrwt beam="2">  1        2 0.27991015E+00 0.24034287E+03</pdfrwt>
<totfact> 0.32491143E+02</totfact>
</mgrwt>
</event>
<event>
 5    0  0.3040647E+000  0.3361358E+03  0.7546771E-02  0.1068454E+00
         21   -1    0    0  503  502  0.00000000000E+00  0.00000000000E+00  0.99650019492E+02  0.99650019492E+02  0.00000000000E+00 0.  1.
          1   -1    0    0  502    0 -0.00000000000E+00 -0.00000000000E+00 -0.13528401868E+04  0.13528401868E+04  0.00000000000E+00 0.  1.
         25    1    1    2    0    0  0.23112656574E+03  0.13572550487E+03 -0.36779574083E+03  0.47195297333E+03  0.12500000000E+03 0.  0.
         21    1    1    2  503  501  0.69639091230E+02  0.29435492784E+02 -0.12127169932E+03  0.14290862927E+03  0.00000000000E+00 0.  1.
          1    1    1    2  501    0 -0.30076565697E+03 -0.16516099765E+03 -0.76412272711E+03  0.83762860365E+03  0.00000000000E+00 0.  1.
<mgrwt>
<rscale>  4 0.33613577E+03</rscale>
<asrwt>0</asrwt>
<pdfrwt beam="1">  1       21 0.15330772E-01 0.33613577E+03</pdfrwt>
<pdfrwt beam="2">  1        1 0.20812926E+00 0.33613577E+03</pdfrwt>
<totfact> 0.36498375E+03</totfact>
</mgrwt>
</event>
<event>
 5    0  0.3040647E+000  0.1891664E+03  0.7546771E-02  0.1159215E+00
         21   -1    0    0  503  502  0.00000000000E+00  0.00000000000E+00  0.23183863272E+03  0.23183863272E+03  0.00000000000E+00 0. -1.
          2   -1    0    0  502    0 -0.00000000000E+00 -0.00000000000E+00 -0.15046672719E+04  0.15046672719E+04  0.00000000000E+00 0. -1.
         25    1    1    2    0    0 -0.19948403311E+03  0.20057697125E+02 -0.66118477990E+02  0.24534229927E+03  0.12500000000E+03 0.  0.
         21    1    1    2  503  501  0.61569745439E+02  0.17214237827E+01  0.13175202979E+03  0.14543862694E+03  0.00000000000E+00 0. -1.
          2    1    1    2  501    0  0.13791428767E+03 -0.21779120908E+02 -0.13384621910E+04  0.13457249784E+04  0.00000000000E+00 0. -1.
<mgrwt>
<rscale>  4 0.18916636E+03</rscale>
<asrwt>0</asrwt>
<pdfrwt beam="1">  1       21 0.35667482E-01 0.18916636E+03</pdfrwt>
<pdfrwt beam="2">  1        2 0.23148727E+00 0.18916636E+03</pdfrwt>
<totfact> 0.13256002E+03</totfact>
</mgrwt>
</event>
<event>
 5    0  0.3040647E+000  0.4085418E+03  0.7546771E-02  0.1040861E+00
         21   -1    0    0  503  502  0.00000000000E+00  0.00000000000E+00  0.15074720157E+03  0.15074720157E+03  0.00000000000E+00 0.  1.
          2   -1    0    0  502    0 -0.00000000000E+00 -0.00000000000E+00 -0.36201443330E+04  0.36201443330E+04  0.00000000000E+00 0.  1.
         25    1    1    2    0    0  0.40668232054E+03 -0.41956831647E+02 -0.24053496418E+03  0.49054352973E+03  0.12500000000E+03 0.  0.
         21    1    1    2  503  501 -0.22020822735E+02 -0.15508127037E+01  0.56225045607E+01  0.22780127557E+02  0.00000000000E+00 0.  1.
          2    1    1    2  501    0 -0.38466149781E+03  0.43507644351E+02 -0.32344846718E+04  0.32575678773E+04  0.00000000000E+00 0.  1.
<mgrwt>
<rscale>  4 0.40854182E+03</rscale>
<asrwt>0</asrwt>
<pdfrwt beam="1">  1       21 0.23191877E-01 0.40854182E+03</pdfrwt>
<pdfrwt beam="2">  1        2 0.55694528E+00 0.40854182E+03</pdfrwt>
<totfact> 0.16852995E+02</totfact>
</mgrwt>
</event>
<event>
 5    0  0.3040647E+000  0.3913164E+03  0.7546771E-02  0.1046829E+00
          1   -1    0    0  502    0 -0.00000000000E+00  0.00000000000E+00  0.21951883465E+04  0.21951883465E+04  0.00000000000E+00 0. -1.
         21   -1    0    0  503  502  0.00000000000E+00 -0.00000000000E+00 -0.80306024482E+02  0.80306024482E+02  0.00000000000E+00 0. -1.
         25    1    1    2    0    0 -0.38184069727E+03 -0.24425239184E+02  0.76487383353E+03  0.86432395062E+03  0.12500000000E+03 0.  0.
         21    1    1    2  503  501  0.16651538672E+02  0.31750649653E+02  0.55143073179E+02  0.65773368571E+02  0.00000000000E+00 0. -1.
          1    1    1    2  501    0  0.36518915860E+03 -0.73254104697E+01  0.12948654153E+04  0.13453970518E+04  0.00000000000E+00 0. -1.
<mgrwt>
<rscale>  4 0.39131642E+03</rscale>
<asrwt>0</asrwt>
<pdfrwt beam="1">  1       21 0.12354775E-01 0.39131642E+03</pdfrwt>
<pdfrwt beam="2">  1        1 0.33772124E+00 0.39131642E+03</pdfrwt>
<totfact> 0.14784579E+03</totfact>
</mgrwt>
</event>
<event>
 5    0  0.3040647E+000  0.2474030E+03  0.7546771E-02  0.1114957E+00
          2   -1    0    0  502    0 -0.00000000000E+00  0.00000000000E+00  0.12624708397E+04  0.12624708397E+04  0.00000000000E+00 0.  1.
         21   -1    0    0  503  502  0.00000000000E+00 -0.00000000000E+00 -0.99268748174E+02  0.99268748174E+02  0.00000000000E+00 0.  1.
         25    1    1    2    0    0  0.21806747792E+03  0.66779482999E+02  0.12138263155E+03  0.28700464720E+03  0.12500000000E+03 0.  0.
         21    1    1    2  503  501 -0.19753501262E+02  0.71706459138E+01  0.13770341847E+02  0.25124515706E+02  0.00000000000E+00 0.  1.
          2    1    1    2  501    0 -0.19831397666E+03 -0.73950128912E+02  0.10280491181E+04  0.10496104250E+04  0.00000000000E+00 0.  1.
<mgrwt>
<rscale>  4 0.24740297E+03</rscale>
<asrwt>0</asrwt>
<pdfrwt beam="1">  1       21 0.15272116E-01 0.24740297E+03</pdfrwt>
<pdfrwt beam="2">  1        2 0.19422627E+00 0.24740297E+03</pdfrwt>
<totfact> 0.87888275E+03</totfact>
</mgrwt>
</event>
<event>
 5    0  0.3040647E+000  0.3239675E+03  0.7546771E-02  0.1073838E+00
          1   -1    0    0  502    0 -0.00000000000E+00  0.00000000000E+00  0.24180795891E+04  0.24180795891E+04  0.00000000000E+00 0. -1.
         21   -1    0    0  503  502  0.00000000000E+00 -0.00000000000E+00 -0.10165834661E+03  0.10165834661E+03  0.00000000000E+00 0. -1.
         25    1    1    2    0    0  0.26407836095E+03 -0.95029591210E+02  0.26960149313E+03  0.40875172052E+03  0.12500000000E+03 0.  0.
         21    1    1    2  503  501  0.25083395088E+02  0.85370263129E+01 -0.12760080280E+02  0.29408794197E+02  0.00000000000E+00 0. -1.
          1    1    1    2  501    0 -0.28916175604E+03  0.86492564897E+02  0.20595798296E+04  0.20815774210E+04  0.00000000000E+00 0. -1.
<mgrwt>
<rscale>  4 0.32396753E+03</rscale>
<asrwt>0</asrwt>
<pdfrwt beam="1">  1       21 0.15639747E-01 0.32396753E+03</pdfrwt>
<pdfrwt beam="2">  1        1 0.37201220E+00 0.32396753E+03</pdfrwt>
<totfact> 0.69973536E+02</totfact>
</mgrwt>
</event>
<event>
 5    0  0.3040647E+000  0.2029723E+03  0.7546771E-02  0.1147255E+00
          1   -1    0    0  502    0 -0.00000000000E+00  0.00000000000E+00  0.12793846885E+04  0.12793846885E+04  0.00000000000E+00 0.  1.
         21   -1    0    0  503  502  0.00000000000E+00 -0.00000000000E+00 -0.15382082474E+03  0.15382082474E+03  0.00000000000E+00 0. -1.
         25    1    1    2    0    0  0.29408139404E+03 -0.25357732390E+01  0.91988950911E+03  0.97381312654E+03  0.12500000000E+03 0.  0.
         21    1    1    2  503  501 -0.14771927070E+03  0.38365656340E+02 -0.51711098083E+02  0.16114262064E+03  0.00000000000E+00 0. -1.
          1    1    1    2  501    0 -0.14636212334E+03 -0.35829883101E+02  0.25738545277E+03  0.29824976609E+03  0.00000000000E+00 0.  1.
<mgrwt>
<rscale>  4 0.20297226E+03</rscale>
<asrwt>0</asrwt>
<pdfrwt beam="1">  1       21 0.23664743E-01 0.20297226E+03</pdfrwt>
<pdfrwt beam="2">  1        1 0.19682841E+00 0.20297226E+03</pdfrwt>
<totfact> 0.19076958E+03</totfact>
</mgrwt>
</event>
<event>
 5    0  0.3040647E+000  0.5342990E+03  0.7546771E-02  0.1005195E+00
          2   -1    0    0  502    0 -0.00000000000E+00  0.00000000000E+00  0.17689745165E+04  0.17689745165E+04  0.00000000000E+00 0.  1.
         21   -1    0    0  503  502  0.00000000000E+00 -0.00000000000E+00 -0.30890422958E+03  0.30890422958E+03  0.00000000000E+00 0. -1.
         25    1    1    2    0    0 -0.27834395669E+03  0.41426490579E+03  0.34936430944E+03  0.62190931100E+03  0.12500000000E+03 0.  0.
         21    1    1    2  503  501 -0.52185509194E+02 -0.23223253858E+01 -0.11226696009E+03  0.12382483956E+03  0.00000000000E+00 0.  1.
          2    1    1    2  501    0  0.33052946588E+03 -0.41194258041E+03  0.12229729376E+04  0.13321445956E+04  0.00000000000E+00 0.  1.
<mgrwt>
<rscale>  4 0.53429901E+03</rscale>
<asrwt>0</asrwt>
<pdfrwt beam="1">  1       21 0.47523729E-01 0.53429901E+03</pdfrwt>
<pdfrwt beam="2">  1        2 0.27214992E+00 0.53429901E+03</pdfrwt>
<totfact> 0.46277974E+02</totfact>
</mgrwt>
</event>
<event>
 5    0  0.3040647E+000  0.2067740E+03  0.7546771E-02  0.1144146E+00
          2   -1    0    0  502    0 -0.00000000000E+00  0.00000000000E+00  0.27139813299E+04  0.27139813299E+04  0.00000000000E+00 0. -1.
         21   -1    0    0  503  502  0.00000000000E+00 -0.00000000000E+00 -0.14514267245E+03  0.14514267245E+03  0.00000000000E+00 0.  1.
         25    1    1    2    0    0  0.16849273313E+03 -0.13551226412E+03  0.33710487764E+02  0.25202137177E+03  0.12500000000E+03 0.  0.
         21    1    1    2  503  501 -0.28846368964E+02  0.50443555568E+02 -0.80580075695E+01  0.58665124109E+02  0.00000000000E+00 0.  1.
          2    1    1    2  501    0 -0.13964636416E+03  0.85068708556E+02  0.25431861773E+04  0.25484375065E+04  0.00000000000E+00 0. -1.
<mgrwt>
<rscale>  4 0.20677401E+03</rscale>
<asrwt>0</asrwt>
<pdfrwt beam="1">  1       21 0.22329644E-01 0.20677401E+03</pdfrwt>
<pdfrwt beam="2">  1        2 0.41753555E+00 0.20677401E+03</pdfrwt>
<totfact> 0.74265543E+02</totfact>
</mgrwt>
</event>
<event>
 5    0  0.3040647E+000  0.2898285E+03  0.7546771E-02  0.1090439E+00
          2   -1    0    0  502    0 -0.00000000000E+00  0.00000000000E+00  0.17247697208E+04  0.17247697208E+04  0.00000000000E+00 0.  1.
         21   -1    0    0  503  502  0.00000000000E+00 -0.00000000000E+00 -0.14537147118E+03  0.14537147118E+03  0.00000000000E+00 0. -1.
         25    1    1    2    0    0  0.20741727354E+03 -0.18950331863E+03  0.18417991696E+03  0.35844201058E+03  0.12500000000E+03 0.  0.
         21    1    1    2  503  501 -0.44107763830E+02 -0.11841805384E+02 -0.35398576278E+02  0.57782197841E+02  0.00000000000E+00 0. -1.
          2    1    1    2  501    0 -0.16330950971E+03  0.20134512401E+03  0.14306169090E+04  0.14539169836E+04  0.00000000000E+00 0.  1.
<mgrwt>
<rscale>  4 0.28982846E+03</rscale>
<asrwt>0</asrwt>
<pdfrwt beam="1">  1       21 0.22364843E-01 0.28982846E+03</pdfrwt>
<pdfrwt beam="2">  1        2 0.26534917E+00 0.28982846E+03</pdfrwt>
<totfact> 0.23929264E+03</totfact>
</mgrwt>
</event>
<event>
 5    0  0.3040647E+000  0.4738300E+03  0.7546771E-02  0.1020845E+00
         21   -1    0    0  503  502  0.00000000000E+00  0.00000000000E+00  0.20385210833E+03  0.20385210833E+03  0.00000000000E+00 0.  1.
          1   -1    0    0  502    0 -0.00000000000E+00 -0.00000000000E+00 -0.15847614682E+04  0.15847614682E+04  0.00000000000E+00 0. -1.
         25    1    1    2    0    0  0.31008449267E+03 -0.29770206032E+03 -0.87112546206E+03  0.97941997119E+03  0.12500000000E+03 0.  0.
         21    1    1    2  503  501  0.94136598099E+02 -0.19273527096E+02 -0.17425674878E+02  0.97656654117E+02  0.00000000000E+00 0.  1.
          1    1    1    2  501    0 -0.40422109077E+03  0.31697558741E+03 -0.49235822289E+03  0.71153695117E+03  0.00000000000E+00 0. -1.
<mgrwt>
<rscale>  4 0.47383002E+03</rscale>
<asrwt>0</asrwt>
<pdfrwt beam="1">  1       21 0.31361861E-01 0.47383002E+03</pdfrwt>
<pdfrwt beam="2">  1        1 0.24380947E+00 0.47383002E+03</pdfrwt>
<totfact> 0.62115999E+02</totfact>
</mgrwt>
</event>
<event>
 5    0  0.3040647E+000  0.3515570E+03  0.7546771E-02  0.1061978E+00
         21   -1    0    0  503  502  0.00000000000E+00  0.00000000000E+00  0.46270455746E+03  0.46270455746E+03  0.00000000000E+00 0.  1.
          1   -1    0    0  502    0 -0.00000000000E+00 -0.00000000000E+00 -0.61866713622E+03  0.61866713622E+03  0.00000000000E+00 0.  1.
         25    1    1    2    0    0 -0.33926105861E+03  0.72966454023E+02  0.28508334563E+03  0.46617559273E+03  0.12500000000E+03 0.  0.
         21    1    1    2  503  501  0.31291286236E+02  0.35047878951E+02  0.19388374643E+02  0.50827231723E+02  0.00000000000E+00 0.  1.
          1    1    1    2  501    0  0.30796977237E+03 -0.10801433297E+03 -0.46043429903E+03  0.56436886923E+03  0.00000000000E+00 0.  1.
<mgrwt>
<rscale>  4 0.35155695E+03</rscale>
<asrwt>0</asrwt>
<pdfrwt beam="1">  1       21 0.71185317E-01 0.35155695E+03</pdfrwt>
<pdfrwt beam="2">  1        1 0.95179559E-01 0.35155695E+03</pdfrwt>
<totfact> 0.62272412E+02</totfact>
</mgrwt>
</event>
<event>
 5    0  0.3040647E+000  0.2608502E+03  0.7546771E-02  0.1106633E+00
         -2   -1    0    0    0  501 -0.00000000000E+00  0.00000000000E+00  0.62645957182E+03  0.62645957182E+03  0.00000000000E+00 0. -1.
         21   -1    0    0  501  502  0.00000000000E+00 -0.00000000000E+00 -0.15722331635E+03  0.15722331635E+03  0.00000000000E+00 0.  1.
         25    1    1    2    0    0  0.23867089194E+03 -0.82015155819E+02  0.18447615927E+03  0.33667006666E+03  0.12500000000E+03 0.  0.
         21    1    1    2  503  502 -0.57760506542E+02 -0.44622015440E+02 -0.15177738700E+02  0.74550413346E+02  0.00000000000E+00 0. -1.
         -2    1    1    2    0  503 -0.18091038540E+03  0.12663717126E+03  0.29993783490E+03  0.37246240816E+03  0.00000000000E+00 0. -1.
<mgrwt>
<rscale>  4 0.26085021E+03</rscale>
<asrwt>0</asrwt>
<pdfrwt beam="1">  1       21 0.24188203E-01 0.26085021E+03</pdfrwt>
<pdfrwt beam="2">  1       -2 0.96378394E-01 0.26085021E+03</pdfrwt>
<totfact> 0.12153499E+03</totfact>
</mgrwt>
</event>
<event>
 5    0  0.3040647E+000  0.2401237E+03  0.7546771E-02  0.1119710E+00
          2   -1    0    0  502    0 -0.00000000000E+00  0.00000000000E+00  0.20245884960E+04  0.20245884960E+04  0.00000000000E+00 0. -1.
         21   -1    0    0  503  502  0.00000000000E+00 -0.00000000000E+00 -0.34271689766E+03  0.34271689766E+03  0.00000000000E+00 0. -1.
         25    1    1    2    0    0  0.21618686576E+03  0.92891296997E+01 -0.21173598453E+03  0.32753652621E+03  0.12500000000E+03 0.  0.
         21    1    1    2  503  501 -0.20258646660E+02  0.50790440722E+02 -0.56672190462E+02  0.78751627317E+02  0.00000000000E+00 0.  1.
          2    1    1    2  501    0 -0.19592821910E+03 -0.60079570422E+02  0.19502797734E+04  0.19610172402E+04  0.00000000000E+00 0. -1.
<mgrwt>
<rscale>  4 0.24012371E+03</rscale>
<asrwt>0</asrwt>
<pdfrwt beam="1">  1       21 0.52725677E-01 0.24012371E+03</pdfrwt>
<pdfrwt beam="2">  1        2 0.31147515E+00 0.24012371E+03</pdfrwt>
<totfact> 0.30743034E+02</totfact>
</mgrwt>
</event>
<event>
 5    0  0.3040647E+000  0.2995805E+03  0.7546771E-02  0.1085451E+00
         21   -1    0    0  503  502  0.00000000000E+00  0.00000000000E+00  0.21888372887E+03  0.21888372887E+03  0.00000000000E+00 0. -1.
          1   -1    0    0  502    0 -0.00000000000E+00 -0.00000000000E+00 -0.63785710115E+03  0.63785710115E+03  0.00000000000E+00 0. -1.
         25    1    1    2    0    0  0.56181127549E+02 -0.28184105235E+03 -0.36535649071E+03  0.48135336624E+03  0.12500000000E+03 0.  0.
         21    1    1    2  503  501 -0.83808858587E+01  0.33865124330E+02  0.81729715131E+02  0.88864122283E+02  0.00000000000E+00 0. -1.
          1    1    1    2  501    0 -0.47800241691E+02  0.24797592802E+03 -0.13534659670E+03  0.28652334149E+03  0.00000000000E+00 0. -1.
<mgrwt>
<rscale>  4 0.29958047E+03</rscale>
<asrwt>0</asrwt>
<pdfrwt beam="1">  1       21 0.33674421E-01 0.29958047E+03</pdfrwt>
<pdfrwt beam="2">  1        1 0.98131859E-01 0.29958047E+03</pdfrwt>
<totfact> 0.29396014E+03</totfact>
</mgrwt>
</event>
<event>
 5    0  0.3040647E+000  0.3427380E+03  0.7546771E-02  0.1065636E+00
         21   -1    0    0  503  502  0.00000000000E+00  0.00000000000E+00  0.51428030573E+03  0.51428030573E+03  0.00000000000E+00 0. -1.
          2   -1    0    0  502    0 -0.00000000000E+00 -0.00000000000E+00 -0.23123141125E+04  0.23123141125E+04  0.00000000000E+00 0. -1.
         25    1    1    2    0    0 -0.25277034708E+03 -0.19888556458E+03  0.43224880997E+03  0.55309343684E+03  0.12500000000E+03 0.  0.
         21    1    1    2  503  501  0.50775380711E+02  0.80417079807E+02 -0.13479172978E+03  0.16496622814E+03  0.00000000000E+00 0. -1.
          2    1    1    2  501    0  0.20199496637E+03  0.11846848478E+03 -0.20954908870E+04  0.21085347533E+04  0.00000000000E+00 0. -1.
<mgrwt>
<rscale>  4 0.34273802E+03</rscale>
<asrwt>0</asrwt>
<pdfrwt beam="1">  1       21 0.79120050E-01 0.34273802E+03</pdfrwt>
<pdfrwt beam="2">  1        2 0.35574062E+00 0.34273802E+03</pdfrwt>
<totfact> 0.82970595E+01</totfact>
</mgrwt>
</event>
<event>
 5    0  0.3040647E+000  0.3335809E+03  0.7546771E-02  0.1069563E+00
          2   -1    0    0  502    0 -0.00000000000E+00  0.00000000000E+00  0.86346415638E+03  0.86346415638E+03  0.00000000000E+00 0. -1.
         21   -1    0    0  503  502  0.00000000000E+00 -0.00000000000E+00 -0.29176037517E+03  0.29176037517E+03  0.00000000000E+00 0.  1.
         25    1    1    2    0    0 -0.27039362091E+03 -0.56086429309E+02  0.48264697910E+02  0.30694116512E+03  0.12500000000E+03 0.  0.
         21    1    1    2  503  501 -0.44461153743E+02  0.55166837162E+01 -0.12112725761E+03  0.12914735974E+03  0.00000000000E+00 0.  1.
          2    1    1    2  501    0  0.31485477465E+03  0.50569745593E+02  0.64456634091E+03  0.71913600669E+03  0.00000000000E+00 0. -1.
<mgrwt>
<rscale>  4 0.33358092E+03</rscale>
<asrwt>0</asrwt>
<pdfrwt beam="1">  1       21 0.44886212E-01 0.33358092E+03</pdfrwt>
<pdfrwt beam="2">  1        2 0.13284064E+00 0.33358092E+03</pdfrwt>
<totfact> 0.18359252E+03</totfact>
</mgrwt>
</event>
<event>
 5    0  0.3040647E+000  0.6721421E+03  0.7546771E-02  0.9766096E-01
         21   -1    0    0  503  502  0.00000000000E+00  0.00000000000E+00  0.70244637072E+03  0.70244637072E+03  0.00000000000E+00 0.  1.
          2   -1    0    0  502    0 -0.00000000000E+00 -0.00000000000E+00 -0.20561057106E+04  0.20561057106E+04  0.00000000000E+00 0.  1.
         25    1    1    2    0    0  0.33020044288E+03  0.60136897186E+03 -0.80001774268E+01  0.69739943765E+03  0.12500000000E+03 0.  0.
         21    1    1    2  503  501  0.10678134274E+02 -0.41098847120E+02  0.29303599335E+03  0.29609665852E+03  0.00000000000E+00 0. -1.
          2    1    1    2  501    0 -0.34087857716E+03 -0.56027012474E+03 -0.16386951558E+04  0.17650559851E+04  0.00000000000E+00 0.  1.
<mgrwt>
<rscale>  4 0.67214210E+03</rscale>
<asrwt>0</asrwt>
<pdfrwt beam="1">  1       21 0.10806868E+00 0.67214210E+03</pdfrwt>
<pdfrwt beam="2">  1        2 0.31632395E+00 0.67214210E+03</pdfrwt>
<totfact> 0.47531746E+01</totfact>
</mgrwt>
</event>
<event>
 5    0  0.3040647E+000  0.2533591E+03  0.7546771E-02  0.1111200E+00
         21   -1    0    0  503  502  0.00000000000E+00  0.00000000000E+00  0.10126084572E+03  0.10126084572E+03  0.00000000000E+00 0. -1.
          2   -1    0    0  502    0 -0.00000000000E+00 -0.00000000000E+00 -0.12566833527E+04  0.12566833527E+04  0.00000000000E+00 0. -1.
         25    1    1    2    0    0 -0.12948107264E+03 -0.18835142026E+03 -0.10283220172E+04  0.10608076059E+04  0.12500000000E+03 0.  0.
         21    1    1    2  503  501 -0.10511586793E+02  0.48818802045E+02  0.16756126560E+02  0.52673870821E+02  0.00000000000E+00 0.  1.
          2    1    1    2  501    0  0.13999265943E+03  0.13953261822E+03 -0.14385661635E+03  0.24446272172E+03  0.00000000000E+00 0. -1.
<mgrwt>
<rscale>  4 0.25335912E+03</rscale>
<asrwt>0</asrwt>
<pdfrwt beam="1">  1       21 0.15578592E-01 0.25335912E+03</pdfrwt>
<pdfrwt beam="2">  1        2 0.19333589E+00 0.25335912E+03</pdfrwt>
<totfact> 0.85225612E+03</totfact>
</mgrwt>
</event>
<event>
 5    0  0.3040647E+000  0.3211804E+03  0.7546771E-02  0.1075107E+00
         21   -1    0    0  503  502  0.00000000000E+00  0.00000000000E+00  0.78570103079E+03  0.78570103079E+03  0.00000000000E+00 0. -1.
          1   -1    0    0  502    0 -0.00000000000E+00 -0.00000000000E+00 -0.74735011708E+03  0.74735011708E+03  0.00000000000E+00 0. -1.
         25    1    1    2    0    0  0.20681981804E+03  0.26032287956E+03 -0.36318981521E+03  0.50801011863E+03  0.12500000000E+03 0.  0.
         21    1    1    2  503  501 -0.32358524983E+02 -0.58313854323E+02  0.65415051947E+03  0.65754123967E+03  0.00000000000E+00 0. -1.
          1    1    1    2  501    0 -0.17446129306E+03 -0.20200902524E+03 -0.25260979055E+03  0.36749978957E+03  0.00000000000E+00 0. -1.
<mgrwt>
<rscale>  4 0.32118038E+03</rscale>
<asrwt>0</asrwt>
<pdfrwt beam="1">  1       21 0.12087708E+00 0.32118038E+03</pdfrwt>
<pdfrwt beam="2">  1        1 0.11497694E+00 0.32118038E+03</pdfrwt>
<totfact> 0.13623302E+02</totfact>
</mgrwt>
</event>
<event>
 5    0  0.3040647E+000  0.3683341E+03  0.7546771E-02  0.1055332E+00
          1   -1    0    0  502    0 -0.00000000000E+00  0.00000000000E+00  0.85161470400E+03  0.85161470400E+03  0.00000000000E+00 0.  1.
         21   -1    0    0  503  502  0.00000000000E+00 -0.00000000000E+00 -0.27766434739E+03  0.27766434739E+03  0.00000000000E+00 0.  1.
         25    1    1    2    0    0  0.24800772125E+03 -0.15540399926E+03 -0.88036754005E+02  0.33020251792E+03  0.12500000000E+03 0.  0.
         21    1    1    2  503  501  0.62424214271E+02 -0.24376409664E+02  0.32344877933E+02  0.74412250362E+02  0.00000000000E+00 0.  1.
          1    1    1    2  501    0 -0.31043193552E+03  0.17978040893E+03  0.62964223268E+03  0.72466428310E+03  0.00000000000E+00 0.  1.
<mgrwt>
<rscale>  4 0.36833412E+03</rscale>
<asrwt>0</asrwt>
<pdfrwt beam="1">  1       21 0.42717592E-01 0.36833412E+03</pdfrwt>
<pdfrwt beam="2">  1        1 0.13101765E+00 0.36833412E+03</pdfrwt>
<totfact> 0.11502953E+03</totfact>
</mgrwt>
</event>
<event>
 5    0  0.3040647E+000  0.3224710E+03  0.7546771E-02  0.1074518E+00
         21   -1    0    0  503  502  0.00000000000E+00  0.00000000000E+00  0.76964706211E+03  0.76964706211E+03  0.00000000000E+00 0. -1.
          2   -1    0    0  502    0 -0.00000000000E+00 -0.00000000000E+00 -0.20756300751E+04  0.20756300751E+04  0.00000000000E+00 0.  1.
         25    1    1    2    0    0  0.24536080653E+03  0.23195456222E+03  0.61094105045E+03  0.70913948659E+03  0.12500000000E+03 0.  0.
         21    1    1    2  503  501 -0.33813856105E+02 -0.24070320328E+02  0.94369109461E+02  0.10309357888E+03  0.00000000000E+00 0.  1.
          2    1    1    2  501    0 -0.21154695042E+03 -0.20788424190E+03 -0.20112931729E+04  0.20330440717E+04  0.00000000000E+00 0.  1.
<mgrwt>
<rscale>  4 0.32247101E+03</rscale>
<asrwt>0</asrwt>
<pdfrwt beam="1">  1       21 0.11840724E+00 0.32247101E+03</pdfrwt>
<pdfrwt beam="2">  1        2 0.31932770E+00 0.32247101E+03</pdfrwt>
<totfact> 0.42918172E+01</totfact>
</mgrwt>
</event>
<event>
 5    0  0.3040647E+000  0.2921268E+03  0.7546771E-02  0.1089244E+00
         21   -1    0    0  503  502  0.00000000000E+00  0.00000000000E+00  0.44111587977E+03  0.44111587977E+03  0.00000000000E+00 0.  1.
          2   -1    0    0  502    0 -0.00000000000E+00 -0.00000000000E+00 -0.36909684585E+03  0.36909684585E+03  0.00000000000E+00 0.  1.
         25    1    1    2    0    0  0.26156947041E+03  0.15723742534E+03 -0.65963899241E+00  0.32979937978E+03  0.12500000000E+03 0.  0.
         21    1    1    2  503  501 -0.65125345086E+02 -0.99835269034E+01  0.19520852193E+03  0.20602754286E+03  0.00000000000E+00 0.  1.
          2    1    1    2  501    0 -0.19644412533E+03 -0.14725389844E+03 -0.12252984901E+03  0.27438580298E+03  0.00000000000E+00 0.  1.
<mgrwt>
<rscale>  4 0.29212679E+03</rscale>
<asrwt>0</asrwt>
<pdfrwt beam="1">  1       21 0.67863982E-01 0.29212679E+03</pdfrwt>
<pdfrwt beam="2">  1        2 0.56784130E-01 0.29212679E+03</pdfrwt>
<totfact> 0.20779917E+03</totfact>
</mgrwt>
</event>
<event>
 5    0  0.3040647E+000  0.2622470E+03  0.7546771E-02  0.1105801E+00
         21   -1    0    0  501  502  0.00000000000E+00  0.00000000000E+00  0.50941497157E+03  0.50941497157E+03  0.00000000000E+00 0. -1.
         -2   -1    0    0    0  501 -0.00000000000E+00 -0.00000000000E+00 -0.18785024654E+03  0.18785024654E+03  0.00000000000E+00 0.  1.
         25    1    1    2    0    0  0.28167436721E+02 -0.22881232382E+03 -0.40727567412E+02  0.26539069081E+03  0.12500000000E+03 0.  0.
         21    1    1    2  503  502 -0.40769202146E+01  0.21818915657E+02  0.66037533543E+02  0.69668085917E+02  0.00000000000E+00 0.  1.
         -2    1    1    2    0  503 -0.24090516507E+02  0.20699340816E+03  0.29625475890E+03  0.36220644138E+03  0.00000000000E+00 0.  1.
<mgrwt>
<rscale>  4 0.26224699E+03</rscale>
<asrwt>0</asrwt>
<pdfrwt beam="1">  1       21 0.78371534E-01 0.26224699E+03</pdfrwt>
<pdfrwt beam="2">  1       -2 0.28900038E-01 0.26224699E+03</pdfrwt>
<totfact> 0.12360530E+03</totfact>
</mgrwt>
</event>
<event>
 5    0  0.3040647E+000  0.1825026E+03  0.7546771E-02  0.1165403E+00
         21   -1    0    0  503  502  0.00000000000E+00  0.00000000000E+00  0.11310359917E+03  0.11310359917E+03  0.00000000000E+00 0. -1.
          2   -1    0    0  502    0 -0.00000000000E+00 -0.00000000000E+00 -0.21512442972E+04  0.21512442972E+04  0.00000000000E+00 0.  1.
         25    1    1    2    0    0 -0.19119263317E+03  0.63048028639E+02 -0.53334828111E+03  0.58362236580E+03  0.12500000000E+03 0.  0.
         21    1    1    2  503  501  0.68809648772E+02 -0.32424209336E+02  0.68511659178E+02  0.10237160035E+03  0.00000000000E+00 0. -1.
          2    1    1    2  501    0  0.12238298440E+03 -0.30623819303E+02 -0.15733040761E+04  0.15783539302E+04  0.00000000000E+00 0.  1.
<mgrwt>
<rscale>  4 0.18250265E+03</rscale>
<asrwt>0</asrwt>
<pdfrwt beam="1">  1       21 0.17400555E-01 0.18250265E+03</pdfrwt>
<pdfrwt beam="2">  1        2 0.33096064E+00 0.18250265E+03</pdfrwt>
<totfact> 0.24171638E+03</totfact>
</mgrwt>
</event>
<event>
 5    0  0.3040647E+000  0.3752074E+03  0.7546771E-02  0.1052719E+00
         21   -1    0    0  501  502  0.00000000000E+00  0.00000000000E+00  0.27996311831E+03  0.27996311831E+03  0.00000000000E+00 0. -1.
         -3   -1    0    0    0  501 -0.00000000000E+00 -0.00000000000E+00 -0.76715176576E+03  0.76715176576E+03  0.00000000000E+00 0. -1.
         25    1    1    2    0    0 -0.25468287395E+03  0.21317224003E+03  0.63264855268E+02  0.36046249751E+03  0.12500000000E+03 0.  0.
         21    1    1    2  503  502 -0.30114594534E+01  0.37554653602E+02 -0.12665338742E+02  0.39747096758E+02  0.00000000000E+00 0. -1.
         -3    1    1    2    0  503  0.25769433340E+03 -0.25072689363E+03 -0.53778816398E+03  0.64690528980E+03  0.00000000000E+00 0. -1.
<mgrwt>
<rscale>  4 0.37520739E+03</rscale>
<asrwt>0</asrwt>
<pdfrwt beam="1">  1       21 0.43071250E-01 0.37520739E+03</pdfrwt>
<pdfrwt beam="2">  1       -3 0.11802335E+00 0.37520739E+03</pdfrwt>
<totfact> 0.15102011E+02</totfact>
</mgrwt>
</event>
<event>
 5    0  0.3040647E+000  0.3304243E+03  0.7546771E-02  0.1070949E+00
         21   -1    0    0  503  502  0.00000000000E+00  0.00000000000E+00  0.66506522274E+03  0.66506522274E+03  0.00000000000E+00 0. -1.
          1   -1    0    0  502    0 -0.00000000000E+00 -0.00000000000E+00 -0.31315635967E+03  0.31315635967E+03  0.00000000000E+00 0. -1.
         25    1    1    2    0    0  0.33756095675E+03  0.10317454589E+02  0.43529615616E+03  0.56494388479E+03  0.12500000000E+03 0.  0.
         21    1    1    2  503  501 -0.40522906430E+02  0.33143542830E+02  0.60810998171E+02  0.80240749469E+02  0.00000000000E+00 0. -1.
          1    1    1    2  501    0 -0.29703805032E+03 -0.43460997419E+02 -0.14419829125E+03  0.33303694816E+03  0.00000000000E+00 0. -1.
<mgrwt>
<rscale>  4 0.33042431E+03</rscale>
<asrwt>0</asrwt>
<pdfrwt beam="1">  1       21 0.10231773E+00 0.33042431E+03</pdfrwt>
<pdfrwt beam="2">  1        1 0.48177902E-01 0.33042431E+03</pdfrwt>
<totfact> 0.66428942E+02</totfact>
</mgrwt>
</event>
<event>
 5    0  0.3040647E+000  0.2080050E+03  0.7546771E-02  0.1143156E+00
         21   -1    0    0  503  502  0.00000000000E+00  0.00000000000E+00  0.71640843570E+03  0.71640843570E+03  0.00000000000E+00 0. -1.
          1   -1    0    0  502    0 -0.00000000000E+00 -0.00000000000E+00 -0.10330564290E+03  0.10330564290E+03  0.00000000000E+00 0. -1.
         25    1    1    2    0    0 -0.20292952252E+03 -0.25912077358E+02  0.19793458969E+03  0.31089375783E+03  0.12500000000E+03 0.  0.
         21    1    1    2  503  501  0.15307357274E+03  0.34836441641E+02  0.42857911024E+03  0.45642650018E+03  0.00000000000E+00 0. -1.
          1    1    1    2  501    0  0.49855949778E+02 -0.89243642838E+01 -0.13410907122E+02  0.52393820589E+02  0.00000000000E+00 0. -1.
<mgrwt>
<rscale>  4 0.20800501E+03</rscale>
<asrwt>0</asrwt>
<pdfrwt beam="1">  1       21 0.11021668E+00 0.20800501E+03</pdfrwt>
<pdfrwt beam="2">  1        1 0.15893176E-01 0.20800501E+03</pdfrwt>
<totfact> 0.23895686E+03</totfact>
</mgrwt>
</event>
<event>
 5    0  0.3040647E+000  0.2560488E+03  0.7546771E-02  0.1109541E+00
         21   -1    0    0  501  502  0.00000000000E+00  0.00000000000E+00  0.57413006549E+02  0.57413006549E+02  0.00000000000E+00 0.  1.
         -2   -1    0    0    0  501 -0.00000000000E+00 -0.00000000000E+00 -0.12471726633E+04  0.12471726633E+04  0.00000000000E+00 0.  1.
         25    1    1    2    0    0  0.16831722427E+03  0.13587669060E+03 -0.38017722787E+03  0.45492074873E+03  0.12500000000E+03 0.  0.
         21    1    1    2  503  502 -0.42361956193E+01  0.20630265595E+02 -0.23616274979E+02  0.31643034869E+02  0.00000000000E+00 0. -1.
         -2    1    1    2    0  503 -0.16408102865E+03 -0.15650695619E+03 -0.78596615388E+03  0.81802188623E+03  0.00000000000E+00 0.  1.
<mgrwt>
<rscale>  4 0.25604881E+03</rscale>
<asrwt>0</asrwt>
<pdfrwt beam="1">  1       21 0.88327709E-02 0.25604881E+03</pdfrwt>
<pdfrwt beam="2">  1       -2 0.19187270E+00 0.25604881E+03</pdfrwt>
<totfact> 0.13439725E+03</totfact>
</mgrwt>
</event>
<event>
 5    0  0.3040647E+000  0.1998865E+03  0.7546771E-02  0.1149835E+00
          2   -1    0    0  502    0 -0.00000000000E+00  0.00000000000E+00  0.19561262512E+04  0.19561262512E+04  0.00000000000E+00 0.  1.
         21   -1    0    0  503  502  0.00000000000E+00 -0.00000000000E+00 -0.34912932762E+02  0.34912932762E+02  0.00000000000E+00 0. -1.
         25    1    1    2    0    0  0.10727529434E+02  0.21146553274E+03  0.98794321139E+03  0.10180813034E+04  0.12500000000E+03 0.  0.
         21    1    1    2  503  501 -0.12498855433E+02 -0.75486972225E+02  0.87121916728E+02  0.11595142404E+03  0.00000000000E+00 0. -1.
          2    1    1    2  501    0  0.17713259990E+01 -0.13597856052E+03  0.84614819036E+03  0.85700645655E+03  0.00000000000E+00 0.  1.
<mgrwt>
<rscale>  4 0.19988654E+03</rscale>
<asrwt>0</asrwt>
<pdfrwt beam="1">  1       21 0.53712219E-02 0.19988654E+03</pdfrwt>
<pdfrwt beam="2">  1        2 0.30094242E+00 0.19988654E+03</pdfrwt>
<totfact> 0.24130021E+04</totfact>
</mgrwt>
</event>
<event>
 5    0  0.3040647E+000  0.2366682E+03  0.7546771E-02  0.1122032E+00
         21   -1    0    0  503  502  0.00000000000E+00  0.00000000000E+00  0.11548611630E+04  0.11548611630E+04  0.00000000000E+00 0. -1.
          2   -1    0    0  502    0 -0.00000000000E+00 -0.00000000000E+00 -0.24496583223E+03  0.24496583223E+03  0.00000000000E+00 0.  1.
         25    1    1    2    0    0 -0.10100434951E+03  0.17842957178E+03 -0.79256006141E+02  0.25287448510E+03  0.12500000000E+03 0.  0.
         21    1    1    2  503  501  0.30094555518E+02  0.47853348855E+01  0.94513175090E+03  0.94562286788E+03  0.00000000000E+00 0. -1.
          2    1    1    2  501    0  0.70909793989E+02 -0.18321490667E+03  0.44019586043E+02  0.20132964229E+03  0.00000000000E+00 0.  1.
<mgrwt>
<rscale>  4 0.23666822E+03</rscale>
<asrwt>0</asrwt>
<pdfrwt beam="1">  1       21 0.17767094E+00 0.23666822E+03</pdfrwt>
<pdfrwt beam="2">  1        2 0.37687052E-01 0.23666822E+03</pdfrwt>
<totfact> 0.30851388E+02</totfact>
</mgrwt>
</event>
<event>
 5    0  0.3040647E+000  0.4265420E+03  0.7546771E-02  0.1034958E+00
         21   -1    0    0  503  502  0.00000000000E+00  0.00000000000E+00  0.82873553779E+03  0.82873553779E+03  0.00000000000E+00 0. -1.
          1   -1    0    0  502    0 -0.00000000000E+00 -0.00000000000E+00 -0.58038734830E+03  0.58038734830E+03  0.00000000000E+00 0.  1.
         25    1    1    2    0    0 -0.37701815140E+02  0.38099802579E+03  0.53255709894E+03  0.66769977247E+03  0.12500000000E+03 0.  0.
         21    1    1    2  503  501 -0.39658695944E+02  0.23128052333E+02  0.14186241377E+03  0.14910621520E+03  0.00000000000E+00 0. -1.
          1    1    1    2  501    0  0.77360511085E+02 -0.40412607812E+03 -0.42607132322E+03  0.59231689843E+03  0.00000000000E+00 0.  1.
<mgrwt>
<rscale>  4 0.42654197E+03</rscale>
<asrwt>0</asrwt>
<pdfrwt beam="1">  1       21 0.12749778E+00 0.42654197E+03</pdfrwt>
<pdfrwt beam="2">  1        1 0.89290361E-01 0.42654197E+03</pdfrwt>
<totfact> 0.16430383E+02</totfact>
</mgrwt>
</event>
<event>
 5    0  0.3040647E+000  0.2701140E+03  0.7546771E-02  0.1101214E+00
         21   -1    0    0  501  502  0.00000000000E+00  0.00000000000E+00  0.85413827182E+03  0.85413827182E+03  0.00000000000E+00 0.  1.
         -3   -1    0    0    0  501 -0.00000000000E+00 -0.00000000000E+00 -0.51147861906E+03  0.51147861906E+03  0.00000000000E+00 0.  1.
         25    1    1    2    0    0  0.23285670900E+03 -0.62321196631E+02  0.70542109369E+03  0.75587703887E+03  0.12500000000E+03 0.  0.
         21    1    1    2  503  502  0.65217169041E+01  0.51814042807E+02  0.86231649367E+02  0.10081232651E+03  0.00000000000E+00 0. -1.
         -3    1    1    2    0  503 -0.23937842590E+03  0.10507153824E+02 -0.44899309030E+03  0.50892752549E+03  0.00000000000E+00 0.  1.
<mgrwt>
<rscale>  4 0.27011395E+03</rscale>
<asrwt>0</asrwt>
<pdfrwt beam="1">  1       21 0.13140589E+00 0.27011395E+03</pdfrwt>
<pdfrwt beam="2">  1       -3 0.78689018E-01 0.27011395E+03</pdfrwt>
<totfact> 0.30921496E+01</totfact>
</mgrwt>
</event>
<event>
 5    0  0.3040647E+000  0.2603289E+03  0.7546771E-02  0.1106946E+00
          2   -1    0    0  502    0 -0.00000000000E+00  0.00000000000E+00  0.27698057026E+04  0.27698057026E+04  0.00000000000E+00 0. -1.
         21   -1    0    0  503  502  0.00000000000E+00 -0.00000000000E+00 -0.33341569697E+03  0.33341569697E+03  0.00000000000E+00 0.  1.
         25    1    1    2    0    0 -0.11073620516E+03 -0.24601994643E+03  0.13295826316E+04  0.13624255192E+04  0.12500000000E+03 0.  0.
         21    1    1    2  503  501  0.14420747934E+03  0.17578811485E+03 -0.27498734076E+03  0.35681269035E+03  0.00000000000E+00 0.  1.
          2    1    1    2  501    0 -0.33471274179E+02  0.70231831583E+02  0.13817947148E+04  0.13839831900E+04  0.00000000000E+00 0. -1.
<mgrwt>
<rscale>  4 0.26032890E+03</rscale>
<asrwt>0</asrwt>
<pdfrwt beam="1">  1       21 0.51294725E-01 0.26032890E+03</pdfrwt>
<pdfrwt beam="2">  1        2 0.42612394E+00 0.26032890E+03</pdfrwt>
<totfact> 0.12660615E+02</totfact>
</mgrwt>
</event>
<event>
 5    0  0.3040647E+000  0.3467432E+03  0.7546771E-02  0.1063960E+00
          2   -1    0    0  502    0 -0.00000000000E+00  0.00000000000E+00  0.28037455070E+04  0.28037455070E+04  0.00000000000E+00 0.  1.
         21   -1    0    0  503  502  0.00000000000E+00 -0.00000000000E+00 -0.69397194068E+02  0.69397194068E+02  0.00000000000E+00 0.  1.
         25    1    1    2    0    0  0.30039068861E+03 -0.51654381717E+02  0.90562628726E+03  0.96368392803E+03  0.12500000000E+03 0.  0.
         21    1    1    2  503  501  0.25801342426E+02 -0.15600682326E+02 -0.16533996540E+02  0.34386968485E+02  0.00000000000E+00 0.  1.
          2    1    1    2  501    0 -0.32619203103E+03  0.67255064043E+02  0.18452560222E+04  0.18750718046E+04  0.00000000000E+00 0.  1.
<mgrwt>
<rscale>  4 0.34674319E+03</rscale>
<asrwt>0</asrwt>
<pdfrwt beam="1">  1       21 0.10676494E-01 0.34674319E+03</pdfrwt>
<pdfrwt beam="2">  1        2 0.43134538E+00 0.34674319E+03</pdfrwt>
<totfact> 0.23837534E+03</totfact>
</mgrwt>
</event>
<event>
 5    0  0.3040647E+000  0.2671145E+03  0.7546771E-02  0.1102943E+00
          2   -1    0    0  502    0 -0.00000000000E+00  0.00000000000E+00  0.12650717347E+04  0.12650717347E+04  0.00000000000E+00 0.  1.
         21   -1    0    0  503  502  0.00000000000E+00 -0.00000000000E+00 -0.94131717310E+02  0.94131717310E+02  0.00000000000E+00 0. -1.
         25    1    1    2    0    0 -0.56253797628E+02  0.25024961240E+03  0.20088588781E+03  0.34895486553E+03  0.12500000000E+03 0.  0.
         21    1    1    2  503  501  0.14187884555E+02 -0.21866068135E+02  0.21822872527E+02  0.33994981529E+02  0.00000000000E+00 0. -1.
          2    1    1    2  501    0  0.42065913073E+02 -0.22838354427E+03  0.94823125706E+03  0.97625360496E+03  0.00000000000E+00 0.  1.
<mgrwt>
<rscale>  4 0.26711447E+03</rscale>
<asrwt>0</asrwt>
<pdfrwt beam="1">  1       21 0.14481804E-01 0.26711447E+03</pdfrwt>
<pdfrwt beam="2">  1        2 0.19462641E+00 0.26711447E+03</pdfrwt>
<totfact> 0.96020883E+03</totfact>
</mgrwt>
</event>
<event>
 5    0  0.3040647E+000  0.2388778E+03  0.7546771E-02  0.1120543E+00
         21   -1    0    0  503  502  0.00000000000E+00  0.00000000000E+00  0.26154768467E+03  0.26154768467E+03  0.00000000000E+00 0.  1.
          2   -1    0    0  502    0 -0.00000000000E+00 -0.00000000000E+00 -0.19426191981E+04  0.19426191981E+04  0.00000000000E+00 0. -1.
         25    1    1    2    0    0  0.19295414287E+03 -0.23310820603E+03 -0.28553483146E+03  0.43442591652E+03  0.12500000000E+03 0.  0.
         21    1    1    2  503  501 -0.10450449060E+03  0.15903478420E+03  0.13597780613E+03  0.23388718413E+03  0.00000000000E+00 0.  1.
          2    1    1    2  501    0 -0.88449652265E+02  0.74073421832E+02 -0.15315144881E+04  0.15358537821E+04  0.00000000000E+00 0. -1.
<mgrwt>
<rscale>  4 0.23887777E+03</rscale>
<asrwt>0</asrwt>
<pdfrwt beam="1">  1       21 0.40238103E-01 0.23887777E+03</pdfrwt>
<pdfrwt beam="2">  1        2 0.29886451E+00 0.23887777E+03</pdfrwt>
<totfact> 0.59465955E+02</totfact>
</mgrwt>
</event>
<event>
 5    0  0.3040647E+000  0.3730660E+03  0.7546771E-02  0.1053527E+00
         21   -1    0    0  503  502  0.00000000000E+00  0.00000000000E+00  0.30624267124E+03  0.30624267124E+03  0.00000000000E+00 0.  1.
          1   -1    0    0  502    0 -0.00000000000E+00 -0.00000000000E+00 -0.10281337676E+04  0.10281337676E+04  0.00000000000E+00 0. -1.
         25    1    1    2    0    0 -0.15910426043E+03  0.35187439254E+03  0.93372377652E+02  0.41650108610E+03  0.12500000000E+03 0.  0.
         21    1    1    2  503  501  0.19583466792E+02 -0.34544124575E+02 -0.96751539291E+01  0.40870739139E+02  0.00000000000E+00 0.  1.
          1    1    1    2  501    0  0.13952079364E+03 -0.31733026797E+03 -0.80558832012E+03  0.87700461364E+03  0.00000000000E+00 0. -1.
<mgrwt>
<rscale>  4 0.37306600E+03</rscale>
<asrwt>0</asrwt>
<pdfrwt beam="1">  1       21 0.47114258E-01 0.37306600E+03</pdfrwt>
<pdfrwt beam="2">  1        1 0.15817442E+00 0.37306600E+03</pdfrwt>
<totfact> 0.68159817E+02</totfact>
</mgrwt>
</event>
<event>
 5    0  0.3040647E+000  0.2611099E+03  0.7546771E-02  0.1106478E+00
         -3   -1    0    0    0  501 -0.00000000000E+00  0.00000000000E+00  0.32315983771E+03  0.32315983771E+03  0.00000000000E+00 0.  1.
         21   -1    0    0  501  502  0.00000000000E+00 -0.00000000000E+00 -0.77229421759E+03  0.77229421759E+03  0.00000000000E+00 0. -1.
         25    1    1    2    0    0 -0.19619674545E+03 -0.50414245461E+02 -0.62992175949E+03  0.67339526443E+03  0.12500000000E+03 0.  0.
         21    1    1    2  503  502 -0.34137039762E+02  0.80463192106E+02 -0.44835943750E+02  0.98234029845E+02  0.00000000000E+00 0. -1.
         -3    1    1    2    0  503  0.23033378521E+03 -0.30048946646E+02  0.22562332336E+03  0.32382476102E+03  0.00000000000E+00 0.  1.
<mgrwt>
<rscale>  4 0.26110994E+03</rscale>
<asrwt>0</asrwt>
<pdfrwt beam="1">  1       21 0.11881449E+00 0.26110994E+03</pdfrwt>
<pdfrwt beam="2">  1       -3 0.49716899E-01 0.26110994E+03</pdfrwt>
<totfact> 0.10521271E+02</totfact>
</mgrwt>
</event>
<event>
 5    0  0.3040647E+000  0.3140471E+03  0.7546771E-02  0.1078422E+00
         21   -1    0    0  501  502  0.00000000000E+00  0.00000000000E+00  0.12362778725E+04  0.12362778725E+04  0.00000000000E+00 0. -1.
         -2   -1    0    0    0  501 -0.00000000000E+00 -0.00000000000E+00 -0.41554046070E+03  0.41554046070E+03  0.00000000000E+00 0.  1.
         25    1    1    2    0    0 -0.14998309962E+03  0.26495856517E+03  0.21279553063E+03  0.39192462195E+03  0.12500000000E+03 0.  0.
         21    1    1    2  503  502  0.12801013487E+02 -0.15448135403E+02  0.87160213591E+03  0.87183300818E+03  0.00000000000E+00 0. -1.
         -2    1    1    2    0  503  0.13718208614E+03 -0.24951042977E+03 -0.26366025475E+03  0.38806070305E+03  0.00000000000E+00 0.  1.
<mgrwt>
<rscale>  4 0.31404714E+03</rscale>
<asrwt>0</asrwt>
<pdfrwt beam="1">  1       21 0.19019659E+00 0.31404714E+03</pdfrwt>
<pdfrwt beam="2">  1       -2 0.63929302E-01 0.31404714E+03</pdfrwt>
<totfact> 0.26871481E+01</totfact>
</mgrwt>
</event>
<event>
 5    0  0.3040647E+000  0.3498186E+03  0.7546771E-02  0.1062690E+00
          2   -1    0    0  502    0 -0.00000000000E+00  0.00000000000E+00  0.23778421309E+04  0.23778421309E+04  0.00000000000E+00 0. -1.
         21   -1    0    0  503  502  0.00000000000E+00 -0.00000000000E+00 -0.10903628226E+03  0.10903628226E+03  0.00000000000E+00 0. -1.
         25    1    1    2    0    0  0.35609432688E+03 -0.73230687095E+02  0.44989390125E+03  0.59177312000E+03  0.12500000000E+03 0.  0.
         21    1    1    2  503  501 -0.36471611429E+02  0.56671233273E+02  0.23473333094E+02  0.71363887839E+02  0.00000000000E+00 0. -1.
          2    1    1    2  501    0 -0.31962271546E+03  0.16559453822E+02  0.17954386143E+04  0.18237414054E+04  0.00000000000E+00 0. -1.
<mgrwt>
<rscale>  4 0.34981858E+03</rscale>
<asrwt>0</asrwt>
<pdfrwt beam="1">  1       21 0.16774814E-01 0.34981858E+03</pdfrwt>
<pdfrwt beam="2">  1        2 0.36582183E+00 0.34981858E+03</pdfrwt>
<totfact> 0.18048896E+03</totfact>
</mgrwt>
</event>
<event>
 5    0  0.3040647E+000  0.3354612E+03  0.7546771E-02  0.1068746E+00
          1   -1    0    0  502    0 -0.00000000000E+00  0.00000000000E+00  0.82001280479E+03  0.82001280479E+03  0.00000000000E+00 0.  1.
         21   -1    0    0  503  502  0.00000000000E+00 -0.00000000000E+00 -0.14113495318E+03  0.14113495318E+03  0.00000000000E+00 0.  1.
         25    1    1    2    0    0  0.25897480154E+03  0.18879254396E+03  0.39991326610E+03  0.52750942446E+03  0.12500000000E+03 0.  0.
         21    1    1    2  503  501 -0.84832584409E+01 -0.20227305137E+02 -0.90109462548E+00  0.21952710958E+02  0.00000000000E+00 0.  1.
          1    1    1    2  501    0 -0.25049154310E+03 -0.16856523883E+03  0.27986568013E+03  0.41168562256E+03  0.00000000000E+00 0.  1.
<mgrwt>
<rscale>  4 0.33546117E+03</rscale>
<asrwt>0</asrwt>
<pdfrwt beam="1">  1       21 0.21713070E-01 0.33546117E+03</pdfrwt>
<pdfrwt beam="2">  1        1 0.12615581E+00 0.33546117E+03</pdfrwt>
<totfact> 0.47106885E+03</totfact>
</mgrwt>
</event>
<event>
 5    0  0.3040647E+000  0.3423377E+03  0.7546771E-02  0.1065805E+00
          1   -1    0    0  502    0 -0.00000000000E+00  0.00000000000E+00  0.79201181210E+03  0.79201181210E+03  0.00000000000E+00 0. -1.
         21   -1    0    0  503  502  0.00000000000E+00 -0.00000000000E+00 -0.23356423685E+03  0.23356423685E+03  0.00000000000E+00 0. -1.
         25    1    1    2    0    0  0.12841680284E+02 -0.30536039671E+03  0.10902244381E+02  0.33038423020E+03  0.12500000000E+03 0.  0.
         21    1    1    2  503  501  0.59400373337E+02 -0.99176506574E+01  0.11453961516E+01  0.60233512927E+02  0.00000000000E+00 0.  1.
          1    1    1    2  501    0 -0.72242053621E+02  0.31527804737E+03  0.54639993472E+03  0.63495830582E+03  0.00000000000E+00 0. -1.
<mgrwt>
<rscale>  4 0.34233767E+03</rscale>
<asrwt>0</asrwt>
<pdfrwt beam="1">  1       21 0.35932960E-01 0.34233767E+03</pdfrwt>
<pdfrwt beam="2">  1        1 0.12184797E+00 0.34233767E+03</pdfrwt>
<totfact> 0.18500726E+03</totfact>
</mgrwt>
</event>
<event>
 5    0  0.3040647E+000  0.2122331E+03  0.7546771E-02  0.1139810E+00
         21   -1    0    0  503  502  0.00000000000E+00  0.00000000000E+00  0.34593082425E+02  0.34593082425E+02  0.00000000000E+00 0.  1.
          1   -1    0    0  502    0 -0.00000000000E+00 -0.00000000000E+00 -0.24589848139E+04  0.24589848139E+04  0.00000000000E+00 0.  1.
         25    1    1    2    0    0 -0.20884942594E+03 -0.63320195489E+02 -0.16117942367E+04  0.16312980081E+04  0.12500000000E+03 0.  0.
         21    1    1    2  503  501  0.15979229593E+03 -0.45400389292E+02 -0.40965001862E+03  0.44204967022E+03  0.00000000000E+00 0.  1.
          1    1    1    2  501    0  0.49057130015E+02  0.10872058478E+03 -0.40294747619E+03  0.42023021801E+03  0.00000000000E+00 0.  1.
<mgrwt>
<rscale>  4 0.21223307E+03</rscale>
<asrwt>0</asrwt>
<pdfrwt beam="1">  1       21 0.53220132E-02 0.21223307E+03</pdfrwt>
<pdfrwt beam="2">  1        1 0.37830532E+00 0.21223307E+03</pdfrwt>
<totfact> 0.46639430E+03</totfact>
</mgrwt>
</event>
<event>
 5    0  0.3040647E+000  0.2928403E+03  0.7546771E-02  0.1088875E+00
         21   -1    0    0  503  502  0.00000000000E+00  0.00000000000E+00  0.24772114005E+03  0.24772114005E+03  0.00000000000E+00 0. -1.
          1   -1    0    0  502    0 -0.00000000000E+00 -0.00000000000E+00 -0.43226037804E+03  0.43226037804E+03  0.00000000000E+00 0. -1.
         25    1    1    2    0    0 -0.14029882226E+03 -0.23971673373E+03 -0.70314242868E+02  0.31259712844E+03  0.12500000000E+03 0.  0.
         21    1    1    2  503  501  0.57136643724E+01  0.20261322311E+02  0.55281059887E+02  0.59153721139E+02  0.00000000000E+00 0. -1.
          1    1    1    2  501    0  0.13458515789E+03  0.21945541142E+03 -0.16950605501E+03  0.30823066851E+03  0.00000000000E+00 0. -1.
<mgrwt>
<rscale>  4 0.29284034E+03</rscale>
<asrwt>0</asrwt>
<pdfrwt beam="1">  1       21 0.38110945E-01 0.29284034E+03</pdfrwt>
<pdfrwt beam="2">  1        1 0.66501596E-01 0.29284034E+03</pdfrwt>
<totfact> 0.38920117E+03</totfact>
</mgrwt>
</event>
<event>
 5    0  0.3040647E+000  0.3019601E+03  0.7546771E-02  0.1084265E+00
          2   -1    0    0  502    0 -0.00000000000E+00  0.00000000000E+00  0.10680567247E+04  0.10680567247E+04  0.00000000000E+00 0. -1.
         21   -1    0    0  503  502  0.00000000000E+00 -0.00000000000E+00 -0.13904553464E+03  0.13904553464E+03  0.00000000000E+00 0.  1.
         25    1    1    2    0    0 -0.45363655679E+01 -0.27836606708E+03  0.15934782659E+03  0.34427456449E+03  0.12500000000E+03 0.  0.
         21    1    1    2  503  501  0.61242328165E+02  0.88776036525E+01  0.21370729639E+02  0.65468638989E+02  0.00000000000E+00 0.  1.
          2    1    1    2  501    0 -0.56705962597E+02  0.26948846343E+03  0.74829263387E+03  0.79735905590E+03  0.00000000000E+00 0. -1.
<mgrwt>
<rscale>  4 0.30196007E+03</rscale>
<asrwt>0</asrwt>
<pdfrwt beam="1">  1       21 0.21391621E-01 0.30196007E+03</pdfrwt>
<pdfrwt beam="2">  1        2 0.16431641E+00 0.30196007E+03</pdfrwt>
<totfact> 0.59793350E+03</totfact>
</mgrwt>
</event>
<event>
 5    0  0.3040647E+000  0.3797368E+03  0.7546771E-02  0.1051031E+00
         21   -1    0    0  503  502  0.00000000000E+00  0.00000000000E+00  0.22555323317E+03  0.22555323317E+03  0.00000000000E+00 0. -1.
          2   -1    0    0  502    0 -0.00000000000E+00 -0.00000000000E+00 -0.13428978527E+04  0.13428978527E+04  0.00000000000E+00 0. -1.
         25    1    1    2    0    0 -0.15973416976E+03 -0.25278678179E+03  0.18624891440E+02  0.32463525474E+03  0.12500000000E+03 0.  0.
         21    1    1    2  503  501 -0.11282360052E+02 -0.74401789866E+02 -0.35761719869E+02  0.83317576726E+02  0.00000000000E+00 0. -1.
          2    1    1    2  501    0  0.17101652981E+03  0.32718857165E+03 -0.11002077911E+04  0.11604982544E+04  0.00000000000E+00 0. -1.
<mgrwt>
<rscale>  4 0.37973685E+03</rscale>
<asrwt>0</asrwt>
<pdfrwt beam="1">  1       21 0.34700497E-01 0.37973685E+03</pdfrwt>
<pdfrwt beam="2">  1        2 0.20659967E+00 0.37973685E+03</pdfrwt>
<totfact> 0.15796495E+03</totfact>
</mgrwt>
</event>
<event>
 5    0  0.3040647E+000  0.3004785E+03  0.7546771E-02  0.1085002E+00
          1   -1    0    0  502    0 -0.00000000000E+00  0.00000000000E+00  0.13511193532E+03  0.13511193532E+03  0.00000000000E+00 0. -1.
         21   -1    0    0  503  502  0.00000000000E+00 -0.00000000000E+00 -0.10515518604E+04  0.10515518604E+04  0.00000000000E+00 0. -1.
         25    1    1    2    0    0 -0.16509315172E+03 -0.24270297881E+03 -0.40992200925E+03  0.51944348907E+03  0.12500000000E+03 0.  0.
         21    1    1    2  503  501  0.65331309806E+02 -0.32341524819E+01 -0.35630406528E+03  0.36225850814E+03  0.00000000000E+00 0.  1.
          1    1    1    2  501    0  0.99761841917E+02  0.24593713129E+03 -0.15021385053E+03  0.30496179850E+03  0.00000000000E+00 0. -1.
<mgrwt>
<rscale>  4 0.30047850E+03</rscale>
<asrwt>0</asrwt>
<pdfrwt beam="1">  1       21 0.16177721E+00 0.30047850E+03</pdfrwt>
<pdfrwt beam="2">  1        1 0.20786451E-01 0.30047850E+03</pdfrwt>
<totfact> 0.60485815E+02</totfact>
</mgrwt>
</event>
<event>
 5    0  0.3040647E+000  0.4694593E+03  0.7546771E-02  0.1022073E+00
         21   -1    0    0  503  502  0.00000000000E+00  0.00000000000E+00  0.70950204390E+03  0.70950204390E+03  0.00000000000E+00 0.  1.
          2   -1    0    0  502    0 -0.00000000000E+00 -0.00000000000E+00 -0.33126518002E+03  0.33126518002E+03  0.00000000000E+00 0.  1.
         25    1    1    2    0    0 -0.42633787032E+03  0.69407901584E+02  0.19500633839E+03  0.49013662226E+03  0.12500000000E+03 0.  0.
         21    1    1    2  503  501 -0.40536772019E+02 -0.29950495200E+01  0.41799014438E+02  0.58304012001E+02  0.00000000000E+00 0.  1.
          2    1    1    2  501    0  0.46687464234E+03 -0.66412852064E+02  0.14143151106E+03  0.49232658967E+03  0.00000000000E+00 0.  1.
<mgrwt>
<rscale>  4 0.46945927E+03</rscale>
<asrwt>0</asrwt>
<pdfrwt beam="1">  1       21 0.10915416E+00 0.46945927E+03</pdfrwt>
<pdfrwt beam="2">  1        2 0.50963874E-01 0.46945927E+03</pdfrwt>
<totfact> 0.73476409E+02</totfact>
</mgrwt>
</event>
<event>
 5    0  0.3040647E+000  0.2407536E+03  0.7546771E-02  0.1119292E+00
          2   -1    0    0  502    0 -0.00000000000E+00  0.00000000000E+00  0.84601382513E+03  0.84601382513E+03  0.00000000000E+00 0.  1.
         21   -1    0    0  503  502  0.00000000000E+00 -0.00000000000E+00 -0.61211194495E+03  0.61211194495E+03  0.00000000000E+00 0.  1.
         25    1    1    2    0    0 -0.16427884973E+03 -0.14351234065E+03 -0.45536920186E+03  0.52016289986E+03  0.12500000000E+03 0.  0.
         21    1    1    2  503  501  0.13047912874E+03  0.12503099839E+03 -0.57927968199E+02  0.18977144963E+03  0.00000000000E+00 0.  1.
          2    1    1    2  501    0  0.33799720991E+02  0.18481342258E+02  0.74719905024E+03  0.74819142058E+03  0.00000000000E+00 0.  1.
<mgrwt>
<rscale>  4 0.24075360E+03</rscale>
<asrwt>0</asrwt>
<pdfrwt beam="1">  1       21 0.94171068E-01 0.24075360E+03</pdfrwt>
<pdfrwt beam="2">  1        2 0.13015597E+00 0.24075360E+03</pdfrwt>
<totfact> 0.38289426E+02</totfact>
</mgrwt>
</event>
<event>
 5    0  0.3040647E+000  0.2548120E+03  0.7546771E-02  0.1110301E+00
         -1   -1    0    0    0  501 -0.00000000000E+00  0.00000000000E+00  0.48323050030E+03  0.48323050030E+03  0.00000000000E+00 0.  1.
         21   -1    0    0  501  502  0.00000000000E+00 -0.00000000000E+00 -0.22074710923E+03  0.22074710923E+03  0.00000000000E+00 0.  1.
         25    1    1    2    0    0 -0.17492891393E+03 -0.17772295569E+03 -0.35626509225E+01  0.27896821752E+03  0.12500000000E+03 0.  0.
         21    1    1    2  503  502  0.40110550726E+02  0.94701931427E+01 -0.35444966377E+02  0.54358867531E+02  0.00000000000E+00 0.  1.
         -1    1    1    2    0  503  0.13481836320E+03  0.16825276255E+03  0.30149100837E+03  0.37065052447E+03  0.00000000000E+00 0.  1.
<mgrwt>
<rscale>  4 0.25481200E+03</rscale>
<asrwt>0</asrwt>
<pdfrwt beam="1">  1       21 0.33961094E-01 0.25481200E+03</pdfrwt>
<pdfrwt beam="2">  1       -1 0.74343154E-01 0.25481200E+03</pdfrwt>
<totfact> 0.14489624E+03</totfact>
</mgrwt>
</event>
<event>
 5    0  0.3040647E+000  0.3209352E+03  0.7546771E-02  0.1075220E+00
         -1   -1    0    0    0  501 -0.00000000000E+00  0.00000000000E+00  0.10550481474E+03  0.10550481474E+03  0.00000000000E+00 0.  1.
         21   -1    0    0  501  502  0.00000000000E+00 -0.00000000000E+00 -0.18612513319E+04  0.18612513319E+04  0.00000000000E+00 0.  1.
         25    1    1    2    0    0 -0.20376948146E+03  0.15076082079E+03 -0.12032333772E+04  0.12359799297E+04  0.12500000000E+03 0.  0.
         21    1    1    2  503  502 -0.37038756463E+02  0.36067195373E+02 -0.37401195604E+03  0.37756808038E+03  0.00000000000E+00 0.  1.
         -1    1    1    2    0  503  0.24080823792E+03 -0.18682801616E+03 -0.17850118397E+03  0.35320813659E+03  0.00000000000E+00 0.  1.
<mgrwt>
<rscale>  4 0.32093521E+03</rscale>
<asrwt>0</asrwt>
<pdfrwt beam="1">  1       21 0.28634633E+00 0.32093521E+03</pdfrwt>
<pdfrwt beam="2">  1       -1 0.16231512E-01 0.32093521E+03</pdfrwt>
<totfact> 0.94268585E+01</totfact>
</mgrwt>
</event>
<event>
 5    0  0.3040647E+000  0.3805274E+03  0.7546771E-02  0.1050739E+00
          1   -1    0    0  502    0 -0.00000000000E+00  0.00000000000E+00  0.14517351139E+04  0.14517351139E+04  0.00000000000E+00 0.  1.
         21   -1    0    0  503  502  0.00000000000E+00 -0.00000000000E+00 -0.52488922455E+03  0.52488922455E+03  0.00000000000E+00 0.  1.
         25    1    1    2    0    0  0.13042848444E+03 -0.15408443801E+03 -0.32413920309E+01  0.23746391349E+03  0.12500000000E+03 0.  0.
         21    1    1    2  503  501  0.58664975518E+02 -0.19913665177E+03 -0.34498094944E+03  0.40262742195E+03  0.00000000000E+00 0.  1.
          1    1    1    2  501    0 -0.18909345996E+03  0.35322108978E+03  0.12750682308E+04  0.13365330030E+04  0.00000000000E+00 0.  1.
<mgrwt>
<rscale>  4 0.38052743E+03</rscale>
<asrwt>0</asrwt>
<pdfrwt beam="1">  1       21 0.80752189E-01 0.38052743E+03</pdfrwt>
<pdfrwt beam="2">  1        1 0.22334386E+00 0.38052743E+03</pdfrwt>
<totfact> 0.10462679E+02</totfact>
</mgrwt>
</event>
<event>
 5    0  0.3040647E+000  0.2404387E+03  0.7546771E-02  0.1119501E+00
          1   -1    0    0  502    0 -0.00000000000E+00  0.00000000000E+00  0.41303920592E+03  0.41303920592E+03  0.00000000000E+00 0.  1.
         21   -1    0    0  503  502  0.00000000000E+00 -0.00000000000E+00 -0.16556161345E+03  0.16556161345E+03  0.00000000000E+00 0.  1.
         25    1    1    2    0    0 -0.11246787542E+03 -0.20064803679E+03  0.73954695763E+02  0.27203484096E+03  0.12500000000E+03 0.  0.
         21    1    1    2  503  501  0.48014607433E+01  0.38001304177E+02 -0.90934135719E+01  0.39368049416E+02  0.00000000000E+00 0.  1.
          1    1    1    2  501    0  0.10766641468E+03  0.16264673261E+03  0.18261631027E+03  0.26719792899E+03  0.00000000000E+00 0.  1.
<mgrwt>
<rscale>  4 0.24043867E+03</rscale>
<asrwt>0</asrwt>
<pdfrwt beam="1">  1       21 0.25471018E-01 0.24043867E+03</pdfrwt>
<pdfrwt beam="2">  1        1 0.63544493E-01 0.24043867E+03</pdfrwt>
<totfact> 0.92502935E+03</totfact>
</mgrwt>
</event>
<event>
 5    0  0.3040647E+000  0.3303052E+03  0.7546771E-02  0.1071002E+00
          2   -1    0    0  502    0 -0.00000000000E+00  0.00000000000E+00  0.49438112275E+03  0.49438112275E+03  0.00000000000E+00 0. -1.
         21   -1    0    0  503  502  0.00000000000E+00 -0.00000000000E+00 -0.92692526429E+03  0.92692526429E+03  0.00000000000E+00 0. -1.
         25    1    1    2    0    0 -0.33787310952E+03  0.18343783268E+02 -0.73232610200E+03  0.81634628203E+03  0.12500000000E+03 0.  0.
         21    1    1    2  503  501  0.23313847629E+03  0.87751510395E+01 -0.50195197648E+02  0.23864222231E+03  0.00000000000E+00 0. -1.
          2    1    1    2  501    0  0.10473463323E+03 -0.27118934307E+02  0.34997715810E+03  0.36631788270E+03  0.00000000000E+00 0. -1.
<mgrwt>
<rscale>  4 0.33030516E+03</rscale>
<asrwt>0</asrwt>
<pdfrwt beam="1">  1       21 0.14260389E+00 0.33030516E+03</pdfrwt>
<pdfrwt beam="2">  1        2 0.76058635E-01 0.33030516E+03</pdfrwt>
<totfact> 0.24858658E+02</totfact>
</mgrwt>
</event>
<event>
 5    0  0.3040647E+000  0.2527675E+03  0.7546771E-02  0.1111568E+00
          4   -1    0    0  502    0 -0.00000000000E+00  0.00000000000E+00  0.21932374819E+04  0.21932374819E+04  0.00000000000E+00 0. -1.
         21   -1    0    0  503  502  0.00000000000E+00 -0.00000000000E+00 -0.99371025433E+02  0.99371025433E+02  0.00000000000E+00 0.  1.
         25    1    1    2    0    0  0.16460704519E+03  0.14616421168E+03  0.98628058791E+02  0.27168354769E+03  0.12500000000E+03 0.  0.
         21    1    1    2  503  501  0.18341469581E+02 -0.24328549829E+02  0.27795363533E+02  0.41241606142E+02  0.00000000000E+00 0. -1.
          4    1    1    2  501    0 -0.18294851477E+03 -0.12183566185E+03  0.19674430342E+04  0.19796833535E+04  0.00000000000E+00 0. -1.
<mgrwt>
<rscale>  4 0.25276752E+03</rscale>
<asrwt>0</asrwt>
<pdfrwt beam="1">  1       21 0.15287852E-01 0.25276752E+03</pdfrwt>
<pdfrwt beam="2">  1        4 0.33742111E+00 0.25276752E+03</pdfrwt>
<totfact> 0.34333746E+01</totfact>
</mgrwt>
</event>
<event>
 5    0  0.3040647E+000  0.2438841E+03  0.7546771E-02  0.1117232E+00
          2   -1    0    0  502    0 -0.00000000000E+00  0.00000000000E+00  0.10222274908E+04  0.10222274908E+04  0.00000000000E+00 0.  1.
         21   -1    0    0  503  502  0.00000000000E+00 -0.00000000000E+00 -0.19007661606E+03  0.19007661606E+03  0.00000000000E+00 0.  1.
         25    1    1    2    0    0  0.23324926277E+03 -0.93480196823E+02  0.49074852089E+03  0.56533430511E+03  0.12500000000E+03 0.  0.
         21    1    1    2  503  501 -0.18819000941E+03  0.78672119723E+02 -0.82790047887E+02  0.22013399122E+03  0.00000000000E+00 0.  1.
          2    1    1    2  501    0 -0.45059253359E+02  0.14808077100E+02  0.42419240177E+03  0.42683581057E+03  0.00000000000E+00 0.  1.
<mgrwt>
<rscale>  4 0.24388413E+03</rscale>
<asrwt>0</asrwt>
<pdfrwt beam="1">  1       21 0.29242557E-01 0.24388413E+03</pdfrwt>
<pdfrwt beam="2">  1        2 0.15726577E+00 0.24388413E+03</pdfrwt>
<totfact> 0.35518641E+03</totfact>
</mgrwt>
</event>
<event>
 5    0  0.3040647E+000  0.2268232E+03  0.7546771E-02  0.1128896E+00
         21   -1    0    0  503  502  0.00000000000E+00  0.00000000000E+00  0.48860761093E+02  0.48860761093E+02  0.00000000000E+00 0. -1.
          2   -1    0    0  502    0 -0.00000000000E+00 -0.00000000000E+00 -0.39353762733E+04  0.39353762733E+04  0.00000000000E+00 0.  1.
         25    1    1    2    0    0  0.20922779503E+03  0.80235017741E+02 -0.43765280500E+03  0.50732524677E+03  0.12500000000E+03 0.  0.
         21    1    1    2  503  501 -0.45040865565E+02  0.89575744976E+01 -0.34495218917E+02  0.57435510269E+02  0.00000000000E+00 0.  1.
          2    1    1    2  501    0 -0.16418692946E+03 -0.89192592238E+02 -0.34143674883E+04  0.34194762774E+04  0.00000000000E+00 0.  1.
<mgrwt>
<rscale>  4 0.22682320E+03</rscale>
<asrwt>0</asrwt>
<pdfrwt beam="1">  1       21 0.75170354E-02 0.22682320E+03</pdfrwt>
<pdfrwt beam="2">  1        2 0.60544289E+00 0.22682320E+03</pdfrwt>
<totfact> 0.87201680E+02</totfact>
</mgrwt>
</event>
<event>
 5    0  0.3040647E+000  0.2741621E+03  0.7546771E-02  0.1098921E+00
         21   -1    0    0  503  502  0.00000000000E+00  0.00000000000E+00  0.94052114860E+03  0.94052114860E+03  0.00000000000E+00 0.  1.
          1   -1    0    0  502    0 -0.00000000000E+00 -0.00000000000E+00 -0.10894552068E+04  0.10894552068E+04  0.00000000000E+00 0.  1.
         25    1    1    2    0    0  0.29454812984E+03 -0.19324239763E+03  0.74299619051E+03  0.83172685670E+03  0.12500000000E+03 0.  0.
         21    1    1    2  503  501 -0.14023660352E+03  0.64455447139E+01  0.10307975193E+03  0.17416453505E+03  0.00000000000E+00 0.  1.
          1    1    1    2  501    0 -0.15431152632E+03  0.18679685292E+03 -0.99501000067E+03  0.10240849637E+04  0.00000000000E+00 0.  1.
<mgrwt>
<rscale>  4 0.27416211E+03</rscale>
<asrwt>0</asrwt>
<pdfrwt beam="1">  1       21 0.14469556E+00 0.27416211E+03</pdfrwt>
<pdfrwt beam="2">  1        1 0.16760849E+00 0.27416211E+03</pdfrwt>
<totfact> 0.47343336E+01</totfact>
</mgrwt>
</event>
<event>
 5    0  0.3040647E+000  0.3226151E+03  0.7546771E-02  0.1074452E+00
         21   -1    0    0  501  502  0.00000000000E+00  0.00000000000E+00  0.83296869136E+03  0.83296869136E+03  0.00000000000E+00 0.  1.
         -1   -1    0    0    0  501 -0.00000000000E+00 -0.00000000000E+00 -0.23605277650E+03  0.23605277650E+03  0.00000000000E+00 0.  1.
         25    1    1    2    0    0 -0.10630814634E+03 -0.27188014218E+03  0.46169425814E+02  0.32090006165E+03  0.12500000000E+03 0.  0.
         21    1    1    2  503  502 -0.23403598916E+02 -0.40041777201E+01  0.41284285515E+03  0.41352507171E+03  0.00000000000E+00 0.  1.
         -1    1    1    2    0  503  0.12971174526E+03  0.27588431990E+03  0.13790363390E+03  0.33459633451E+03  0.00000000000E+00 0.  1.
<mgrwt>
<rscale>  4 0.32261510E+03</rscale>
<asrwt>0</asrwt>
<pdfrwt beam="1">  1       21 0.12814903E+00 0.32261510E+03</pdfrwt>
<pdfrwt beam="2">  1       -1 0.36315812E-01 0.32261510E+03</pdfrwt>
<totfact> 0.28338093E+02</totfact>
</mgrwt>
</event>
<event>
 5    0  0.3040647E+000  0.2434263E+03  0.7546771E-02  0.1117531E+00
          1   -1    0    0  502    0 -0.00000000000E+00  0.00000000000E+00  0.83417359645E+03  0.83417359645E+03  0.00000000000E+00 0. -1.
         21   -1    0    0  503  502  0.00000000000E+00 -0.00000000000E+00 -0.20210664982E+03  0.20210664982E+03  0.00000000000E+00 0. -1.
         25    1    1    2    0    0 -0.52866998590E+01 -0.21870853314E+03 -0.63101403044E+02  0.25974633535E+03  0.12500000000E+03 0.  0.
         21    1    1    2  503  501 -0.63732755596E+02  0.21585914264E+02  0.20598289061E+02  0.70371196826E+02  0.00000000000E+00 0.  1.
          1    1    1    2  501    0  0.69019455455E+02  0.19712261887E+03  0.67457006062E+03  0.70616271410E+03  0.00000000000E+00 0. -1.
<mgrwt>
<rscale>  4 0.24342630E+03</rscale>
<asrwt>0</asrwt>
<pdfrwt beam="1">  1       21 0.31093331E-01 0.24342630E+03</pdfrwt>
<pdfrwt beam="2">  1        1 0.12833440E+00 0.24342630E+03</pdfrwt>
<totfact> 0.23490837E+03</totfact>
</mgrwt>
</event>
<event>
 5    0  0.3040647E+000  0.2371042E+03  0.7546771E-02  0.1121737E+00
         21   -1    0    0  503  502  0.00000000000E+00  0.00000000000E+00  0.12466018718E+03  0.12466018718E+03  0.00000000000E+00 0.  1.
          2   -1    0    0  502    0 -0.00000000000E+00 -0.00000000000E+00 -0.19341807389E+04  0.19341807389E+04  0.00000000000E+00 0.  1.
         25    1    1    2    0    0 -0.90989043666E+02 -0.27061313091E+03 -0.66201951498E+03  0.73171395429E+03  0.12500000000E+03 0.  0.
         21    1    1    2  503  501  0.49094624932E+02  0.18275960326E+03 -0.14326838920E+02  0.18978043391E+03  0.00000000000E+00 0.  1.
          2    1    1    2  501    0  0.41894418734E+02  0.87853527656E+02 -0.11331741978E+04  0.11373465378E+04  0.00000000000E+00 0.  1.
<mgrwt>
<rscale>  4 0.23710418E+03</rscale>
<asrwt>0</asrwt>
<pdfrwt beam="1">  1       21 0.19178492E-01 0.23710418E+03</pdfrwt>
<pdfrwt beam="2">  1        2 0.29756623E+00 0.23710418E+03</pdfrwt>
<totfact> 0.25403003E+03</totfact>
</mgrwt>
</event>
<event>
 5    0  0.3040647E+000  0.3315889E+03  0.7546771E-02  0.1070436E+00
         21   -1    0    0  503  502  0.00000000000E+00  0.00000000000E+00  0.14848627929E+03  0.14848627929E+03  0.00000000000E+00 0. -1.
          2   -1    0    0  502    0 -0.00000000000E+00 -0.00000000000E+00 -0.81748928081E+03  0.81748928081E+03  0.00000000000E+00 0. -1.
         25    1    1    2    0    0 -0.17867163385E+03 -0.26996565803E+03 -0.25032906116E+03  0.42789560423E+03  0.12500000000E+03 0.  0.
         21    1    1    2  503  501  0.74132643473E+01  0.25869062925E+02 -0.38166421712E+01  0.27179618510E+02  0.00000000000E+00 0.  1.
          2    1    1    2  501    0  0.17125836950E+03  0.24409659510E+03 -0.41485729818E+03  0.51090033736E+03  0.00000000000E+00 0. -1.
<mgrwt>
<rscale>  4 0.33158891E+03</rscale>
<asrwt>0</asrwt>
<pdfrwt beam="1">  1       21 0.22844043E-01 0.33158891E+03</pdfrwt>
<pdfrwt beam="2">  1        2 0.12576758E+00 0.33158891E+03</pdfrwt>
<totfact> 0.75785318E+03</totfact>
</mgrwt>
</event>
<event>
 5    0  0.3040647E+000  0.3317746E+03  0.7546771E-02  0.1070354E+00
         21   -1    0    0  503  502  0.00000000000E+00  0.00000000000E+00  0.16939369366E+03  0.16939369366E+03  0.00000000000E+00 0.  1.
          1   -1    0    0  502    0 -0.00000000000E+00 -0.00000000000E+00 -0.48420743287E+04  0.48420743287E+04  0.00000000000E+00 0.  1.
         25    1    1    2    0    0  0.16663425860E+03 -0.18631613844E+03 -0.93661750428E+03  0.97742418064E+03  0.12500000000E+03 0.  0.
         21    1    1    2  503  501 -0.26666539829E+03  0.17494715047E+03 -0.23154259715E+02  0.31977032359E+03  0.00000000000E+00 0.  1.
          1    1    1    2  501    0  0.10003113969E+03  0.11368987961E+02 -0.37129088710E+04  0.37142735181E+04  0.00000000000E+00 0.  1.
<mgrwt>
<rscale>  4 0.33177456E+03</rscale>
<asrwt>0</asrwt>
<pdfrwt beam="1">  1       21 0.26060564E-01 0.33177456E+03</pdfrwt>
<pdfrwt beam="2">  1        1 0.74493464E+00 0.33177456E+03</pdfrwt>
<totfact> 0.27856787E+00</totfact>
</mgrwt>
</event>
<event>
 5    0  0.3040647E+000  0.3753948E+03  0.7546771E-02  0.1052649E+00
         -2   -1    0    0    0  501 -0.00000000000E+00  0.00000000000E+00  0.43397147228E+03  0.43397147228E+03  0.00000000000E+00 0.  1.
         21   -1    0    0  501  502  0.00000000000E+00 -0.00000000000E+00 -0.90201434030E+03  0.90201434030E+03  0.00000000000E+00 0.  1.
         25    1    1    2    0    0 -0.29877363575E+03  0.17130163210E+03 -0.59280763777E+03  0.69689011327E+03  0.12500000000E+03 0.  0.
         21    1    1    2  503  502 -0.30187453010E+02 -0.36385963397E+02 -0.17049659730E+03  0.17693024145E+03  0.00000000000E+00 0.  1.
         -2    1    1    2    0  503  0.32896108876E+03 -0.13491566870E+03  0.29526136704E+03  0.46216545787E+03  0.00000000000E+00 0.  1.
<mgrwt>
<rscale>  4 0.37539475E+03</rscale>
<asrwt>0</asrwt>
<pdfrwt beam="1">  1       21 0.13877144E+00 0.37539475E+03</pdfrwt>
<pdfrwt beam="2">  1       -2 0.66764842E-01 0.37539475E+03</pdfrwt>
<totfact> 0.57193091E+01</totfact>
</mgrwt>
</event>
<event>
 5    0  0.3040647E+000  0.2465480E+03  0.7546771E-02  0.1115506E+00
         21   -1    0    0  503  502  0.00000000000E+00  0.00000000000E+00  0.41540026086E+02  0.41540026086E+02  0.00000000000E+00 0. -1.
          2   -1    0    0  502    0 -0.00000000000E+00 -0.00000000000E+00 -0.33569860650E+04  0.33569860650E+04  0.00000000000E+00 0. -1.
         25    1    1    2    0    0  0.20430442966E+03 -0.11674695207E+03 -0.46995033925E+03  0.54023001782E+03  0.12500000000E+03 0.  0.
         21    1    1    2  503  501 -0.14436124612E+02  0.27057982783E+02 -0.95690723687E+02  0.10048507713E+03  0.00000000000E+00 0. -1.
          2    1    1    2  501    0 -0.18986830505E+03  0.89688969285E+02 -0.27498049760E+04  0.27578109961E+04  0.00000000000E+00 0. -1.
<mgrwt>
<rscale>  4 0.24654797E+03</rscale>
<asrwt>0</asrwt>
<pdfrwt beam="1">  1       21 0.63907722E-02 0.24654797E+03</pdfrwt>
<pdfrwt beam="2">  1        2 0.51645948E+00 0.24654797E+03</pdfrwt>
<totfact> 0.28506578E+03</totfact>
</mgrwt>
</event>
<event>
 5    0  0.3040647E+000  0.3938369E+03  0.7546771E-02  0.1045935E+00
          1   -1    0    0  502    0 -0.00000000000E+00  0.00000000000E+00  0.21541011571E+04  0.21541011571E+04  0.00000000000E+00 0. -1.
         21   -1    0    0  503  502  0.00000000000E+00 -0.00000000000E+00 -0.18222278316E+03  0.18222278316E+03  0.00000000000E+00 0.  1.
         25    1    1    2    0    0  0.13275382986E+03 -0.32714718484E+03  0.98873354996E+03  0.10572927186E+04  0.12500000000E+03 0.  0.
         21    1    1    2  503  501  0.11682001183E+03  0.10411067874E+02 -0.80006995629E+02  0.14197332442E+03  0.00000000000E+00 0.  1.
          1    1    1    2  501    0 -0.24957384169E+03  0.31673611697E+03  0.10631518196E+04  0.11370578973E+04  0.00000000000E+00 0. -1.
<mgrwt>
<rscale>  4 0.39383694E+03</rscale>
<asrwt>0</asrwt>
<pdfrwt beam="1">  1       21 0.28034276E-01 0.39383694E+03</pdfrwt>
<pdfrwt beam="2">  1        1 0.33140016E+00 0.39383694E+03</pdfrwt>
<totfact> 0.33479695E+02</totfact>
</mgrwt>
</event>
<event>
 5    0  0.3040647E+000  0.2235394E+03  0.7546771E-02  0.1131272E+00
         21   -1    0    0  503  502  0.00000000000E+00  0.00000000000E+00  0.95008049452E+02  0.95008049452E+02  0.00000000000E+00 0. -1.
          1   -1    0    0  502    0 -0.00000000000E+00 -0.00000000000E+00 -0.13785993237E+04  0.13785993237E+04  0.00000000000E+00 0. -1.
         25    1    1    2    0    0  0.41581010014E+01  0.28850744587E+03 -0.35195294679E+03  0.47196367750E+03  0.12500000000E+03 0.  0.
         21    1    1    2  503  501  0.17270249907E+02 -0.11941536242E+03 -0.11252653715E+03  0.16498639907E+03  0.00000000000E+00 0. -1.
          1    1    1    2  501    0 -0.21428350908E+02 -0.16909208345E+03 -0.81911179036E+03  0.83665729663E+03  0.00000000000E+00 0. -1.
<mgrwt>
<rscale>  4 0.22353936E+03</rscale>
<asrwt>0</asrwt>
<pdfrwt beam="1">  1       21 0.14616624E-01 0.22353936E+03</pdfrwt>
<pdfrwt beam="2">  1        1 0.21209219E+00 0.22353936E+03</pdfrwt>
<totfact> 0.39689822E+03</totfact>
</mgrwt>
</event>
<event>
 5    0  0.3040647E+000  0.2577270E+03  0.7546771E-02  0.1108517E+00
         -1   -1    0    0    0  501 -0.00000000000E+00  0.00000000000E+00  0.23997239541E+03  0.23997239541E+03  0.00000000000E+00 0. -1.
         21   -1    0    0  501  502  0.00000000000E+00 -0.00000000000E+00 -0.61529579065E+03  0.61529579065E+03  0.00000000000E+00 0.  1.
         25    1    1    2    0    0  0.18947970846E+03  0.76085172695E+02 -0.38834944360E+03  0.45621464660E+03  0.12500000000E+03 0.  0.
         21    1    1    2  503  502  0.19087722920E+02  0.17521157515E+02 -0.12789923183E+03  0.13049730124E+03  0.00000000000E+00 0.  1.
         -1    1    1    2    0  503 -0.20856743138E+03 -0.93606330209E+02  0.14092528020E+03  0.26855623822E+03  0.00000000000E+00 0. -1.
<mgrwt>
<rscale>  4 0.25772695E+03</rscale>
<asrwt>0</asrwt>
<pdfrwt beam="1">  1       21 0.94660890E-01 0.25772695E+03</pdfrwt>
<pdfrwt beam="2">  1       -1 0.36918830E-01 0.25772695E+03</pdfrwt>
<totfact> 0.59358519E+02</totfact>
</mgrwt>
</event>
<event>
 5    0  0.4992461E+000  0.3601994E+03  0.7546771E-02  0.1058505E+00
         -2   -1    0    0    0  501 -0.00000000000E+00  0.00000000000E+00  0.17541730247E+04  0.17541730247E+04  0.00000000000E+00 0. -1.
         21   -1    0    0  501  502  0.00000000000E+00 -0.00000000000E+00 -0.87823966357E+03  0.87823966357E+03  0.00000000000E+00 0.  1.
         25    1    1    2    0    0  0.21307727256E+02 -0.37927951890E+03 -0.78017098806E+03  0.87669763505E+03  0.12500000000E+03 0.  0.
         21    1    1    2  503  502 -0.40552586807E+02  0.42824793296E+02 -0.64668669101E+01  0.59332078888E+02  0.00000000000E+00 0. -1.
         -2    1    1    2    0  503  0.19244859551E+02  0.33645472560E+03  0.16625712161E+04  0.16963829744E+04  0.00000000000E+00 0. -1.
<mgrwt>
<rscale>  4 0.36019944E+03</rscale>
<asrwt>0</asrwt>
<pdfrwt beam="1">  1       21 0.13511379E+00 0.36019944E+03</pdfrwt>
<pdfrwt beam="2">  1       -2 0.26987277E+00 0.36019944E+03</pdfrwt>
<totfact> 0.15700919E+00</totfact>
</mgrwt>
</event>
<event>
 5    0  0.3040647E+000  0.3189623E+03  0.7546771E-02  0.1076128E+00
          2   -1    0    0  502    0 -0.00000000000E+00  0.00000000000E+00  0.45157719787E+04  0.45157719787E+04  0.00000000000E+00 0.  1.
         21   -1    0    0  503  502  0.00000000000E+00 -0.00000000000E+00 -0.69404124359E+02  0.69404124359E+02  0.00000000000E+00 0.  1.
         25    1    1    2    0    0  0.24815326991E+02  0.30374810031E+03  0.42813252204E+03  0.54018623207E+03  0.12500000000E+03 0.  0.
         21    1    1    2  503  501 -0.46114723754E+02 -0.11849494271E+02  0.63137473457E+02  0.79077928753E+02  0.00000000000E+00 0.  1.
          2    1    1    2  501    0  0.21299396763E+02 -0.29189860604E+03  0.39550978588E+04  0.39659119422E+04  0.00000000000E+00 0.  1.
<mgrwt>
<rscale>  4 0.31896235E+03</rscale>
<asrwt>0</asrwt>
<pdfrwt beam="1">  1       21 0.10677561E-01 0.31896235E+03</pdfrwt>
<pdfrwt beam="2">  1        2 0.69473392E+00 0.31896235E+03</pdfrwt>
<totfact> 0.14403411E+02</totfact>
</mgrwt>
</event>
<event>
 5    0  0.3040647E+000  0.2159060E+03  0.7546771E-02  0.1136973E+00
         21   -1    0    0  503  502  0.00000000000E+00  0.00000000000E+00  0.47352125673E+02  0.47352125673E+02  0.00000000000E+00 0.  1.
          2   -1    0    0  502    0 -0.00000000000E+00 -0.00000000000E+00 -0.17673309955E+04  0.17673309955E+04  0.00000000000E+00 0. -1.
         25    1    1    2    0    0  0.93593921234E+02 -0.22218115223E+03 -0.71678676031E+03  0.76650671638E+03  0.12500000000E+03 0.  0.
         21    1    1    2  503  501 -0.58421691492E+02  0.67683436445E+02 -0.11350974475E+03  0.14449430355E+03  0.00000000000E+00 0. -1.
          2    1    1    2  501    0 -0.35172229742E+02  0.15449771579E+03 -0.88968236480E+03  0.90368210128E+03  0.00000000000E+00 0. -1.
<mgrwt>
<rscale>  4 0.21590598E+03</rscale>
<asrwt>0</asrwt>
<pdfrwt beam="1">  1       21 0.72849437E-02 0.21590598E+03</pdfrwt>
<pdfrwt beam="2">  1        2 0.27189703E+00 0.21590598E+03</pdfrwt>
<totfact> 0.17824123E+04</totfact>
</mgrwt>
</event>
<event>
 5    0  0.3040647E+000  0.2894114E+03  0.7546771E-02  0.1090657E+00
          2   -1    0    0  502    0 -0.00000000000E+00  0.00000000000E+00  0.25571456183E+03  0.25571456183E+03  0.00000000000E+00 0.  1.
         21   -1    0    0  503  502  0.00000000000E+00 -0.00000000000E+00 -0.50746164243E+03  0.50746164243E+03  0.00000000000E+00 0.  1.
         25    1    1    2    0    0 -0.26623864737E+03 -0.96829598216E+02 -0.32608734300E+03  0.44968538303E+03  0.12500000000E+03 0.  0.
         21    1    1    2  503  501  0.34566545230E+02 -0.12297064692E+02 -0.18506482076E+02  0.41092015381E+02  0.00000000000E+00 0. -1.
          2    1    1    2  501    0  0.23167210214E+03  0.10912666291E+03  0.92846744482E+02  0.27239880585E+03  0.00000000000E+00 0.  1.
<mgrwt>
<rscale>  4 0.28941136E+03</rscale>
<asrwt>0</asrwt>
<pdfrwt beam="1">  1       21 0.78071020E-01 0.28941136E+03</pdfrwt>
<pdfrwt beam="2">  1        2 0.39340703E-01 0.28941136E+03</pdfrwt>
<totfact> 0.22622792E+03</totfact>
</mgrwt>
</event>
<event>
 5    0  0.3040647E+000  0.2877501E+03  0.7546771E-02  0.1091530E+00
         21   -1    0    0  501  502  0.00000000000E+00  0.00000000000E+00  0.12014047871E+03  0.12014047871E+03  0.00000000000E+00 0.  1.
         -1   -1    0    0    0  501 -0.00000000000E+00 -0.00000000000E+00 -0.75583183308E+03  0.75583183308E+03  0.00000000000E+00 0.  1.
         25    1    1    2    0    0 -0.20959880662E+03 -0.15245812993E+03 -0.15928153118E+03  0.32889321563E+03  0.12500000000E+03 0.  0.
         21    1    1    2  503  502  0.21744300980E+02 -0.52479589775E+01 -0.26717827587E+02  0.34845344158E+02  0.00000000000E+00 0. -1.
         -1    1    1    2    0  503  0.18785450564E+03  0.15770608890E+03 -0.44969199561E+03  0.51223375199E+03  0.00000000000E+00 0.  1.
<mgrwt>
<rscale>  4 0.28775014E+03</rscale>
<asrwt>0</asrwt>
<pdfrwt beam="1">  1       21 0.18483151E-01 0.28775014E+03</pdfrwt>
<pdfrwt beam="2">  1       -1 0.11628182E+00 0.28775014E+03</pdfrwt>
<totfact> 0.17462654E+03</totfact>
</mgrwt>
</event>
<event>
 5    0  0.3040647E+000  0.3132096E+03  0.7546771E-02  0.1078818E+00
         21   -1    0    0  503  502  0.00000000000E+00  0.00000000000E+00  0.33417234069E+03  0.33417234069E+03  0.00000000000E+00 0.  1.
          1   -1    0    0  502    0 -0.00000000000E+00 -0.00000000000E+00 -0.70221212172E+03  0.70221212172E+03  0.00000000000E+00 0.  1.
         25    1    1    2    0    0 -0.30308882589E+03  0.63068400510E+02  0.94058068568E+02  0.34686074985E+03  0.12500000000E+03 0.  0.
         21    1    1    2  503  501  0.31955268349E+02  0.20746238450E+02  0.73837480952E+02  0.83087418894E+02  0.00000000000E+00 0.  1.
          1    1    1    2  501    0  0.27113355755E+03 -0.83814638959E+02 -0.53593533055E+03  0.60643629366E+03  0.00000000000E+00 0.  1.
<mgrwt>
<rscale>  4 0.31320958E+03</rscale>
<asrwt>0</asrwt>
<pdfrwt beam="1">  1       21 0.51411130E-01 0.31320958E+03</pdfrwt>
<pdfrwt beam="2">  1        1 0.10803263E+00 0.31320958E+03</pdfrwt>
<totfact> 0.10675996E+03</totfact>
</mgrwt>
</event>
<event>
 5    0  0.3040647E+000  0.4638694E+03  0.7546771E-02  0.1023665E+00
         21   -1    0    0  503  502  0.00000000000E+00  0.00000000000E+00  0.15458678865E+03  0.15458678865E+03  0.00000000000E+00 0.  1.
          2   -1    0    0  502    0 -0.00000000000E+00 -0.00000000000E+00 -0.23131455016E+04  0.23131455016E+04  0.00000000000E+00 0. -1.
         25    1    1    2    0    0  0.46810721158E+03  0.26339438101E+02 -0.37318496374E+03  0.61213572408E+03  0.12500000000E+03 0.  0.
         21    1    1    2  503  501 -0.27772662762E+02  0.82849102820E+01 -0.18575366137E+02  0.34423898129E+02  0.00000000000E+00 0.  1.
          2    1    1    2  501    0 -0.44033454881E+03 -0.34624348383E+02 -0.17667983831E+04  0.18211726681E+04  0.00000000000E+00 0. -1.
<mgrwt>
<rscale>  4 0.46386938E+03</rscale>
<asrwt>0</asrwt>
<pdfrwt beam="1">  1       21 0.23782582E-01 0.46386938E+03</pdfrwt>
<pdfrwt beam="2">  1        2 0.35586855E+00 0.46386938E+03</pdfrwt>
<totfact> 0.97182661E+02</totfact>
</mgrwt>
</event>
<event>
 5    0  0.3040647E+000  0.3357860E+03  0.7546771E-02  0.1068605E+00
         21   -1    0    0  503  502  0.00000000000E+00  0.00000000000E+00  0.10866286418E+03  0.10866286418E+03  0.00000000000E+00 0. -1.
          1   -1    0    0  502    0 -0.00000000000E+00 -0.00000000000E+00 -0.13108920184E+04  0.13108920184E+04  0.00000000000E+00 0.  1.
         25    1    1    2    0    0 -0.15964760753E+03 -0.27596435212E+03 -0.44646209485E+03  0.56266960498E+03  0.12500000000E+03 0.  0.
         21    1    1    2  503  501 -0.39716507927E+02  0.39233962770E+02 -0.21088517113E+02  0.59677721057E+02  0.00000000000E+00 0.  1.
          1    1    1    2  501    0  0.19936411545E+03  0.23673038935E+03 -0.73467854224E+03  0.79720755653E+03  0.00000000000E+00 0.  1.
<mgrwt>
<rscale>  4 0.33578596E+03</rscale>
<asrwt>0</asrwt>
<pdfrwt beam="1">  1       21 0.16717363E-01 0.33578596E+03</pdfrwt>
<pdfrwt beam="2">  1        1 0.20167570E+00 0.33578596E+03</pdfrwt>
<totfact> 0.33217965E+03</totfact>
</mgrwt>
</event>
<event>
 5    0  0.3040647E+000  0.3756990E+03  0.7546771E-02  0.1052535E+00
         21   -1    0    0  503  502  0.00000000000E+00  0.00000000000E+00  0.10986297251E+03  0.10986297251E+03  0.00000000000E+00 0.  1.
          1   -1    0    0  502    0 -0.00000000000E+00 -0.00000000000E+00 -0.28730656272E+04  0.28730656272E+04  0.00000000000E+00 0.  1.
         25    1    1    2    0    0  0.29680278120E+03 -0.24308844049E+03 -0.17263803232E+04  0.17729066250E+04  0.12500000000E+03 0.  0.
         21    1    1    2  503  501 -0.73797728775E+02  0.35867167932E+03 -0.52765814551E+03  0.64227299246E+03  0.00000000000E+00 0.  1.
          1    1    1    2  501    0 -0.22300505243E+03 -0.11558323883E+03 -0.50916418595E+03  0.56774898217E+03  0.00000000000E+00 0.  1.
<mgrwt>
<rscale>  4 0.37569896E+03</rscale>
<asrwt>0</asrwt>
<pdfrwt beam="1">  1       21 0.16901995E-01 0.37569896E+03</pdfrwt>
<pdfrwt beam="2">  1        1 0.44201010E+00 0.37569896E+03</pdfrwt>
<totfact> 0.29105489E+02</totfact>
</mgrwt>
</event>
<event>
 5    0  0.3040647E+000  0.2736463E+03  0.7546771E-02  0.1099211E+00
         21   -1    0    0  503  502  0.00000000000E+00  0.00000000000E+00  0.95052009132E+03  0.95052009132E+03  0.00000000000E+00 0.  1.
          2   -1    0    0  502    0 -0.00000000000E+00 -0.00000000000E+00 -0.14760027160E+04  0.14760027160E+04  0.00000000000E+00 0.  1.
         25    1    1    2    0    0  0.29517630398E+03 -0.21146396457E+03  0.23282830990E+03  0.44908805444E+03  0.12500000000E+03 0.  0.
         21    1    1    2  503  501 -0.17144005021E+03  0.13974999113E+03  0.58557772162E+03  0.62595768140E+03  0.00000000000E+00 0.  1.
          2    1    1    2  501    0 -0.12373625377E+03  0.71713973441E+02 -0.13438886562E+04  0.13514770715E+04  0.00000000000E+00 0.  1.
<mgrwt>
<rscale>  4 0.27364634E+03</rscale>
<asrwt>0</asrwt>
<pdfrwt beam="1">  1       21 0.14623386E+00 0.27364634E+03</pdfrwt>
<pdfrwt beam="2">  1        2 0.22707734E+00 0.27364634E+03</pdfrwt>
<totfact> 0.53639312E+01</totfact>
</mgrwt>
</event>
<event>
 5    0  0.3040647E+000  0.3113957E+03  0.7546771E-02  0.1079679E+00
         -1   -1    0    0    0  501 -0.00000000000E+00  0.00000000000E+00  0.16352211212E+03  0.16352211212E+03  0.00000000000E+00 0.  1.
         21   -1    0    0  501  502  0.00000000000E+00 -0.00000000000E+00 -0.80019759518E+03  0.80019759518E+03  0.00000000000E+00 0.  1.
         25    1    1    2    0    0 -0.17135437778E+03 -0.21356146705E+03 -0.15952528217E+03  0.34065251891E+03  0.12500000000E+03 0.  0.
         21    1    1    2  503  502 -0.13782323780E+02 -0.21657529801E+02 -0.23947218235E+03  0.24084419687E+03  0.00000000000E+00 0.  1.
         -1    1    1    2    0  503  0.18513670156E+03  0.23521899685E+03 -0.23767801854E+03  0.38222299152E+03  0.00000000000E+00 0.  1.
<mgrwt>
<rscale>  4 0.31139572E+03</rscale>
<asrwt>0</asrwt>
<pdfrwt beam="1">  1       21 0.12310732E+00 0.31139572E+03</pdfrwt>
<pdfrwt beam="2">  1       -1 0.25157248E-01 0.31139572E+03</pdfrwt>
<totfact> 0.59173594E+02</totfact>
</mgrwt>
</event>
<event>
 5    0  0.3040647E+000  0.2151202E+03  0.7546771E-02  0.1137574E+00
         21   -1    0    0  503  502  0.00000000000E+00  0.00000000000E+00  0.16026275590E+03  0.16026275590E+03  0.00000000000E+00 0.  1.
          2   -1    0    0  502    0 -0.00000000000E+00 -0.00000000000E+00 -0.15341473899E+04  0.15341473899E+04  0.00000000000E+00 0. -1.
         25    1    1    2    0    0  0.21806313403E+03 -0.22979035101E+02 -0.19873193002E+02  0.25317881087E+03  0.12500000000E+03 0.  0.
         21    1    1    2  503  501 -0.49866691823E+02 -0.17949485163E+02  0.19785386555E+02  0.56571481262E+02  0.00000000000E+00 0.  1.
          2    1    1    2  501    0 -0.16819644220E+03  0.40928520264E+02 -0.13737968276E+04  0.13846598537E+04  0.00000000000E+00 0. -1.
<mgrwt>
<rscale>  4 0.21512017E+03</rscale>
<asrwt>0</asrwt>
<pdfrwt beam="1">  1       21 0.24655809E-01 0.21512017E+03</pdfrwt>
<pdfrwt beam="2">  1        2 0.23602267E+00 0.21512017E+03</pdfrwt>
<totfact> 0.25879622E+03</totfact>
</mgrwt>
</event>
<event>
 5    0  0.3040647E+000  0.3900849E+03  0.7546771E-02  0.1047268E+00
         21   -1    0    0  503  502  0.00000000000E+00  0.00000000000E+00  0.48292961061E+03  0.48292961061E+03  0.00000000000E+00 0.  1.
          1   -1    0    0  502    0 -0.00000000000E+00 -0.00000000000E+00 -0.92842824216E+03  0.92842824216E+03  0.00000000000E+00 0. -1.
         25    1    1    2    0    0  0.30494063536E+03 -0.32219853928E+02  0.15465891222E+03  0.36547406092E+03  0.12500000000E+03 0.  0.
         21    1    1    2  503  501  0.73455357173E+02 -0.51071535423E+01  0.17094580638E+03  0.18612963556E+03  0.00000000000E+00 0.  1.
          1    1    1    2  501    0 -0.37839599253E+03  0.37327007471E+02 -0.77110335015E+03  0.85975415629E+03  0.00000000000E+00 0. -1.
<mgrwt>
<rscale>  4 0.39008490E+03</rscale>
<asrwt>0</asrwt>
<pdfrwt beam="1">  1       21 0.74296864E-01 0.39008490E+03</pdfrwt>
<pdfrwt beam="2">  1        1 0.14283511E+00 0.39008490E+03</pdfrwt>
<totfact> 0.29941524E+02</totfact>
</mgrwt>
</event>
<event>
 5    0  0.3040647E+000  0.2586148E+03  0.7546771E-02  0.1107978E+00
          1   -1    0    0  502    0 -0.00000000000E+00  0.00000000000E+00  0.36489006629E+03  0.36489006629E+03  0.00000000000E+00 0. -1.
         21   -1    0    0  503  502  0.00000000000E+00 -0.00000000000E+00 -0.78034540378E+03  0.78034540378E+03  0.00000000000E+00 0.  1.
         25    1    1    2    0    0  0.17997299013E+03  0.12808786100E+03  0.17578902655E+03  0.30874513626E+03  0.12500000000E+03 0.  0.
         21    1    1    2  503  501 -0.27208578663E+02  0.59404751369E+02 -0.59104162073E+03  0.59464226950E+03  0.00000000000E+00 0.  1.
          1    1    1    2  501    0 -0.15276441146E+03 -0.18749261237E+03 -0.20274331064E+00  0.24184806431E+03  0.00000000000E+00 0. -1.
<mgrwt>
<rscale>  4 0.25861481E+03</rscale>
<asrwt>0</asrwt>
<pdfrwt beam="1">  1       21 0.12005314E+00 0.25861481E+03</pdfrwt>
<pdfrwt beam="2">  1        1 0.56136934E-01 0.25861481E+03</pdfrwt>
<totfact> 0.38017458E+02</totfact>
</mgrwt>
</event>
<event>
 5    0  0.3040647E+000  0.2954596E+03  0.7546771E-02  0.1087533E+00
         21   -1    0    0  503  502  0.00000000000E+00  0.00000000000E+00  0.65523451744E+02  0.65523451744E+02  0.00000000000E+00 0.  1.
          2   -1    0    0  502    0 -0.00000000000E+00 -0.00000000000E+00 -0.20786524019E+04  0.20786524019E+04  0.00000000000E+00 0.  1.
         25    1    1    2    0    0  0.12997726284E+03  0.25333023176E+03 -0.44130984250E+03  0.53986078971E+03  0.12500000000E+03 0.  0.
         21    1    1    2  503  501 -0.79374773574E+02 -0.22287764254E+03 -0.92396816299E+03  0.95377773325E+03  0.00000000000E+00 0.  1.
          2    1    1    2  501    0 -0.50602489266E+02 -0.30452589226E+02 -0.64785094471E+03  0.65053733073E+03  0.00000000000E+00 0.  1.
<mgrwt>
<rscale>  4 0.29545959E+03</rscale>
<asrwt>0</asrwt>
<pdfrwt beam="1">  1       21 0.10080532E-01 0.29545959E+03</pdfrwt>
<pdfrwt beam="2">  1        2 0.31979263E+00 0.29545959E+03</pdfrwt>
<totfact> 0.67349055E+03</totfact>
</mgrwt>
</event>
<event>
 5    0  0.3040647E+000  0.2710303E+03  0.7546771E-02  0.1100691E+00
          2   -1    0    0  502    0 -0.00000000000E+00  0.00000000000E+00  0.17199038029E+04  0.17199038029E+04  0.00000000000E+00 0.  1.
         21   -1    0    0  503  502  0.00000000000E+00 -0.00000000000E+00 -0.44588877264E+02  0.44588877264E+02  0.00000000000E+00 0.  1.
         25    1    1    2    0    0  0.84286432133E+02  0.23727239400E+03  0.71484321652E+03  0.76813294149E+03  0.12500000000E+03 0.  0.
         21    1    1    2  503  501 -0.75422909755E+02 -0.21618519141E+03  0.73767264457E+03  0.77238952793E+03  0.00000000000E+00 0.  1.
          2    1    1    2  501    0 -0.88635223783E+01 -0.21087202589E+02  0.22279906457E+03  0.22397021078E+03  0.00000000000E+00 0.  1.
<mgrwt>
<rscale>  4 0.27103025E+03</rscale>
<asrwt>0</asrwt>
<pdfrwt beam="1">  1       21 0.68598286E-02 0.27103025E+03</pdfrwt>
<pdfrwt beam="2">  1        2 0.26460053E+00 0.27103025E+03</pdfrwt>
<totfact> 0.20639565E+04</totfact>
</mgrwt>
</event>
<event>
 5    0  0.3040647E+000  0.2207343E+03  0.7546771E-02  0.1133337E+00
         21   -1    0    0  503  502  0.00000000000E+00  0.00000000000E+00  0.53773290786E+02  0.53773290786E+02  0.00000000000E+00 0. -1.
          1   -1    0    0  502    0 -0.00000000000E+00 -0.00000000000E+00 -0.22675474308E+04  0.22675474308E+04  0.00000000000E+00 0. -1.
         25    1    1    2    0    0 -0.21174919790E+03  0.98630165555E+02 -0.18386161443E+04  0.18576059750E+04  0.12500000000E+03 0.  0.
         21    1    1    2  503  501  0.16201728239E+03 -0.70223168708E+02 -0.15095103972E+03  0.23230822114E+03  0.00000000000E+00 0. -1.
          1    1    1    2  501    0  0.49731915512E+02 -0.28406996847E+02 -0.22420695595E+03  0.23140652538E+03  0.00000000000E+00 0. -1.
<mgrwt>
<rscale>  4 0.22073429E+03</rscale>
<asrwt>0</asrwt>
<pdfrwt beam="1">  1       21 0.82728125E-02 0.22073429E+03</pdfrwt>
<pdfrwt beam="2">  1        1 0.34885351E+00 0.22073429E+03</pdfrwt>
<totfact> 0.28946394E+03</totfact>
</mgrwt>
</event>
<event>
 5    0  0.3040647E+000  0.4357245E+03  0.7546771E-02  0.1032651E+00
          2   -1    0    0  502    0 -0.00000000000E+00  0.00000000000E+00  0.61590710122E+03  0.61590710122E+03  0.00000000000E+00 0. -1.
         21   -1    0    0  503  502  0.00000000000E+00 -0.00000000000E+00 -0.30310866539E+03  0.30310866539E+03  0.00000000000E+00 0. -1.
         25    1    1    2    0    0  0.23234142225E+03  0.33735647947E+03  0.16357790962E+03  0.45844810311E+03  0.12500000000E+03 0.  0.
         21    1    1    2  503  501 -0.14754559594E+03 -0.89078273910E+02  0.74602652162E+02  0.18780361411E+03  0.00000000000E+00 0. -1.
          2    1    1    2  501    0 -0.84795826304E+02 -0.24827820556E+03  0.74617874046E+02  0.27276404939E+03  0.00000000000E+00 0. -1.
<mgrwt>
<rscale>  4 0.43384934E+03</rscale>
<asrwt>0</asrwt>
<pdfrwt beam="1">  1       21 0.46632102E-01 0.43572446E+03</pdfrwt>
<pdfrwt beam="2">  1        2 0.94754939E-01 0.43572446E+03</pdfrwt>
<totfact> 0.25282648E+03</totfact>
</mgrwt>
</event>
<event>
 5    0  0.3040647E+000  0.3515257E+03  0.7546771E-02  0.1061991E+00
          2   -1    0    0  502    0 -0.00000000000E+00  0.00000000000E+00  0.17827121244E+04  0.17827121244E+04  0.00000000000E+00 0. -1.
         21   -1    0    0  503  502  0.00000000000E+00 -0.00000000000E+00 -0.29345965828E+03  0.29345965828E+03  0.00000000000E+00 0.  1.
         25    1    1    2    0    0  0.30677489525E+03  0.41853919156E+02 -0.16530886343E+03  0.37257832362E+03  0.12500000000E+03 0.  0.
         21    1    1    2  503  501  0.20511840356E+02 -0.20321999735E+01  0.47390732577E+01  0.21150041297E+02  0.00000000000E+00 0. -1.
          2    1    1    2  501    0 -0.32728673560E+03 -0.39821719182E+02  0.16498222563E+04  0.16824434178E+04  0.00000000000E+00 0. -1.
<mgrwt>
<rscale>  4 0.35152568E+03</rscale>
<asrwt>0</asrwt>
<pdfrwt beam="1">  1       21 0.45147641E-01 0.35152568E+03</pdfrwt>
<pdfrwt beam="2">  1        2 0.27426340E+00 0.35152568E+03</pdfrwt>
<totfact> 0.53816920E+02</totfact>
</mgrwt>
</event>
<event>
 5    0  0.3040647E+000  0.2974410E+03  0.7546771E-02  0.1086527E+00
          1   -1    0    0  502    0 -0.00000000000E+00  0.00000000000E+00  0.34923651190E+03  0.34923651190E+03  0.00000000000E+00 0.  1.
         21   -1    0    0  503  502  0.00000000000E+00 -0.00000000000E+00 -0.31707589865E+03  0.31707589865E+03  0.00000000000E+00 0. -1.
         25    1    1    2    0    0 -0.14197184439E+03 -0.23325832960E+03  0.52636628693E+02  0.30489517479E+03  0.12500000000E+03 0.  0.
         21    1    1    2  503  501 -0.22005413593E+02  0.21294657879E+02 -0.81073908818E+02  0.86664175832E+02  0.00000000000E+00 0. -1.
          1    1    1    2  501    0  0.16397725798E+03  0.21196367172E+03  0.60597893375E+02  0.27475305994E+03  0.00000000000E+00 0.  1.
<mgrwt>
<rscale>  4 0.29744104E+03</rscale>
<asrwt>0</asrwt>
<pdfrwt beam="1">  1       21 0.48780907E-01 0.29744104E+03</pdfrwt>
<pdfrwt beam="2">  1        1 0.53728694E-01 0.29744104E+03</pdfrwt>
<totfact> 0.30761340E+03</totfact>
</mgrwt>
</event>
<event>
 5    0  0.3040647E+000  0.1910177E+03  0.7546771E-02  0.1157547E+00
         21   -1    0    0  501  502  0.00000000000E+00  0.00000000000E+00  0.11962019241E+04  0.11962019241E+04  0.00000000000E+00 0.  1.
         -3   -1    0    0    0  501 -0.00000000000E+00 -0.00000000000E+00 -0.89086852266E+02  0.89086852266E+02  0.00000000000E+00 0.  1.
         25    1    1    2    0    0  0.56832998028E+02 -0.19517002616E+03  0.52778994411E+03  0.57923100218E+03  0.12500000000E+03 0.  0.
         21    1    1    2  503  502 -0.35862341729E+02  0.60252515672E+02  0.56436388682E+03  0.56870297163E+03  0.00000000000E+00 0.  1.
         -3    1    1    2    0  503 -0.20970656299E+02  0.13491751049E+03  0.14961240927E+02  0.13735480258E+03  0.00000000000E+00 0.  1.
<mgrwt>
<rscale>  4 0.19101772E+03</rscale>
<asrwt>0</asrwt>
<pdfrwt beam="1">  1       21 0.18403105E+00 0.19101772E+03</pdfrwt>
<pdfrwt beam="2">  1       -3 0.13705670E-01 0.19101772E+03</pdfrwt>
<totfact> 0.36507618E+02</totfact>
</mgrwt>
</event>
<event>
 5    0  0.3040647E+000  0.3127240E+03  0.7546771E-02  0.1079048E+00
          2   -1    0    0  502    0 -0.00000000000E+00  0.00000000000E+00  0.13748045781E+04  0.13748045781E+04  0.00000000000E+00 0.  1.
         21   -1    0    0  503  502  0.00000000000E+00 -0.00000000000E+00 -0.34819371993E+03  0.34819371993E+03  0.00000000000E+00 0. -1.
         25    1    1    2    0    0  0.15794441241E+03 -0.15106511020E+03  0.11104473782E+03  0.27517819450E+03  0.12500000000E+03 0.  0.
         21    1    1    2  503  501  0.28803951536E+02 -0.88052158668E+02 -0.23780343380E+03  0.25521231044E+03  0.00000000000E+00 0. -1.
          2    1    1    2  501    0 -0.18674836394E+03  0.23911726887E+03  0.11533695542E+04  0.11926077931E+04  0.00000000000E+00 0.  1.
<mgrwt>
<rscale>  4 0.31272398E+03</rscale>
<asrwt>0</asrwt>
<pdfrwt beam="1">  1       21 0.53568266E-01 0.31272398E+03</pdfrwt>
<pdfrwt beam="2">  1        2 0.21150839E+00 0.31272398E+03</pdfrwt>
<totfact> 0.63203891E+02</totfact>
</mgrwt>
</event>
<event>
 5    0  0.3040647E+000  0.2882881E+03  0.7546771E-02  0.1091246E+00
          1   -1    0    0  502    0 -0.00000000000E+00  0.00000000000E+00  0.75915244991E+03  0.75915244991E+03  0.00000000000E+00 0.  1.
         21   -1    0    0  503  502  0.00000000000E+00 -0.00000000000E+00 -0.10907942678E+03  0.10907942678E+03  0.00000000000E+00 0.  1.
         25    1    1    2    0    0 -0.13337022964E+03  0.21261056582E+03  0.31393576280E+03  0.42091749075E+03  0.12500000000E+03 0.  0.
         21    1    1    2  503  501  0.87889471912E+01  0.25122847071E+02  0.26836708180E+02  0.37796983261E+02  0.00000000000E+00 0. -1.
          1    1    1    2  501    0  0.12458128245E+03 -0.23773341289E+03  0.30930055215E+03  0.40951740269E+03  0.00000000000E+00 0.  1.
<mgrwt>
<rscale>  4 0.28828813E+03</rscale>
<asrwt>0</asrwt>
<pdfrwt beam="1">  1       21 0.16781451E-01 0.28828813E+03</pdfrwt>
<pdfrwt beam="2">  1        1 0.11679268E+00 0.28828813E+03</pdfrwt>
<totfact> 0.86999749E+03</totfact>
</mgrwt>
</event>
<event>
 5    0  0.3040647E+000  0.2491598E+03  0.7546771E-02  0.1113837E+00
          2   -1    0    0  502    0 -0.00000000000E+00  0.00000000000E+00  0.33599308623E+03  0.33599308623E+03  0.00000000000E+00 0.  1.
         21   -1    0    0  503  502  0.00000000000E+00 -0.00000000000E+00 -0.30923308923E+03  0.30923308923E+03  0.00000000000E+00 0. -1.
         25    1    1    2    0    0 -0.23297612287E+03 -0.27663529869E+02 -0.16563728242E+03  0.31321534770E+03  0.12500000000E+03 0.  0.
         21    1    1    2  503  501  0.26594987304E+02 -0.21690628806E+02 -0.12987656423E+02  0.36694085996E+02  0.00000000000E+00 0. -1.
          2    1    1    2  501    0  0.20638113556E+03  0.49354158675E+02  0.20538493584E+03  0.29531674176E+03  0.00000000000E+00 0.  1.
<mgrwt>
<rscale>  4 0.24915976E+03</rscale>
<asrwt>0</asrwt>
<pdfrwt beam="1">  1       21 0.47574321E-01 0.24915976E+03</pdfrwt>
<pdfrwt beam="2">  1        2 0.51691244E-01 0.24915976E+03</pdfrwt>
<totfact> 0.49926569E+03</totfact>
</mgrwt>
</event>
<event>
 5    0  0.3040647E+000  0.3679109E+03  0.7546771E-02  0.1055495E+00
         21   -1    0    0  503  502  0.00000000000E+00  0.00000000000E+00  0.24294243639E+03  0.24294243639E+03  0.00000000000E+00 0.  1.
          2   -1    0    0  502    0 -0.00000000000E+00 -0.00000000000E+00 -0.12607390613E+04  0.12607390613E+04  0.00000000000E+00 0.  1.
         25    1    1    2    0    0 -0.24713430882E+03 -0.22513411002E+03 -0.62005237958E+03  0.71543740992E+03  0.12500000000E+03 0.  0.
         21    1    1    2  503  501 -0.83050031494E+01 -0.28001354470E+02  0.13907035220E+03  0.14210422861E+03  0.00000000000E+00 0.  1.
          2    1    1    2  501    0  0.25543931197E+03  0.25313546449E+03 -0.53681459757E+03  0.64613985921E+03  0.00000000000E+00 0.  1.
<mgrwt>
<rscale>  4 0.36791085E+03</rscale>
<asrwt>0</asrwt>
<pdfrwt beam="1">  1       21 0.37375761E-01 0.36791085E+03</pdfrwt>
<pdfrwt beam="2">  1        2 0.19395985E+00 0.36791085E+03</pdfrwt>
<totfact> 0.15171538E+03</totfact>
</mgrwt>
</event>
<event>
 5    0  0.3040647E+000  0.3087884E+03  0.7546771E-02  0.1080928E+00
         21   -1    0    0  503  502  0.00000000000E+00  0.00000000000E+00  0.52532095523E+03  0.52532095523E+03  0.00000000000E+00 0.  1.
          2   -1    0    0  502    0 -0.00000000000E+00 -0.00000000000E+00 -0.16647515989E+04  0.16647515989E+04  0.00000000000E+00 0. -1.
         25    1    1    2    0    0 -0.24550026017E+03 -0.16446324006E+03 -0.35167597873E+03  0.47604572164E+03  0.12500000000E+03 0.  0.
         21    1    1    2  503  501  0.49783683900E+01  0.22756110305E+02  0.44725396587E+03  0.44786017315E+03  0.00000000000E+00 0.  1.
          2    1    1    2  501    0  0.24052189178E+03  0.14170712976E+03 -0.12350086308E+04  0.12661666593E+04  0.00000000000E+00 0. -1.
<mgrwt>
<rscale>  4 0.30878843E+03</rscale>
<asrwt>0</asrwt>
<pdfrwt beam="1">  1       21 0.80818608E-01 0.30878843E+03</pdfrwt>
<pdfrwt beam="2">  1        2 0.25611563E+00 0.30878843E+03</pdfrwt>
<totfact> 0.17814127E+02</totfact>
</mgrwt>
</event>
<event>
 5    0  0.3040647E+000  0.2021292E+03  0.7546771E-02  0.1147955E+00
         21   -1    0    0  503  502  0.00000000000E+00  0.00000000000E+00  0.92651922110E+03  0.92651922110E+03  0.00000000000E+00 0. -1.
          1   -1    0    0  502    0 -0.00000000000E+00 -0.00000000000E+00 -0.18453659490E+03  0.18453659490E+03  0.00000000000E+00 0. -1.
         25    1    1    2    0    0  0.50788184990E+02  0.20329168087E+03  0.17282767539E+03  0.29900058968E+03  0.12500000000E+03 0.  0.
         21    1    1    2  503  501  0.12106817515E+02 -0.67774741637E+02  0.64211195280E+03  0.64579234322E+03  0.00000000000E+00 0. -1.
          1    1    1    2  501    0 -0.62895002505E+02 -0.13551693923E+03 -0.72957001998E+02  0.16626288311E+03  0.00000000000E+00 0. -1.
<mgrwt>
<rscale>  4 0.20212923E+03</rscale>
<asrwt>0</asrwt>
<pdfrwt beam="1">  1       21 0.14254142E+00 0.20212923E+03</pdfrwt>
<pdfrwt beam="2">  1        1 0.28390246E-01 0.20212923E+03</pdfrwt>
<totfact> 0.59767941E+02</totfact>
</mgrwt>
</event>
<event>
 5    0  0.3040647E+000  0.4894664E+03  0.7546771E-02  0.1016565E+00
         21   -1    0    0  503  502  0.00000000000E+00  0.00000000000E+00  0.55417633482E+03  0.55417633482E+03  0.00000000000E+00 0. -1.
          2   -1    0    0  502    0 -0.00000000000E+00 -0.00000000000E+00 -0.64319563616E+03  0.64319563616E+03  0.00000000000E+00 0. -1.
         25    1    1    2    0    0  0.38442988044E+02 -0.48793664278E+03  0.19130679160E+03  0.54016971334E+03  0.12500000000E+03 0.  0.
         21    1    1    2  503  501 -0.64075293835E-01  0.21472844816E+02  0.69585092618E+02  0.72822882975E+02  0.00000000000E+00 0. -1.
          2    1    1    2  501    0 -0.38378912750E+02  0.46646379796E+03 -0.34991118556E+03  0.58437937466E+03  0.00000000000E+00 0. -1.
<mgrwt>
<rscale>  4 0.48946643E+03</rscale>
<asrwt>0</asrwt>
<pdfrwt beam="1">  1       21 0.85257899E-01 0.48946643E+03</pdfrwt>
<pdfrwt beam="2">  1        2 0.98953174E-01 0.48946643E+03</pdfrwt>
<totfact> 0.62298405E+02</totfact>
</mgrwt>
</event>
<event>
 5    0  0.3040647E+000  0.3908941E+03  0.7546771E-02  0.1046979E+00
         -2   -1    0    0    0  501 -0.00000000000E+00  0.00000000000E+00  0.94609721977E+02  0.94609721977E+02  0.00000000000E+00 0. -1.
         21   -1    0    0  501  502  0.00000000000E+00 -0.00000000000E+00 -0.19850588475E+04  0.19850588475E+04  0.00000000000E+00 0. -1.
         25    1    1    2    0    0 -0.33678565980E+02 -0.34486302571E+03 -0.47037467408E+03  0.59744630414E+03  0.12500000000E+03 0.  0.
         21    1    1    2  503  502  0.16131563435E+02 -0.35146197414E+02 -0.74929181947E+02  0.84320014461E+02  0.00000000000E+00 0. -1.
         -2    1    1    2    0  503  0.17547002545E+02  0.38000922313E+03 -0.13451452695E+04  0.13979022509E+04  0.00000000000E+00 0. -1.
<mgrwt>
<rscale>  4 0.39089408E+03</rscale>
<asrwt>0</asrwt>
<pdfrwt beam="1">  1       21 0.30539365E+00 0.39089408E+03</pdfrwt>
<pdfrwt beam="2">  1       -2 0.14555343E-01 0.39089408E+03</pdfrwt>
<totfact> 0.77995944E+01</totfact>
</mgrwt>
</event>
<event>
 5    0  0.3040647E+000  0.1872093E+03  0.7546771E-02  0.1161003E+00
          1   -1    0    0  502    0 -0.00000000000E+00  0.00000000000E+00  0.23632159408E+04  0.23632159408E+04  0.00000000000E+00 0.  1.
         21   -1    0    0  503  502  0.00000000000E+00 -0.00000000000E+00 -0.22933790297E+03  0.22933790297E+03  0.00000000000E+00 0.  1.
         25    1    1    2    0    0 -0.71755044258E+02 -0.22858021685E+03  0.63979742055E+03  0.69452389538E+03  0.12500000000E+03 0.  0.
         21    1    1    2  503  501  0.50380750466E+02  0.12624149146E+03 -0.17728679352E+03  0.22339592955E+03  0.00000000000E+00 0.  1.
          1    1    1    2  501    0  0.21374293792E+02  0.10233872539E+03  0.16713674108E+04  0.16746340188E+04  0.00000000000E+00 0.  1.
<mgrwt>
<rscale>  4 0.18720933E+03</rscale>
<asrwt>0</asrwt>
<pdfrwt beam="1">  1       21 0.35282756E-01 0.18720933E+03</pdfrwt>
<pdfrwt beam="2">  1        1 0.36357167E+00 0.18720933E+03</pdfrwt>
<totfact> 0.17501571E+02</totfact>
</mgrwt>
</event>
<event>
 5    0  0.3040647E+000  0.2597967E+03  0.7546771E-02  0.1107265E+00
         21   -1    0    0  503  502  0.00000000000E+00  0.00000000000E+00  0.20482143004E+03  0.20482143004E+03  0.00000000000E+00 0.  1.
          2   -1    0    0  502    0 -0.00000000000E+00 -0.00000000000E+00 -0.53156340762E+03  0.53156340762E+03  0.00000000000E+00 0. -1.
         25    1    1    2    0    0 -0.18627621315E+03  0.12840167623E+03 -0.22389016632E+03  0.34196143732E+03  0.12500000000E+03 0.  0.
         21    1    1    2  503  501  0.23735092881E+02  0.35834811573E+02  0.85904432227E+02  0.96057586013E+02  0.00000000000E+00 0. -1.
          2    1    1    2  501    0  0.16254112027E+03 -0.16423648780E+03 -0.18875624349E+03  0.29836581433E+03  0.00000000000E+00 0. -1.
<mgrwt>
<rscale>  4 0.25979668E+03</rscale>
<asrwt>0</asrwt>
<pdfrwt beam="1">  1       21 0.31510990E-01 0.25979668E+03</pdfrwt>
<pdfrwt beam="2">  1        2 0.81778983E-01 0.25979668E+03</pdfrwt>
<totfact> 0.69222401E+03</totfact>
</mgrwt>
</event>
<event>
 5    0  0.3040647E+000  0.2568473E+03  0.7546771E-02  0.1109052E+00
          1   -1    0    0  502    0 -0.00000000000E+00  0.00000000000E+00  0.62539106827E+03  0.62539106827E+03  0.00000000000E+00 0.  1.
         21   -1    0    0  503  502  0.00000000000E+00 -0.00000000000E+00 -0.11688934086E+03  0.11688934086E+03  0.00000000000E+00 0.  1.
         25    1    1    2    0    0  0.19008006336E+03 -0.11494949052E+03  0.19535106773E+03  0.32113993137E+03  0.12500000000E+03 0.  0.
         21    1    1    2  503  501  0.19015529893E+02  0.27650812589E+02 -0.12684280690E+01  0.33582238217E+02  0.00000000000E+00 0. -1.
          1    1    1    2  501    0 -0.20909559326E+03  0.87298677931E+02  0.31441908775E+03  0.38755823953E+03  0.00000000000E+00 0.  1.
<mgrwt>
<rscale>  4 0.25684730E+03</rscale>
<asrwt>0</asrwt>
<pdfrwt beam="1">  1       21 0.17982976E-01 0.25684730E+03</pdfrwt>
<pdfrwt beam="2">  1        1 0.96214009E-01 0.25684730E+03</pdfrwt>
<totfact> 0.10215525E+04</totfact>
</mgrwt>
</event>
<event>
 5    0  0.3040647E+000  0.2435435E+03  0.7546771E-02  0.1117455E+00
          1   -1    0    0  502    0 -0.00000000000E+00  0.00000000000E+00  0.58700363652E+02  0.58700363652E+02  0.00000000000E+00 0. -1.
         21   -1    0    0  503  502  0.00000000000E+00 -0.00000000000E+00 -0.10669098320E+04  0.10669098320E+04  0.00000000000E+00 0. -1.
         25    1    1    2    0    0 -0.17522015041E+02  0.21071018325E+03 -0.69050603930E+03  0.73289111923E+03  0.12500000000E+03 0.  0.
         21    1    1    2  503  501  0.20687861588E+02 -0.24574165824E+01 -0.44898266584E+02  0.49496271129E+02  0.00000000000E+00 0. -1.
          1    1    1    2  501    0 -0.31658465471E+01 -0.20825276667E+03 -0.27280516250E+03  0.34322280533E+03  0.00000000000E+00 0. -1.
<mgrwt>
<rscale>  4 0.24354350E+03</rscale>
<asrwt>0</asrwt>
<pdfrwt beam="1">  1       21 0.16413998E+00 0.24354350E+03</pdfrwt>
<pdfrwt beam="2">  1        1 0.90308247E-02 0.24354350E+03</pdfrwt>
<totfact> 0.17959388E+03</totfact>
</mgrwt>
</event>
<event>
 5    0  0.3040647E+000  0.3220754E+03  0.7546771E-02  0.1074698E+00
         21   -1    0    0  503  502  0.00000000000E+00  0.00000000000E+00  0.13632873111E+03  0.13632873111E+03  0.00000000000E+00 0. -1.
          1   -1    0    0  502    0 -0.00000000000E+00 -0.00000000000E+00 -0.97370349142E+03  0.97370349142E+03  0.00000000000E+00 0. -1.
         25    1    1    2    0    0 -0.24803005156E+03  0.42514860113E+02 -0.29850984422E+03  0.40995066398E+03  0.12500000000E+03 0.  0.
         21    1    1    2  503  501 -0.85199607605E+02  0.51093429766E+02 -0.97664079218E+02  0.13931182316E+03  0.00000000000E+00 0. -1.
          1    1    1    2  501    0  0.33322965916E+03 -0.93608289879E+02 -0.44120083687E+03  0.56076973539E+03  0.00000000000E+00 0. -1.
<mgrwt>
<rscale>  4 0.32207539E+03</rscale>
<asrwt>0</asrwt>
<pdfrwt beam="1">  1       21 0.20973651E-01 0.32207539E+03</pdfrwt>
<pdfrwt beam="2">  1        1 0.14980054E+00 0.32207539E+03</pdfrwt>
<totfact> 0.38085101E+03</totfact>
</mgrwt>
</event>
<event>
 5    0  0.3040647E+000  0.1894817E+03  0.7546771E-02  0.1158930E+00
          2   -1    0    0  502    0 -0.00000000000E+00  0.00000000000E+00  0.21684446999E+04  0.21684446999E+04  0.00000000000E+00 0.  1.
         21   -1    0    0  503  502  0.00000000000E+00 -0.00000000000E+00 -0.21199311965E+03  0.21199311965E+03  0.00000000000E+00 0.  1.
         25    1    1    2    0    0  0.69700821868E+02 -0.18979899137E+03  0.74729646991E+03  0.78419313669E+03  0.12500000000E+03 0.  0.
         21    1    1    2  503  501  0.31027457085E+01  0.78662593817E+02 -0.18224219238E+03  0.19851863232E+03  0.00000000000E+00 0.  1.
          2    1    1    2  501    0 -0.72803567576E+02  0.11113639756E+03  0.13913973027E+04  0.13977260505E+04  0.00000000000E+00 0.  1.
<mgrwt>
<rscale>  4 0.18948172E+03</rscale>
<asrwt>0</asrwt>
<pdfrwt beam="1">  1       21 0.32614328E-01 0.18948172E+03</pdfrwt>
<pdfrwt beam="2">  1        2 0.33360686E+00 0.18948172E+03</pdfrwt>
<totfact> 0.71393244E+02</totfact>
</mgrwt>
</event>
<event>
 5    0  0.3040647E+000  0.2296869E+03  0.7546771E-02  0.1126860E+00
         21   -1    0    0  503  502  0.00000000000E+00  0.00000000000E+00  0.70864728839E+02  0.70864728839E+02  0.00000000000E+00 0.  1.
          1   -1    0    0  502    0 -0.00000000000E+00 -0.00000000000E+00 -0.11844843748E+04  0.11844843748E+04  0.00000000000E+00 0. -1.
         25    1    1    2    0    0 -0.14184993742E+03  0.14949571661E+03 -0.20952396277E+03  0.31936760168E+03  0.12500000000E+03 0.  0.
         21    1    1    2  503  501  0.26658090855E+02  0.21048628364E+01 -0.25356056426E+02  0.36851239505E+02  0.00000000000E+00 0.  1.
          1    1    1    2  501    0  0.11519184656E+03 -0.15160057945E+03 -0.87873962678E+03  0.89913026246E+03  0.00000000000E+00 0. -1.
<mgrwt>
<rscale>  4 0.22968693E+03</rscale>
<asrwt>0</asrwt>
<pdfrwt beam="1">  1       21 0.10902265E-01 0.22968693E+03</pdfrwt>
<pdfrwt beam="2">  1        1 0.18222838E+00 0.22968693E+03</pdfrwt>
<totfact> 0.91239465E+03</totfact>
</mgrwt>
</event>
<event>
 5    0  0.3040647E+000  0.2198521E+03  0.7546771E-02  0.1133993E+00
          2   -1    0    0  502    0 -0.00000000000E+00  0.00000000000E+00  0.10399714778E+04  0.10399714778E+04  0.00000000000E+00 0. -1.
         21   -1    0    0  503  502  0.00000000000E+00 -0.00000000000E+00 -0.12274990085E+04  0.12274990085E+04  0.00000000000E+00 0. -1.
         25    1    1    2    0    0 -0.22199835742E+03 -0.77617563022E+02  0.19073684057E+03  0.32758708634E+03  0.12500000000E+03 0.  0.
         21    1    1    2  503  501  0.50705988708E+02  0.49378904994E+02 -0.11483210888E+04  0.11505001941E+04  0.00000000000E+00 0. -1.
          2    1    1    2  501    0  0.17129236871E+03  0.28238658028E+02  0.77005671758E+03  0.78938320585E+03  0.00000000000E+00 0. -1.
<mgrwt>
<rscale>  4 0.21985210E+03</rscale>
<asrwt>0</asrwt>
<pdfrwt beam="1">  1       21 0.18884600E+00 0.21985210E+03</pdfrwt>
<pdfrwt beam="2">  1        2 0.15999561E+00 0.21985210E+03</pdfrwt>
<totfact> 0.48731582E+01</totfact>
</mgrwt>
</event>
<event>
 5    0  0.3040647E+000  0.2467858E+03  0.7546771E-02  0.1115353E+00
         21   -1    0    0  503  502  0.00000000000E+00  0.00000000000E+00  0.40059915092E+03  0.40059915092E+03  0.00000000000E+00 0.  1.
          2   -1    0    0  502    0 -0.00000000000E+00 -0.00000000000E+00 -0.10476453502E+04  0.10476453502E+04  0.00000000000E+00 0.  1.
         25    1    1    2    0    0  0.43836628153E+02 -0.23760155743E+03  0.19017812298E+03  0.33191696028E+03  0.12500000000E+03 0.  0.
         21    1    1    2  503  501 -0.28328281553E+02  0.26592635151E+02  0.12511234500E+03  0.13100671224E+03  0.00000000000E+00 0.  1.
          2    1    1    2  501    0 -0.15508346600E+02  0.21100892228E+03 -0.96233666730E+03  0.98532082863E+03  0.00000000000E+00 0.  1.
<mgrwt>
<rscale>  4 0.24678579E+03</rscale>
<asrwt>0</asrwt>
<pdfrwt beam="1">  1       21 0.61630639E-01 0.24678579E+03</pdfrwt>
<pdfrwt beam="2">  1        2 0.16117621E+00 0.24678579E+03</pdfrwt>
<totfact> 0.74109787E+02</totfact>
</mgrwt>
</event>
<event>
 5    0  0.3040647E+000  0.2437938E+03  0.7546771E-02  0.1117291E+00
         21   -1    0    0  501  502  0.00000000000E+00  0.00000000000E+00  0.22858846269E+02  0.22858846269E+02  0.00000000000E+00 0. -1.
         -1   -1    0    0    0  501 -0.00000000000E+00 -0.00000000000E+00 -0.28229572223E+04  0.28229572223E+04  0.00000000000E+00 0. -1.
         25    1    1    2    0    0 -0.93341392457E+02  0.18734404350E+03 -0.20826545046E+04  0.20968751016E+04  0.12500000000E+03 0.  0.
         21    1    1    2  503  502  0.14001363915E+02 -0.60225689333E+02 -0.15498614660E+03  0.16686484796E+03  0.00000000000E+00 0. -1.
         -1    1    1    2    0  503  0.79340028542E+02 -0.12711835416E+03 -0.56245772476E+03  0.58207611893E+03  0.00000000000E+00 0. -1.
<mgrwt>
<rscale>  4 0.24379378E+03</rscale>
<asrwt>0</asrwt>
<pdfrwt beam="1">  1       21 0.35167442E-02 0.24379378E+03</pdfrwt>
<pdfrwt beam="2">  1       -1 0.43430128E+00 0.24379378E+03</pdfrwt>
<totfact> 0.23835913E+02</totfact>
</mgrwt>
</event>
<event>
 5    0  0.3040647E+000  0.3106838E+03  0.7546771E-02  0.1080019E+00
         21   -1    0    0  503  502  0.00000000000E+00  0.00000000000E+00  0.13088896541E+04  0.13088896541E+04  0.00000000000E+00 0. -1.
          2   -1    0    0  502    0 -0.00000000000E+00 -0.00000000000E+00 -0.18114062975E+03  0.18114062975E+03  0.00000000000E+00 0. -1.
         25    1    1    2    0    0  0.15563855208E+03  0.25841100779E+03  0.89427381302E+03  0.95202429616E+03  0.12500000000E+03 0.  0.
         21    1    1    2  503  501  0.73881992775E+01 -0.28214450095E+02  0.25354275541E+03  0.25521475173E+03  0.00000000000E+00 0. -1.
          2    1    1    2  501    0 -0.16302675136E+03 -0.23019655769E+03 -0.20067544038E+02  0.28279123599E+03  0.00000000000E+00 0. -1.
<mgrwt>
<rscale>  4 0.31068383E+03</rscale>
<asrwt>0</asrwt>
<pdfrwt beam="1">  1       21 0.20136763E+00 0.31068383E+03</pdfrwt>
<pdfrwt beam="2">  1        2 0.27867790E-01 0.31068383E+03</pdfrwt>
<totfact> 0.28598060E+02</totfact>
</mgrwt>
</event>
<event>
 5    0  0.3040647E+000  0.1984086E+03  0.7546771E-02  0.1151089E+00
         21   -1    0    0  503  502  0.00000000000E+00  0.00000000000E+00  0.24310311265E+03  0.24310311265E+03  0.00000000000E+00 0.  1.
          1   -1    0    0  502    0 -0.00000000000E+00 -0.00000000000E+00 -0.32518737106E+03  0.32518737106E+03  0.00000000000E+00 0.  1.
         25    1    1    2    0    0 -0.14716435492E+03  0.15542215368E+03 -0.61148103865E+01  0.24794310662E+03  0.12500000000E+03 0.  0.
         21    1    1    2  503  501  0.10600750700E+03 -0.18375715847E+02  0.59802755939E+02  0.12309194974E+03  0.00000000000E+00 0.  1.
          1    1    1    2  501    0  0.41156847916E+02 -0.13704643783E+03 -0.13577220396E+03  0.19725542736E+03  0.00000000000E+00 0.  1.
<mgrwt>
<rscale>  4 0.19840865E+03</rscale>
<asrwt>0</asrwt>
<pdfrwt beam="1">  1       21 0.37400479E-01 0.19840865E+03</pdfrwt>
<pdfrwt beam="2">  1        1 0.50028826E-01 0.19840865E+03</pdfrwt>
<totfact> 0.59599790E+03</totfact>
</mgrwt>
</event>
<event>
 5    0  0.3040647E+000  0.2324865E+03  0.7546771E-02  0.1124902E+00
         -1   -1    0    0    0  501 -0.00000000000E+00  0.00000000000E+00  0.76851982642E+03  0.76851982642E+03  0.00000000000E+00 0.  1.
         21   -1    0    0  501  502  0.00000000000E+00 -0.00000000000E+00 -0.85036005184E+02  0.85036005184E+02  0.00000000000E+00 0.  1.
         25    1    1    2    0    0  0.16332947872E+03 -0.11878930044E+03  0.19020190603E+03  0.30428470480E+03  0.12500000000E+03 0.  0.
         21    1    1    2  503  502 -0.42253072375E+02 -0.26707507693E+02  0.74712307889E+02  0.89891835238E+02  0.00000000000E+00 0.  1.
         -1    1    1    2    0  503 -0.12107640634E+03  0.14549680814E+03  0.41856960732E+03  0.45937929157E+03  0.00000000000E+00 0.  1.
<mgrwt>
<rscale>  4 0.23248645E+03</rscale>
<asrwt>0</asrwt>
<pdfrwt beam="1">  1       21 0.13082463E-01 0.23248645E+03</pdfrwt>
<pdfrwt beam="2">  1       -1 0.11823382E+00 0.23248645E+03</pdfrwt>
<totfact> 0.32115613E+03</totfact>
</mgrwt>
</event>
<event>
 5    0  0.3040647E+000  0.2360407E+03  0.7546771E-02  0.1122459E+00
         -1   -1    0    0    0  501 -0.00000000000E+00  0.00000000000E+00  0.64992684693E+02  0.64992684693E+02  0.00000000000E+00 0. -1.
         21   -1    0    0  501  502  0.00000000000E+00 -0.00000000000E+00 -0.17263104660E+04  0.17263104660E+04  0.00000000000E+00 0. -1.
         25    1    1    2    0    0  0.59370186485E+02 -0.21645985069E+03 -0.11590040528E+04  0.11871373469E+04  0.12500000000E+03 0.  0.
         21    1    1    2  503  502 -0.12491939026E+02  0.25854348397E+02 -0.36139426201E+03  0.36253318260E+03  0.00000000000E+00 0. -1.
         -1    1    1    2    0  503 -0.46878247459E+02  0.19060550229E+03 -0.14091946652E+03  0.24163262121E+03  0.00000000000E+00 0. -1.
<mgrwt>
<rscale>  4 0.23604067E+03</rscale>
<asrwt>0</asrwt>
<pdfrwt beam="1">  1       21 0.26558625E+00 0.23604067E+03</pdfrwt>
<pdfrwt beam="2">  1       -1 0.99988735E-02 0.23604067E+03</pdfrwt>
<totfact> 0.28371525E+02</totfact>
</mgrwt>
</event>
<event>
 5    0  0.3040647E+000  0.3077250E+03  0.7546771E-02  0.1081441E+00
         21   -1    0    0  503  502  0.00000000000E+00  0.00000000000E+00  0.18820510367E+03  0.18820510367E+03  0.00000000000E+00 0.  1.
          2   -1    0    0  502    0 -0.00000000000E+00 -0.00000000000E+00 -0.27198916252E+04  0.27198916252E+04  0.00000000000E+00 0. -1.
         25    1    1    2    0    0  0.55597485256E+02 -0.29540288435E+03 -0.73287891337E+02  0.33369156338E+03  0.12500000000E+03 0.  0.
         21    1    1    2  503  501  0.36708721467E+02  0.30826831426E+02  0.38715752092E+02  0.61617637309E+02  0.00000000000E+00 0.  1.
          2    1    1    2  501    0 -0.92306206722E+02  0.26457605293E+03 -0.24971143823E+04  0.25127875282E+04  0.00000000000E+00 0. -1.
<mgrwt>
<rscale>  4 0.30772496E+03</rscale>
<asrwt>0</asrwt>
<pdfrwt beam="1">  1       21 0.28954630E-01 0.30772496E+03</pdfrwt>
<pdfrwt beam="2">  1        2 0.41844488E+00 0.30772496E+03</pdfrwt>
<totfact> 0.41872735E+02</totfact>
</mgrwt>
</event>
<event>
 5    0  0.3040647E+000  0.2892316E+03  0.7546771E-02  0.1090751E+00
         21   -1    0    0  503  502  0.00000000000E+00  0.00000000000E+00  0.60618698865E+03  0.60618698865E+03  0.00000000000E+00 0.  1.
          2   -1    0    0  502    0 -0.00000000000E+00 -0.00000000000E+00 -0.23882945423E+03  0.23882945423E+03  0.00000000000E+00 0.  1.
         25    1    1    2    0    0 -0.18250932072E+03  0.22179359950E+03  0.39670222022E+03  0.50546978589E+03  0.12500000000E+03 0.  0.
         21    1    1    2  503  501  0.36102337535E+02 -0.12252085786E+02  0.58004893008E+02  0.69412246718E+02  0.00000000000E+00 0. -1.
          2    1    1    2  501    0  0.14640698318E+03 -0.20954151371E+03 -0.87349578802E+02  0.27013441026E+03  0.00000000000E+00 0.  1.
<mgrwt>
<rscale>  4 0.28923159E+03</rscale>
<asrwt>0</asrwt>
<pdfrwt beam="1">  1       21 0.93259537E-01 0.28923159E+03</pdfrwt>
<pdfrwt beam="2">  1        2 0.36742993E-01 0.28923159E+03</pdfrwt>
<totfact> 0.16149180E+03</totfact>
</mgrwt>
</event>
<event>
 5    0  0.3040647E+000  0.2601799E+03  0.7546771E-02  0.1107035E+00
          2   -1    0    0  502    0 -0.00000000000E+00  0.00000000000E+00  0.15996143133E+04  0.15996143133E+04  0.00000000000E+00 0.  1.
         21   -1    0    0  503  502  0.00000000000E+00 -0.00000000000E+00 -0.96303386013E+02  0.96303386013E+02  0.00000000000E+00 0.  1.
         25    1    1    2    0    0 -0.19479866672E+03 -0.11847613436E+03  0.55599561160E+03  0.61379087243E+03  0.12500000000E+03 0.  0.
         21    1    1    2  503  501 -0.22543781707E+02  0.43501576400E+02 -0.43174237881E+02  0.65304089149E+02  0.00000000000E+00 0. -1.
          2    1    1    2  501    0  0.21734244843E+03  0.74974557959E+02  0.99048955361E+03  0.10168227378E+04  0.00000000000E+00 0.  1.
<mgrwt>
<rscale>  4 0.26017988E+03</rscale>
<asrwt>0</asrwt>
<pdfrwt beam="1">  1       21 0.14815907E-01 0.26017988E+03</pdfrwt>
<pdfrwt beam="2">  1        2 0.24609449E+00 0.26017988E+03</pdfrwt>
<totfact> 0.60779645E+03</totfact>
</mgrwt>
</event>
<event>
 5    0  0.3040647E+000  0.2521047E+03  0.7546771E-02  0.1111982E+00
         21   -1    0    0  503  502  0.00000000000E+00  0.00000000000E+00  0.16207911458E+03  0.16207911458E+03  0.00000000000E+00 0.  1.
          1   -1    0    0  502    0 -0.00000000000E+00 -0.00000000000E+00 -0.10549114682E+04  0.10549114682E+04  0.00000000000E+00 0. -1.
         25    1    1    2    0    0 -0.82203914914E+02  0.22844372721E+03 -0.59189336568E+02  0.27941438347E+03  0.12500000000E+03 0.  0.
         21    1    1    2  503  501 -0.24190657480E+02 -0.40012819788E+02  0.24348762861E+02  0.52716941390E+02  0.00000000000E+00 0.  1.
          1    1    1    2  501    0  0.10639457239E+03 -0.18843090742E+03 -0.85799177994E+03  0.88485925793E+03  0.00000000000E+00 0. -1.
<mgrwt>
<rscale>  4 0.25210472E+03</rscale>
<asrwt>0</asrwt>
<pdfrwt beam="1">  1       21 0.24935248E-01 0.25210472E+03</pdfrwt>
<pdfrwt beam="2">  1        1 0.16229407E+00 0.25210472E+03</pdfrwt>
<totfact> 0.24315681E+03</totfact>
</mgrwt>
</event>
<event>
 5    0  0.3040647E+000  0.3717674E+03  0.7546771E-02  0.1054019E+00
          3   -1    0    0  502    0 -0.00000000000E+00  0.00000000000E+00  0.33416721627E+03  0.33416721627E+03  0.00000000000E+00 0. -1.
         21   -1    0    0  503  502  0.00000000000E+00 -0.00000000000E+00 -0.43969148847E+03  0.43969148847E+03  0.00000000000E+00 0. -1.
         25    1    1    2    0    0 -0.12385105976E+03 -0.33825288826E+03 -0.83999467644E+02  0.39042926630E+03  0.12500000000E+03 0.  0.
         21    1    1    2  503  501  0.36312870977E+02  0.62561662992E+01 -0.15655652144E+02  0.40035779740E+02  0.00000000000E+00 0. -1.
          3    1    1    2  501    0  0.87538188784E+02  0.33199672196E+03 -0.58691524140E+01  0.34339365870E+03  0.00000000000E+00 0. -1.
<mgrwt>
<rscale>  4 0.37176741E+03</rscale>
<asrwt>0</asrwt>
<pdfrwt beam="1">  1       21 0.67644843E-01 0.37176741E+03</pdfrwt>
<pdfrwt beam="2">  1        3 0.51410342E-01 0.37176741E+03</pdfrwt>
<totfact> 0.36033392E+02</totfact>
</mgrwt>
</event>
<event>
 5    0  0.3040647E+000  0.2160803E+03  0.7546771E-02  0.1136840E+00
         -3   -1    0    0    0  501 -0.00000000000E+00  0.00000000000E+00  0.42991843995E+02  0.42991843995E+02  0.00000000000E+00 0.  1.
         21   -1    0    0  501  502  0.00000000000E+00 -0.00000000000E+00 -0.16465555843E+04  0.16465555843E+04  0.00000000000E+00 0.  1.
         25    1    1    2    0    0 -0.14663972164E+03 -0.17086274869E+03 -0.56221438737E+03  0.61839089920E+03  0.12500000000E+03 0.  0.
         21    1    1    2  503  502  0.94788962666E+02  0.13356472981E+03 -0.91540962946E+03  0.92994584477E+03  0.00000000000E+00 0.  1.
         -3    1    1    2    0  503  0.51850758973E+02  0.37298018880E+02 -0.12593972349E+03  0.14121068433E+03  0.00000000000E+00 0.  1.
<mgrwt>
<rscale>  4 0.21608032E+03</rscale>
<asrwt>0</asrwt>
<pdfrwt beam="1">  1       21 0.25331621E+00 0.21608032E+03</pdfrwt>
<pdfrwt beam="2">  1       -3 0.66141308E-02 0.21608032E+03</pdfrwt>
<totfact> 0.44964268E+02</totfact>
</mgrwt>
</event>
<event>
 5    0  0.3040647E+000  0.2716310E+03  0.7546771E-02  0.1100350E+00
         21   -1    0    0  503  502  0.00000000000E+00  0.00000000000E+00  0.19195301762E+03  0.19195301762E+03  0.00000000000E+00 0. -1.
          1   -1    0    0  502    0 -0.00000000000E+00 -0.00000000000E+00 -0.50011812313E+03  0.50011812313E+03  0.00000000000E+00 0.  1.
         25    1    1    2    0    0 -0.17088365473E+03  0.14765263693E+03 -0.32959762220E+03  0.41864318603E+03  0.12500000000E+03 0.  0.
         21    1    1    2  503  501  0.17894716160E+03 -0.16898014659E+03  0.65692842823E+01  0.24621034114E+03  0.00000000000E+00 0. -1.
          1    1    1    2  501    0 -0.80635068754E+01  0.21327509656E+02  0.14863232411E+02  0.27217613579E+02  0.00000000000E+00 0.  1.
<mgrwt>
<rscale>  4 0.27163104E+03</rscale>
<asrwt>0</asrwt>
<pdfrwt beam="1">  1       21 0.29531234E-01 0.27163104E+03</pdfrwt>
<pdfrwt beam="2">  1        1 0.76941249E-01 0.27163104E+03</pdfrwt>
<totfact> 0.53651080E+03</totfact>
</mgrwt>
</event>
<event>
 5    0  0.3040647E+000  0.3464178E+03  0.7546771E-02  0.1064095E+00
         -3   -1    0    0    0  501 -0.00000000000E+00  0.00000000000E+00  0.12198737253E+04  0.12198737253E+04  0.00000000000E+00 0.  1.
         21   -1    0    0  501  502  0.00000000000E+00 -0.00000000000E+00 -0.18637434992E+03  0.18637434992E+03  0.00000000000E+00 0.  1.
         25    1    1    2    0    0  0.36505281119E+03 -0.14882373973E+03  0.22508055252E+03  0.47084850599E+03  0.12500000000E+03 0.  0.
         21    1    1    2  503  502 -0.78753571190E+02  0.39560202483E+02  0.21208068090E+02  0.90647210370E+02  0.00000000000E+00 0.  1.
         -3    1    1    2    0  503 -0.28629924000E+03  0.10926353725E+03  0.78721075479E+03  0.84475235890E+03  0.00000000000E+00 0.  1.
<mgrwt>
<rscale>  4 0.34641782E+03</rscale>
<asrwt>0</asrwt>
<pdfrwt beam="1">  1       21 0.28672978E-01 0.34641782E+03</pdfrwt>
<pdfrwt beam="2">  1       -3 0.18767288E+00 0.34641782E+03</pdfrwt>
<totfact> 0.10513763E+02</totfact>
</mgrwt>
</event>
<event>
 5    0  0.3040647E+000  0.2438077E+03  0.7546771E-02  0.1117282E+00
          2   -1    0    0  502    0 -0.00000000000E+00  0.00000000000E+00  0.10576728485E+04  0.10576728485E+04  0.00000000000E+00 0.  1.
         21   -1    0    0  503  502  0.00000000000E+00 -0.00000000000E+00 -0.42254487803E+03  0.42254487803E+03  0.00000000000E+00 0.  1.
         25    1    1    2    0    0  0.47935927534E+02  0.21945584698E+03 -0.23587482376E+03  0.34888487271E+03  0.12500000000E+03 0.  0.
         21    1    1    2  503  501  0.21739072841E+02 -0.22605378389E+02 -0.11719213213E+03  0.12131605934E+03  0.00000000000E+00 0.  1.
          2    1    1    2  501    0 -0.69675000375E+02 -0.19685046859E+03  0.98819492636E+03  0.10100167945E+04  0.00000000000E+00 0.  1.
<mgrwt>
<rscale>  4 0.24380766E+03</rscale>
<asrwt>0</asrwt>
<pdfrwt beam="1">  1       21 0.65006905E-01 0.24380766E+03</pdfrwt>
<pdfrwt beam="2">  1        2 0.16271890E+00 0.24380766E+03</pdfrwt>
<totfact> 0.65170478E+02</totfact>
</mgrwt>
</event>
<event>
 5    0  0.3040647E+000  0.2562161E+03  0.7546771E-02  0.1109438E+00
         21   -1    0    0  503  502  0.00000000000E+00  0.00000000000E+00  0.20964481914E+03  0.20964481914E+03  0.00000000000E+00 0.  1.
          1   -1    0    0  502    0 -0.00000000000E+00 -0.00000000000E+00 -0.61181211458E+03  0.61181211458E+03  0.00000000000E+00 0.  1.
         25    1    1    2    0    0 -0.22736631172E+03 -0.55861533298E+02  0.47446395120E+02  0.26961474555E+03  0.12500000000E+03 0.  0.
         21    1    1    2  503  501  0.51248663607E+01  0.44407918792E+02  0.56908822379E+01  0.45063440251E+02  0.00000000000E+00 0. -1.
          1    1    1    2  501    0  0.22224144536E+03  0.11453614506E+02 -0.45530457280E+03  0.50677874791E+03  0.00000000000E+00 0.  1.
<mgrwt>
<rscale>  4 0.25621607E+03</rscale>
<asrwt>0</asrwt>
<pdfrwt beam="1">  1       21 0.32253049E-01 0.25621607E+03</pdfrwt>
<pdfrwt beam="2">  1        1 0.94124940E-01 0.25621607E+03</pdfrwt>
<totfact> 0.34387451E+03</totfact>
</mgrwt>
</event>
<event>
 5    0  0.3040647E+000  0.3034579E+03  0.7546771E-02  0.1083525E+00
         21   -1    0    0  503  502  0.00000000000E+00  0.00000000000E+00  0.63002956377E+03  0.63002956377E+03  0.00000000000E+00 0.  1.
          2   -1    0    0  502    0 -0.00000000000E+00 -0.00000000000E+00 -0.10977283873E+04  0.10977283873E+04  0.00000000000E+00 0. -1.
         25    1    1    2    0    0  0.23636190095E+03  0.14048986580E+03  0.52306969388E+03  0.60401262840E+03  0.12500000000E+03 0.  0.
         21    1    1    2  503  501 -0.10889023517E+02  0.19719704800E+02  0.45729308765E+02  0.50976536472E+02  0.00000000000E+00 0. -1.
          2    1    1    2  501    0 -0.22547287743E+03 -0.16020957060E+03 -0.10364978262E+04  0.10727687862E+04  0.00000000000E+00 0. -1.
<mgrwt>
<rscale>  4 0.30345793E+03</rscale>
<asrwt>0</asrwt>
<pdfrwt beam="1">  1       21 0.96927626E-01 0.30345793E+03</pdfrwt>
<pdfrwt beam="2">  1        2 0.16888129E+00 0.30345793E+03</pdfrwt>
<totfact> 0.24050968E+02</totfact>
</mgrwt>
</event>
<event>
 5    0  0.3040647E+000  0.2078626E+03  0.7546771E-02  0.1143270E+00
          2   -1    0    0  502    0 -0.00000000000E+00  0.00000000000E+00  0.11303747054E+04  0.11303747054E+04  0.00000000000E+00 0.  1.
         21   -1    0    0  503  502  0.00000000000E+00 -0.00000000000E+00 -0.71062722141E+03  0.71062722141E+03  0.00000000000E+00 0. -1.
         25    1    1    2    0    0 -0.85840625652E+02  0.22206805631E+03  0.84518859073E+03  0.88693381295E+03  0.12500000000E+03 0.  0.
         21    1    1    2  503  501  0.29155491910E+02 -0.16270446076E+03 -0.67313257434E+03  0.69313075743E+03  0.00000000000E+00 0. -1.
          2    1    1    2  501    0  0.56685133742E+02 -0.59363595551E+02  0.24769146761E+03  0.26093735645E+03  0.00000000000E+00 0.  1.
<mgrwt>
<rscale>  4 0.20786263E+03</rscale>
<asrwt>0</asrwt>
<pdfrwt beam="1">  1       21 0.10932726E+00 0.20786263E+03</pdfrwt>
<pdfrwt beam="2">  1        2 0.17390380E+00 0.20786263E+03</pdfrwt>
<totfact> 0.18308444E+02</totfact>
</mgrwt>
</event>
<event>
 5    0  0.3040647E+000  0.3072993E+03  0.7546771E-02  0.1081648E+00
         21   -1    0    0  503  502  0.00000000000E+00  0.00000000000E+00  0.50120295085E+03  0.50120295085E+03  0.00000000000E+00 0. -1.
          3   -1    0    0  502    0 -0.00000000000E+00 -0.00000000000E+00 -0.18592015118E+03  0.18592015118E+03  0.00000000000E+00 0. -1.
         25    1    1    2    0    0 -0.28579374013E+02 -0.27926880051E+03  0.19577091216E+03  0.36436121309E+03  0.12500000000E+03 0.  0.
         21    1    1    2  503  501  0.64812523678E+02  0.12014968796E+03  0.50050008924E+02  0.14540156167E+03  0.00000000000E+00 0. -1.
          3    1    1    2  501    0 -0.36233149664E+02  0.15911911255E+03  0.69461878584E+02  0.17736032727E+03  0.00000000000E+00 0. -1.
<mgrwt>
<rscale>  4 0.30729927E+03</rscale>
<asrwt>0</asrwt>
<pdfrwt beam="1">  1       21 0.77108146E-01 0.30729927E+03</pdfrwt>
<pdfrwt beam="2">  1        3 0.28603100E-01 0.30729927E+03</pdfrwt>
<totfact> 0.85023424E+02</totfact>
</mgrwt>
</event>
<event>
 5    0  0.3040647E+000  0.2698124E+03  0.7546771E-02  0.1101387E+00
          2   -1    0    0  502    0 -0.00000000000E+00  0.00000000000E+00  0.75173967776E+03  0.75173967776E+03  0.00000000000E+00 0. -1.
         21   -1    0    0  503  502  0.00000000000E+00 -0.00000000000E+00 -0.22675282336E+03  0.22675282336E+03  0.00000000000E+00 0. -1.
         25    1    1    2    0    0  0.21316080689E+03  0.84537760390E+02  0.87061458539E+02  0.27529776622E+03  0.12500000000E+03 0.  0.
         21    1    1    2  503  501  0.22797670502E+01  0.25721918054E+02 -0.10534071449E+03  0.10845958019E+03  0.00000000000E+00 0. -1.
          2    1    1    2  501    0 -0.21544057394E+03 -0.11025967844E+03  0.54326611035E+03  0.59473515470E+03  0.00000000000E+00 0. -1.
<mgrwt>
<rscale>  4 0.26981242E+03</rscale>
<asrwt>0</asrwt>
<pdfrwt beam="1">  1       21 0.34885050E-01 0.26981242E+03</pdfrwt>
<pdfrwt beam="2">  1        2 0.11565226E+00 0.26981242E+03</pdfrwt>
<totfact> 0.37394679E+03</totfact>
</mgrwt>
</event>
<event>
 5    0  0.3040647E+000  0.3902280E+03  0.7546771E-02  0.1047217E+00
         21   -1    0    0  503  502  0.00000000000E+00  0.00000000000E+00  0.42386386988E+03  0.42386386988E+03  0.00000000000E+00 0.  1.
          2   -1    0    0  502    0 -0.00000000000E+00 -0.00000000000E+00 -0.42484290582E+03  0.42484290582E+03  0.00000000000E+00 0.  1.
         25    1    1    2    0    0 -0.84995996127E+02 -0.36423527382E+03  0.16562923967E+03  0.42772619640E+03  0.12500000000E+03 0.  0.
         21    1    1    2  503  501  0.62730523032E+02  0.35563736700E+03 -0.14628020503E+03  0.38962925161E+03  0.00000000000E+00 0.  1.
          2    1    1    2  501    0  0.22265473094E+02  0.85979068201E+01 -0.20328070579E+02  0.31351327679E+02  0.00000000000E+00 0.  1.
<mgrwt>
<rscale>  4 0.39022795E+03</rscale>
<asrwt>0</asrwt>
<pdfrwt beam="1">  1       21 0.65209826E-01 0.39022795E+03</pdfrwt>
<pdfrwt beam="2">  1        2 0.65360447E-01 0.39022795E+03</pdfrwt>
<totfact> 0.18963484E+03</totfact>
</mgrwt>
</event>
<event>
 5    0  0.3040647E+000  0.2423748E+03  0.7546771E-02  0.1118221E+00
         -1   -1    0    0    0  501 -0.00000000000E+00  0.00000000000E+00  0.75608669215E+03  0.75608669215E+03  0.00000000000E+00 0. -1.
         21   -1    0    0  501  502  0.00000000000E+00 -0.00000000000E+00 -0.11139966439E+03  0.11139966439E+03  0.00000000000E+00 0. -1.
         25    1    1    2    0    0  0.16495072203E+03  0.14562206819E+03  0.46001638750E+03  0.52502819373E+03  0.12500000000E+03 0.  0.
         21    1    1    2  503  502 -0.12413877077E+03 -0.16321553160E+03  0.65495412223E+02  0.21526586628E+03  0.00000000000E+00 0. -1.
         -1    1    1    2    0  503 -0.40811951265E+02  0.17593463416E+02  0.11917522803E+03  0.12719229653E+03  0.00000000000E+00 0. -1.
<mgrwt>
<rscale>  4 0.24237483E+03</rscale>
<asrwt>0</asrwt>
<pdfrwt beam="1">  1       21 0.17138410E-01 0.24237483E+03</pdfrwt>
<pdfrwt beam="2">  1       -1 0.11632103E+00 0.24237483E+03</pdfrwt>
<totfact> 0.20310820E+03</totfact>
</mgrwt>
</event>
<event>
 5    0  0.3040647E+000  0.2243525E+03  0.7546771E-02  0.1130679E+00
         -1   -1    0    0    0  501 -0.00000000000E+00  0.00000000000E+00  0.36069689600E+03  0.36069689600E+03  0.00000000000E+00 0.  1.
         21   -1    0    0  501  502  0.00000000000E+00 -0.00000000000E+00 -0.67825368739E+03  0.67825368739E+03  0.00000000000E+00 0.  1.
         25    1    1    2    0    0  0.35059531992E+02  0.21123031146E+03 -0.21749384486E+03  0.32981204923E+03  0.12500000000E+03 0.  0.
         21    1    1    2  503  502 -0.19368573060E+02 -0.28356727585E+02 -0.37609145672E+03  0.37765596704E+03  0.00000000000E+00 0.  1.
         -1    1    1    2    0  503 -0.15690958931E+02 -0.18287358387E+03  0.27602851019E+03  0.33148256713E+03  0.00000000000E+00 0.  1.
<mgrwt>
<rscale>  4 0.22435246E+03</rscale>
<asrwt>0</asrwt>
<pdfrwt beam="1">  1       21 0.10434672E+00 0.22435246E+03</pdfrwt>
<pdfrwt beam="2">  1       -1 0.55491831E-01 0.22435246E+03</pdfrwt>
<totfact> 0.22779914E+02</totfact>
</mgrwt>
</event>
<event>
 5    0  0.3040647E+000  0.1898789E+03  0.7546771E-02  0.1158571E+00
         21   -1    0    0  503  502  0.00000000000E+00  0.00000000000E+00  0.54035112830E+02  0.54035112830E+02  0.00000000000E+00 0. -1.
          2   -1    0    0  502    0 -0.00000000000E+00 -0.00000000000E+00 -0.14959406352E+04  0.14959406352E+04  0.00000000000E+00 0. -1.
         25    1    1    2    0    0  0.16678936997E+03  0.11714646042E+03 -0.30942787744E+03  0.39104040515E+03  0.12500000000E+03 0.  0.
         21    1    1    2  503  501 -0.53853729668E+02 -0.41173349778E+02 -0.12405824451E+03  0.14137155641E+03  0.00000000000E+00 0. -1.
          2    1    1    2  501    0 -0.11293564030E+03 -0.75973110641E+02 -0.10084194004E+04  0.10175637864E+04  0.00000000000E+00 0. -1.
<mgrwt>
<rscale>  4 0.18987886E+03</rscale>
<asrwt>0</asrwt>
<pdfrwt beam="1">  1       21 0.83130947E-02 0.18987886E+03</pdfrwt>
<pdfrwt beam="2">  1        2 0.23014470E+00 0.18987886E+03</pdfrwt>
<totfact> 0.19811058E+04</totfact>
</mgrwt>
</event>
<event>
 5    0  0.3040647E+000  0.2640353E+03  0.7546771E-02  0.1104743E+00
         -1   -1    0    0    0  501 -0.00000000000E+00  0.00000000000E+00  0.86300918028E+03  0.86300918028E+03  0.00000000000E+00 0.  1.
         21   -1    0    0  501  502  0.00000000000E+00 -0.00000000000E+00 -0.10940217707E+03  0.10940217707E+03  0.00000000000E+00 0.  1.
         25    1    1    2    0    0  0.10365882863E+03  0.23678168744E+03  0.20569599881E+03  0.35319479637E+03  0.12500000000E+03 0.  0.
         21    1    1    2  503  502 -0.45168470338E+02 -0.19609157959E+02  0.38977419498E+02  0.62800867982E+02  0.00000000000E+00 0.  1.
         -1    1    1    2    0  503 -0.58490358296E+02 -0.21717252948E+03  0.50893358490E+03  0.55641569300E+03  0.00000000000E+00 0.  1.
<mgrwt>
<rscale>  4 0.26403534E+03</rscale>
<asrwt>0</asrwt>
<pdfrwt beam="1">  1       21 0.16831105E-01 0.26403534E+03</pdfrwt>
<pdfrwt beam="2">  1       -1 0.13277064E+00 0.26403534E+03</pdfrwt>
<totfact> 0.15164299E+03</totfact>
</mgrwt>
</event>
<event>
 5    0  0.3040647E+000  0.2115333E+03  0.7546771E-02  0.1140357E+00
         21   -1    0    0  503  502  0.00000000000E+00  0.00000000000E+00  0.46011044755E+03  0.46011044755E+03  0.00000000000E+00 0.  1.
          1   -1    0    0  502    0 -0.00000000000E+00 -0.00000000000E+00 -0.19461880555E+03  0.19461880555E+03  0.00000000000E+00 0. -1.
         25    1    1    2    0    0  0.20387656641E+03 -0.80730231000E+02  0.23400247950E+03  0.34418771759E+03  0.12500000000E+03 0.  0.
         21    1    1    2  503  501 -0.53385381619E+02  0.19925624092E+02  0.11475132869E+03  0.12812063418E+03  0.00000000000E+00 0.  1.
          1    1    1    2  501    0 -0.15049118479E+03  0.60804606908E+02 -0.83262166203E+02  0.18242090133E+03  0.00000000000E+00 0. -1.
<mgrwt>
<rscale>  4 0.21153334E+03</rscale>
<asrwt>0</asrwt>
<pdfrwt beam="1">  1       21 0.70786222E-01 0.21153334E+03</pdfrwt>
<pdfrwt beam="2">  1        1 0.29941355E-01 0.21153334E+03</pdfrwt>
<totfact> 0.29561495E+03</totfact>
</mgrwt>
</event>
<event>
 5    0  0.3040647E+000  0.2291628E+03  0.7546771E-02  0.1127230E+00
         21   -1    0    0  503  502  0.00000000000E+00  0.00000000000E+00  0.44725975751E+03  0.44725975751E+03  0.00000000000E+00 0. -1.
          2   -1    0    0  502    0 -0.00000000000E+00 -0.00000000000E+00 -0.81405914951E+03  0.81405914951E+03  0.00000000000E+00 0.  1.
         25    1    1    2    0    0 -0.11744702757E+03 -0.17597162803E+03  0.38118315206E+03  0.45352553795E+03  0.12500000000E+03 0.  0.
         21    1    1    2  503  501  0.11490473578E+02  0.16437698943E+02  0.12456261000E+02  0.23609052664E+02  0.00000000000E+00 0. -1.
          2    1    1    2  501    0  0.10595655399E+03  0.15953392909E+03 -0.76043880506E+03  0.78418431641E+03  0.00000000000E+00 0.  1.
<mgrwt>
<rscale>  4 0.22916283E+03</rscale>
<asrwt>0</asrwt>
<pdfrwt beam="1">  1       21 0.68809195E-01 0.22916283E+03</pdfrwt>
<pdfrwt beam="2">  1        2 0.12523987E+00 0.22916283E+03</pdfrwt>
<totfact> 0.82736460E+02</totfact>
</mgrwt>
</event>
<event>
 5    0  0.3040647E+000  0.2333841E+03  0.7546771E-02  0.1124280E+00
          2   -1    0    0  502    0 -0.00000000000E+00  0.00000000000E+00  0.22539948083E+04  0.22539948083E+04  0.00000000000E+00 0. -1.
         21   -1    0    0  503  502  0.00000000000E+00 -0.00000000000E+00 -0.64733334861E+02  0.64733334861E+02  0.00000000000E+00 0. -1.
         25    1    1    2    0    0 -0.19519189589E+03 -0.75849615643E+02  0.24873142515E+03  0.34834661226E+03  0.12500000000E+03 0.  0.
         21    1    1    2  503  501  0.22847474064E+02 -0.17511351860E+02  0.10835894436E+02  0.30758269186E+02  0.00000000000E+00 0. -1.
          2    1    1    2  501    0  0.17234442182E+03  0.93360967504E+02  0.19296941539E+04  0.19396232617E+04  0.00000000000E+00 0. -1.
<mgrwt>
<rscale>  4 0.23338407E+03</rscale>
<asrwt>0</asrwt>
<pdfrwt beam="1">  1       21 0.99589763E-02 0.23338407E+03</pdfrwt>
<pdfrwt beam="2">  1        2 0.34676837E+00 0.23338407E+03</pdfrwt>
<totfact> 0.56869601E+03</totfact>
</mgrwt>
</event>
<event>
 5    0  0.3040647E+000  0.2743730E+03  0.7546771E-02  0.1098803E+00
          2   -1    0    0  502    0 -0.00000000000E+00  0.00000000000E+00  0.23318541296E+03  0.23318541296E+03  0.00000000000E+00 0. -1.
         21   -1    0    0  503  502  0.00000000000E+00 -0.00000000000E+00 -0.33313698076E+03  0.33313698076E+03  0.00000000000E+00 0. -1.
         25    1    1    2    0    0  0.13218265631E+03 -0.20457906150E+03 -0.67200466567E+02  0.28189670048E+03  0.12500000000E+03 0.  0.
         21    1    1    2  503  501  0.30276723579E+02  0.19935316607E+02 -0.89357149758E+01  0.37335557328E+02  0.00000000000E+00 0.  1.
          2    1    1    2  501    0 -0.16245937989E+03  0.18464374489E+03 -0.23815386254E+02  0.24709013591E+03  0.00000000000E+00 0. -1.
<mgrwt>
<rscale>  4 0.27437301E+03</rscale>
<asrwt>0</asrwt>
<pdfrwt beam="1">  1       21 0.51251843E-01 0.27437301E+03</pdfrwt>
<pdfrwt beam="2">  1        2 0.35874679E-01 0.27437301E+03</pdfrwt>
<totfact> 0.63081055E+03</totfact>
</mgrwt>
</event>
<event>
 5    0  0.3040647E+000  0.2480434E+03  0.7546771E-02  0.1114548E+00
          2   -1    0    0  502    0 -0.00000000000E+00  0.00000000000E+00  0.10253684886E+04  0.10253684886E+04  0.00000000000E+00 0. -1.
         21   -1    0    0  503  502  0.00000000000E+00 -0.00000000000E+00 -0.16650380201E+03  0.16650380201E+03  0.00000000000E+00 0.  1.
         25    1    1    2    0    0  0.48552363114E+01  0.21164634191E+03  0.43109868371E+02  0.24960209958E+03  0.12500000000E+03 0.  0.
         21    1    1    2  503  501  0.23845442573E+02  0.11426718064E+01 -0.47259306983E+02  0.52946698923E+02  0.00000000000E+00 0.  1.
          2    1    1    2  501    0 -0.28700678885E+02 -0.21278901371E+03  0.86301412524E+03  0.88932349215E+03  0.00000000000E+00 0. -1.
<mgrwt>
<rscale>  4 0.24804340E+03</rscale>
<asrwt>0</asrwt>
<pdfrwt beam="1">  1       21 0.25615970E-01 0.24804340E+03</pdfrwt>
<pdfrwt beam="2">  1        2 0.15774899E+00 0.24804340E+03</pdfrwt>
<totfact> 0.45653708E+03</totfact>
</mgrwt>
</event>
<event>
 5    0  0.3040647E+000  0.3455220E+03  0.7546771E-02  0.1064468E+00
         21   -1    0    0  503  502  0.00000000000E+00  0.00000000000E+00  0.57319710665E+03  0.57319710665E+03  0.00000000000E+00 0.  1.
          2   -1    0    0  502    0 -0.00000000000E+00 -0.00000000000E+00 -0.10652548768E+04  0.10652548768E+04  0.00000000000E+00 0.  1.
         25    1    1    2    0    0 -0.16980128766E+03  0.18309647849E+03 -0.26025605471E+03  0.38172635715E+03  0.12500000000E+03 0.  0.
         21    1    1    2  503  501 -0.23602420436E+03 -0.71891055817E+02  0.41634841809E+03  0.48396462081E+03  0.00000000000E+00 0.  1.
          2    1    1    2  501    0  0.40582549202E+03 -0.11120542267E+03 -0.64815013350E+03  0.77276100546E+03  0.00000000000E+00 0.  1.
<mgrwt>
<rscale>  4 0.34552204E+03</rscale>
<asrwt>0</asrwt>
<pdfrwt beam="1">  1       21 0.88184170E-01 0.34552204E+03</pdfrwt>
<pdfrwt beam="2">  1        2 0.16388537E+00 0.34552204E+03</pdfrwt>
<totfact> 0.30837401E+02</totfact>
</mgrwt>
</event>
<event>
 5    0  0.3040647E+000  0.3743870E+03  0.7546771E-02  0.1053028E+00
         21   -1    0    0  503  502  0.00000000000E+00  0.00000000000E+00  0.68071595551E+03  0.68071595551E+03  0.00000000000E+00 0.  1.
          2   -1    0    0  502    0 -0.00000000000E+00 -0.00000000000E+00 -0.14127436150E+04  0.14127436150E+04  0.00000000000E+00 0. -1.
         25    1    1    2    0    0  0.21634042316E+03  0.22052192696E+03  0.48060359646E+03  0.58484007720E+03  0.12500000000E+03 0.  0.
         21    1    1    2  503  501  0.24807944462E+02  0.39762208315E+02  0.12038578918E+03  0.12918670812E+03  0.00000000000E+00 0.  1.
          2    1    1    2  501    0 -0.24114836762E+03 -0.26028413527E+03 -0.13330170451E+04  0.13794327852E+04  0.00000000000E+00 0. -1.
<mgrwt>
<rscale>  4 0.37438698E+03</rscale>
<asrwt>0</asrwt>
<pdfrwt beam="1">  1       21 0.10472553E+00 0.37438698E+03</pdfrwt>
<pdfrwt beam="2">  1        2 0.21734517E+00 0.37438698E+03</pdfrwt>
<totfact> 0.12767901E+02</totfact>
</mgrwt>
</event>
<event>
 5    0  0.3040647E+000  0.2450201E+03  0.7546771E-02  0.1116493E+00
         21   -1    0    0  503  502  0.00000000000E+00  0.00000000000E+00  0.53442727677E+02  0.53442727677E+02  0.00000000000E+00 0.  1.
          1   -1    0    0  502    0 -0.00000000000E+00 -0.00000000000E+00 -0.16146192163E+04  0.16146192163E+04  0.00000000000E+00 0.  1.
         25    1    1    2    0    0 -0.23519587286E+03  0.18355443092E+01 -0.11384641550E+04  0.11692074666E+04  0.12500000000E+03 0.  0.
         21    1    1    2  503  501  0.55492529467E+02 -0.13584943413E+02 -0.25181038632E+02  0.62434415355E+02  0.00000000000E+00 0.  1.
          1    1    1    2  501    0  0.17970334339E+03  0.11749399104E+02 -0.39753129504E+03  0.43642006203E+03  0.00000000000E+00 0.  1.
<mgrwt>
<rscale>  4 0.24502009E+03</rscale>
<asrwt>0</asrwt>
<pdfrwt beam="1">  1       21 0.82219575E-02 0.24502009E+03</pdfrwt>
<pdfrwt beam="2">  1        1 0.24840297E+00 0.24502009E+03</pdfrwt>
<totfact> 0.76844461E+03</totfact>
</mgrwt>
</event>
<event>
 5    0  0.3040647E+000  0.2027863E+03  0.7546771E-02  0.1147409E+00
          2   -1    0    0  502    0 -0.00000000000E+00  0.00000000000E+00  0.33526509159E+04  0.33526509159E+04  0.00000000000E+00 0.  1.
         21   -1    0    0  503  502  0.00000000000E+00 -0.00000000000E+00 -0.42240526196E+03  0.42240526196E+03  0.00000000000E+00 0.  1.
         25    1    1    2    0    0  0.23480850839E+03 -0.12506799871E+03 -0.28970258002E+03  0.41271009775E+03  0.12500000000E+03 0.  0.
         21    1    1    2  503  501 -0.11189308915E+03  0.24023956367E+02 -0.21963756573E+02  0.11653162868E+03  0.00000000000E+00 0.  1.
          2    1    1    2  501    0 -0.12291541924E+03  0.10104404235E+03  0.32419119905E+04  0.32458144514E+04  0.00000000000E+00 0.  1.
<mgrwt>
<rscale>  4 0.20278634E+03</rscale>
<asrwt>0</asrwt>
<pdfrwt beam="1">  1       21 0.64985427E-01 0.20278634E+03</pdfrwt>
<pdfrwt beam="2">  1        2 0.51579243E+00 0.20278634E+03</pdfrwt>
<totfact> 0.36119790E+01</totfact>
</mgrwt>
</event>
<event>
 5    0  0.3040647E+000  0.1960389E+03  0.7546771E-02  0.1153125E+00
         21   -1    0    0  503  502  0.00000000000E+00  0.00000000000E+00  0.23903078606E+03  0.23903078606E+03  0.00000000000E+00 0.  1.
          2   -1    0    0  502    0 -0.00000000000E+00 -0.00000000000E+00 -0.11188929008E+04  0.11188929008E+04  0.00000000000E+00 0.  1.
         25    1    1    2    0    0  0.15930563824E+03 -0.15909578988E+03  0.59130152018E+01  0.25758439487E+03  0.12500000000E+03 0.  0.
         21    1    1    2  503  501 -0.65800092944E+02  0.11093922430E+03  0.64533439690E+02  0.14422804359E+03  0.00000000000E+00 0.  1.
          2    1    1    2  501    0 -0.93505545293E+02  0.48156565581E+02 -0.95030856966E+03  0.95611124843E+03  0.00000000000E+00 0.  1.
<mgrwt>
<rscale>  4 0.19603893E+03</rscale>
<asrwt>0</asrwt>
<pdfrwt beam="1">  1       21 0.36773967E-01 0.19603893E+03</pdfrwt>
<pdfrwt beam="2">  1        2 0.17213737E+00 0.19603893E+03</pdfrwt>
<totfact> 0.20219614E+03</totfact>
</mgrwt>
</event>
<event>
 5    0  0.3040647E+000  0.2011406E+03  0.7546771E-02  0.1148780E+00
          3   -1    0    0  502    0 -0.00000000000E+00  0.00000000000E+00  0.14584559113E+04  0.14584559113E+04  0.00000000000E+00 0. -1.
         21   -1    0    0  503  502  0.00000000000E+00 -0.00000000000E+00 -0.17641360964E+03  0.17641360964E+03  0.00000000000E+00 0. -1.
         25    1    1    2    0    0  0.15866238418E+03  0.18919250135E+03  0.11320092813E+04  0.11653486893E+04  0.12500000000E+03 0.  0.
         21    1    1    2  503  501 -0.41495016055E+02 -0.14947157795E+03 -0.10413912061E+03  0.18683828680E+03  0.00000000000E+00 0. -1.
          3    1    1    2  501    0 -0.11716736813E+03 -0.39720923398E+02  0.25417214105E+03  0.28268254491E+03  0.00000000000E+00 0. -1.
<mgrwt>
<rscale>  4 0.20114057E+03</rscale>
<asrwt>0</asrwt>
<pdfrwt beam="1">  1       21 0.27140556E-01 0.20114057E+03</pdfrwt>
<pdfrwt beam="2">  1        3 0.22437783E+00 0.20114057E+03</pdfrwt>
<totfact> 0.74047109E+01</totfact>
</mgrwt>
</event>
<event>
 5    0  0.3040647E+000  0.2696009E+03  0.7546771E-02  0.1101508E+00
         21   -1    0    0  503  502  0.00000000000E+00  0.00000000000E+00  0.11075161692E+03  0.11075161692E+03  0.00000000000E+00 0. -1.
          2   -1    0    0  502    0 -0.00000000000E+00 -0.00000000000E+00 -0.85073679167E+03  0.85073679167E+03  0.00000000000E+00 0. -1.
         25    1    1    2    0    0  0.32053985808E+02 -0.22082883301E+03 -0.30516514836E+03  0.39817533734E+03  0.12500000000E+03 0.  0.
         21    1    1    2  503  501 -0.40998091647E+02 -0.30656087469E+02  0.10081182052E+02  0.52175372056E+02  0.00000000000E+00 0. -1.
          2    1    1    2  501    0  0.89441058391E+01  0.25148492048E+03 -0.44490120845E+03  0.51113769919E+03  0.00000000000E+00 0. -1.
<mgrwt>
<rscale>  4 0.26960089E+03</rscale>
<asrwt>0</asrwt>
<pdfrwt beam="1">  1       21 0.17038711E-01 0.26960089E+03</pdfrwt>
<pdfrwt beam="2">  1        2 0.13088258E+00 0.26960089E+03</pdfrwt>
<totfact> 0.12657669E+04</totfact>
</mgrwt>
</event>
<event>
 5    0  0.3040647E+000  0.2892157E+03  0.7546771E-02  0.1090759E+00
         -4   -1    0    0    0  501 -0.00000000000E+00  0.00000000000E+00  0.60374131326E+03  0.60374131326E+03  0.00000000000E+00 0.  1.
         21   -1    0    0  501  502  0.00000000000E+00 -0.00000000000E+00 -0.33652664542E+03  0.33652664542E+03  0.00000000000E+00 0. -1.
         25    1    1    2    0    0 -0.20153963018E+03 -0.19072212787E+02 -0.67757049250E+02  0.24738227414E+03  0.12500000000E+03 0.  0.
         21    1    1    2  503  502 -0.73358468003E+02  0.30148101948E+02 -0.13019426106E+03  0.15244972448E+03  0.00000000000E+00 0. -1.
         -4    1    1    2    0  503  0.27489809819E+03 -0.11075889161E+02  0.46516597815E+03  0.54043596007E+03  0.00000000000E+00 0.  1.
<mgrwt>
<rscale>  4 0.28921575E+03</rscale>
<asrwt>0</asrwt>
<pdfrwt beam="1">  1       21 0.51773330E-01 0.28921575E+03</pdfrwt>
<pdfrwt beam="2">  1       -4 0.92883279E-01 0.28921575E+03</pdfrwt>
<totfact> 0.14846709E+02</totfact>
</mgrwt>
</event>
<event>
 5    0  0.3040647E+000  0.2107109E+03  0.7546771E-02  0.1141004E+00
          3   -1    0    0  502    0 -0.00000000000E+00  0.00000000000E+00  0.67502967623E+03  0.67502967623E+03  0.00000000000E+00 0.  1.
         21   -1    0    0  503  502  0.00000000000E+00 -0.00000000000E+00 -0.16291449460E+03  0.16291449460E+03  0.00000000000E+00 0.  1.
         25    1    1    2    0    0  0.12153389026E+03 -0.16882730766E+03  0.13908207120E+03  0.27971765912E+03  0.12500000000E+03 0.  0.
         21    1    1    2  503  501 -0.81740742234E+02  0.98579756996E+01 -0.55591325554E+02  0.99343465325E+02  0.00000000000E+00 0.  1.
          3    1    1    2  501    0 -0.39793148024E+02  0.15896933196E+03  0.42862443599E+03  0.45888304639E+03  0.00000000000E+00 0.  1.
<mgrwt>
<rscale>  4 0.21071086E+03</rscale>
<asrwt>0</asrwt>
<pdfrwt beam="1">  1       21 0.25063769E-01 0.21071086E+03</pdfrwt>
<pdfrwt beam="2">  1        3 0.10385072E+00 0.21071086E+03</pdfrwt>
<totfact> 0.61777838E+02</totfact>
</mgrwt>
</event>
<event>
 5    0  0.3040647E+000  0.2796271E+03  0.7546771E-02  0.1095893E+00
         -2   -1    0    0    0  501 -0.00000000000E+00  0.00000000000E+00  0.36291819656E+03  0.36291819656E+03  0.00000000000E+00 0. -1.
         21   -1    0    0  501  502  0.00000000000E+00 -0.00000000000E+00 -0.35930022259E+03  0.35930022259E+03  0.00000000000E+00 0. -1.
         25    1    1    2    0    0 -0.21844129031E+03 -0.88708089319E+02  0.43814103696E+02  0.27042632658E+03  0.12500000000E+03 0.  0.
         21    1    1    2  503  502 -0.53776865273E+02  0.93227428463E+02 -0.12659006602E+03  0.16615760432E+03  0.00000000000E+00 0. -1.
         -2    1    1    2    0  503  0.27221815558E+03 -0.45193391439E+01  0.86393936289E+02  0.28563448826E+03  0.00000000000E+00 0. -1.
<mgrwt>
<rscale>  4 0.27962711E+03</rscale>
<asrwt>0</asrwt>
<pdfrwt beam="1">  1       21 0.55276957E-01 0.27962711E+03</pdfrwt>
<pdfrwt beam="2">  1       -2 0.55833569E-01 0.27962711E+03</pdfrwt>
<totfact> 0.74772934E+02</totfact>
</mgrwt>
</event>
<event>
 5    0  0.3040647E+000  0.2642782E+03  0.7546771E-02  0.1104600E+00
         21   -1    0    0  503  502  0.00000000000E+00  0.00000000000E+00  0.20529772405E+04  0.20529772405E+04  0.00000000000E+00 0. -1.
          2   -1    0    0  502    0 -0.00000000000E+00 -0.00000000000E+00 -0.14556623370E+04  0.14556623370E+04  0.00000000000E+00 0.  1.
         25    1    1    2    0    0  0.93340562322E+02 -0.21493975025E+03  0.15072219538E+04  0.15304426074E+04  0.12500000000E+03 0.  0.
         21    1    1    2  503  501  0.17586611272E+02  0.10217022005E+02  0.52456046999E+03  0.52495462957E+03  0.00000000000E+00 0. -1.
          2    1    1    2  501    0 -0.11092717359E+03  0.20472272824E+03 -0.14344675202E+04  0.14532423404E+04  0.00000000000E+00 0.  1.
<mgrwt>
<rscale>  4 0.26427822E+03</rscale>
<asrwt>0</asrwt>
<pdfrwt beam="1">  1       21 0.31584265E+00 0.26427822E+03</pdfrwt>
<pdfrwt beam="2">  1        2 0.22394805E+00 0.26427822E+03</pdfrwt>
<totfact> 0.46152595E+00</totfact>
</mgrwt>
</event>
<event>
 5    0  0.3040647E+000  0.3478563E+03  0.7546771E-02  0.1063498E+00
         21   -1    0    0  503  502  0.00000000000E+00  0.00000000000E+00  0.12667522920E+03  0.12667522920E+03  0.00000000000E+00 0.  1.
          2   -1    0    0  502    0 -0.00000000000E+00 -0.00000000000E+00 -0.26026613345E+04  0.26026613345E+04  0.00000000000E+00 0. -1.
         25    1    1    2    0    0 -0.23215031984E+03  0.27568531063E+03 -0.44881858802E+03  0.58903250034E+03  0.12500000000E+03 0.  0.
         21    1    1    2  503  501  0.24578988794E+02 -0.34265778133E+02  0.34322888129E+02  0.54372151794E+02  0.00000000000E+00 0. -1.
          2    1    1    2  501    0  0.20757133105E+03 -0.24141953249E+03 -0.20614904054E+04  0.20859319116E+04  0.00000000000E+00 0. -1.
<mgrwt>
<rscale>  4 0.34785631E+03</rscale>
<asrwt>0</asrwt>
<pdfrwt beam="1">  1       21 0.19488496E-01 0.34785631E+03</pdfrwt>
<pdfrwt beam="2">  1        2 0.40040946E+00 0.34785631E+03</pdfrwt>
<totfact> 0.10243311E+03</totfact>
</mgrwt>
</event>
<event>
 5    0  0.3040647E+000  0.2784519E+03  0.7546771E-02  0.1096537E+00
         -4   -1    0    0    0  501 -0.00000000000E+00  0.00000000000E+00  0.13367803291E+04  0.13367803291E+04  0.00000000000E+00 0.  1.
         21   -1    0    0  501  502  0.00000000000E+00 -0.00000000000E+00 -0.24733310874E+03  0.24733310874E+03  0.00000000000E+00 0.  1.
         25    1    1    2    0    0  0.29717463987E+02 -0.24141854217E+03  0.96064387583E+03  0.99881314385E+03  0.12500000000E+03 0.  0.
         21    1    1    2  503  502 -0.40984069471E+02 -0.24313830302E+02 -0.17508712011E+03  0.18145620938E+03  0.00000000000E+00 0.  1.
         -4    1    1    2    0  503  0.11266605484E+02  0.26573237247E+03  0.30389046466E+03  0.40384408463E+03  0.00000000000E+00 0.  1.
<mgrwt>
<rscale>  4 0.27845193E+03</rscale>
<asrwt>0</asrwt>
<pdfrwt beam="1">  1       21 0.38051248E-01 0.27845193E+03</pdfrwt>
<pdfrwt beam="2">  1       -4 0.20565851E+00 0.27845193E+03</pdfrwt>
<totfact> 0.36361952E+01</totfact>
</mgrwt>
</event>
<event>
 5    0  0.3040647E+000  0.2724565E+03  0.7546771E-02  0.1099882E+00
         21   -1    0    0  503  502  0.00000000000E+00  0.00000000000E+00  0.10197444047E+04  0.10197444047E+04  0.00000000000E+00 0.  1.
          1   -1    0    0  502    0 -0.00000000000E+00 -0.00000000000E+00 -0.25000277342E+03  0.25000277342E+03  0.00000000000E+00 0.  1.
         25    1    1    2    0    0  0.14177601631E+03  0.19940157614E+03  0.91693889075E+03  0.95721646284E+03  0.12500000000E+03 0.  0.
         21    1    1    2  503  501 -0.32726516758E+02 -0.14373936700E+02  0.19445445672E+02  0.40691034796E+02  0.00000000000E+00 0. -1.
          1    1    1    2  501    0 -0.10904949955E+03 -0.18502763944E+03 -0.16664270514E+03  0.27183968048E+03  0.00000000000E+00 0.  1.
<mgrwt>
<rscale>  4 0.27245646E+03</rscale>
<asrwt>0</asrwt>
<pdfrwt beam="1">  1       21 0.15688375E+00 0.27245646E+03</pdfrwt>
<pdfrwt beam="2">  1        1 0.38461966E-01 0.27245646E+03</pdfrwt>
<totfact> 0.30400119E+02</totfact>
</mgrwt>
</event>
<event>
 5    0  0.3040647E+000  0.2689491E+03  0.7546771E-02  0.1101883E+00
         21   -1    0    0  503  502  0.00000000000E+00  0.00000000000E+00  0.98153070082E+03  0.98153070082E+03  0.00000000000E+00 0.  1.
          2   -1    0    0  502    0 -0.00000000000E+00 -0.00000000000E+00 -0.51840832603E+03  0.51840832603E+03  0.00000000000E+00 0. -1.
         25    1    1    2    0    0  0.15461584610E+03  0.21595321187E+03  0.61812804845E+03  0.68428731821E+03  0.12500000000E+03 0.  0.
         21    1    1    2  503  501 -0.20861808286E+02 -0.20403616910E+02  0.30066120681E+03  0.30207397092E+03  0.00000000000E+00 0. -1.
          2    1    1    2  501    0 -0.13375403782E+03 -0.19554959496E+03 -0.45566688047E+03  0.51357773772E+03  0.00000000000E+00 0. -1.
<mgrwt>
<rscale>  4 0.26894910E+03</rscale>
<asrwt>0</asrwt>
<pdfrwt beam="1">  1       21 0.15100472E+00 0.26894910E+03</pdfrwt>
<pdfrwt beam="2">  1        2 0.79755128E-01 0.26894910E+03</pdfrwt>
<totfact> 0.20868734E+02</totfact>
</mgrwt>
</event>
<event>
 5    0  0.3040647E+000  0.3150935E+03  0.7546771E-02  0.1077930E+00
         21   -1    0    0  503  502  0.00000000000E+00  0.00000000000E+00  0.23743654242E+03  0.23743654242E+03  0.00000000000E+00 0. -1.
          2   -1    0    0  502    0 -0.00000000000E+00 -0.00000000000E+00 -0.88286762714E+03  0.88286762714E+03  0.00000000000E+00 0. -1.
         25    1    1    2    0    0  0.40047006410E+02 -0.32164022756E+03  0.35799697705E+02  0.34923175266E+03  0.12500000000E+03 0.  0.
         21    1    1    2  503  501 -0.17621199488E+01  0.40203872055E+02 -0.89085618113E+01  0.41216730444E+02  0.00000000000E+00 0.  1.
          2    1    1    2  501    0 -0.38284886461E+02  0.28143635550E+03 -0.67232222061E+03  0.72985568646E+03  0.00000000000E+00 0. -1.
<mgrwt>
<rscale>  4 0.31509351E+03</rscale>
<asrwt>0</asrwt>
<pdfrwt beam="1">  1       21 0.36528699E-01 0.31509351E+03</pdfrwt>
<pdfrwt beam="2">  1        2 0.13582579E+00 0.31509351E+03</pdfrwt>
<totfact> 0.27330320E+03</totfact>
</mgrwt>
</event>
<event>
 5    0  0.3040647E+000  0.2308852E+03  0.7546771E-02  0.1126018E+00
          2   -1    0    0  502    0 -0.00000000000E+00  0.00000000000E+00  0.15730030537E+04  0.15730030537E+04  0.00000000000E+00 0. -1.
         21   -1    0    0  503  502  0.00000000000E+00 -0.00000000000E+00 -0.68769657251E+02  0.68769657251E+02  0.00000000000E+00 0.  1.
         25    1    1    2    0    0  0.13594328856E+03 -0.15104283453E+03  0.18966713220E+03  0.30478375384E+03  0.12500000000E+03 0.  0.
         21    1    1    2  503  501 -0.42297644617E+01  0.65779494793E+02  0.18126181560E+03  0.19287477450E+03  0.00000000000E+00 0.  1.
          2    1    1    2  501    0 -0.13171352409E+03  0.85263339740E+02  0.11333044487E+04  0.11441141826E+04  0.00000000000E+00 0. -1.
<mgrwt>
<rscale>  4 0.23088524E+03</rscale>
<asrwt>0</asrwt>
<pdfrwt beam="1">  1       21 0.10579948E-01 0.23088524E+03</pdfrwt>
<pdfrwt beam="2">  1        2 0.24200044E+00 0.23088524E+03</pdfrwt>
<totfact> 0.11642782E+04</totfact>
</mgrwt>
</event>
<event>
 5    0  0.3040647E+000  0.3257541E+03  0.7546771E-02  0.1073031E+00
         21   -1    0    0  503  502  0.00000000000E+00  0.00000000000E+00  0.75515649938E+03  0.75515649938E+03  0.00000000000E+00 0. -1.
          2   -1    0    0  502    0 -0.00000000000E+00 -0.00000000000E+00 -0.22412466819E+03  0.22412466819E+03  0.00000000000E+00 0.  1.
         25    1    1    2    0    0 -0.30862931588E+03 -0.87385184604E+02  0.53522047418E+03  0.63637581749E+03  0.12500000000E+03 0.  0.
         21    1    1    2  503  501  0.18712354384E+02  0.25446331004E+02  0.31131674562E+02  0.44349172813E+02  0.00000000000E+00 0. -1.
          2    1    1    2  501    0  0.28991696150E+03  0.61938853600E+02 -0.35320317552E+02  0.29855617726E+03  0.00000000000E+00 0.  1.
<mgrwt>
<rscale>  4 0.32575408E+03</rscale>
<asrwt>0</asrwt>
<pdfrwt beam="1">  1       21 0.11617792E+00 0.32575408E+03</pdfrwt>
<pdfrwt beam="2">  1        2 0.34480719E-01 0.32575408E+03</pdfrwt>
<totfact> 0.10044522E+03</totfact>
</mgrwt>
</event>
<event>
 5    0  0.3040647E+000  0.1924093E+03  0.7546771E-02  0.1156306E+00
         21   -1    0    0  503  502  0.00000000000E+00  0.00000000000E+00  0.13656767942E+03  0.13656767942E+03  0.00000000000E+00 0. -1.
          2   -1    0    0  502    0 -0.00000000000E+00 -0.00000000000E+00 -0.76926040386E+03  0.76926040386E+03  0.00000000000E+00 0. -1.
         25    1    1    2    0    0 -0.57581851628E+02 -0.20815660565E+03 -0.17983823023E+03  0.30759003749E+03  0.12500000000E+03 0.  0.
         21    1    1    2  503  501  0.46212519118E+02  0.72143376402E+02  0.34328764743E+02  0.92296954287E+02  0.00000000000E+00 0. -1.
          2    1    1    2  501    0  0.11369332510E+02  0.13601322925E+03 -0.48718325896E+03  0.50594109150E+03  0.00000000000E+00 0. -1.
<mgrwt>
<rscale>  4 0.19240926E+03</rscale>
<asrwt>0</asrwt>
<pdfrwt beam="1">  1       21 0.21010413E-01 0.19240926E+03</pdfrwt>
<pdfrwt beam="2">  1        2 0.11834775E+00 0.19240926E+03</pdfrwt>
<totfact> 0.99214214E+03</totfact>
</mgrwt>
</event>
<event>
 5    0  0.3040647E+000  0.1822880E+03  0.7546771E-02  0.1165607E+00
         -1   -1    0    0    0  501 -0.00000000000E+00  0.00000000000E+00  0.30420361496E+03  0.30420361496E+03  0.00000000000E+00 0. -1.
         21   -1    0    0  501  502  0.00000000000E+00 -0.00000000000E+00 -0.49122439588E+03  0.49122439588E+03  0.00000000000E+00 0. -1.
         25    1    1    2    0    0 -0.17820628434E+03  0.99291629862E+02 -0.22650121956E+03  0.32946033145E+03  0.12500000000E+03 0.  0.
         21    1    1    2  503  502  0.52673628014E+02 -0.70650323344E+02 -0.18627839863E+03  0.20607188326E+03  0.00000000000E+00 0. -1.
         -1    1    1    2    0  503  0.12553265633E+03 -0.28641306517E+02  0.22575883726E+03  0.25989579613E+03  0.00000000000E+00 0. -1.
<mgrwt>
<rscale>  4 0.18228800E+03</rscale>
<asrwt>0</asrwt>
<pdfrwt beam="1">  1       21 0.75572983E-01 0.18228800E+03</pdfrwt>
<pdfrwt beam="2">  1       -1 0.46800557E-01 0.18228800E+03</pdfrwt>
<totfact> 0.67356482E+02</totfact>
</mgrwt>
</event>
<event>
 5    0  0.3040647E+000  0.3715568E+03  0.7546771E-02  0.1054099E+00
         21   -1    0    0  503  502  0.00000000000E+00  0.00000000000E+00  0.25285017538E+03  0.25285017538E+03  0.00000000000E+00 0.  1.
          1   -1    0    0  502    0 -0.00000000000E+00 -0.00000000000E+00 -0.80626989218E+03  0.80626989218E+03  0.00000000000E+00 0.  1.
         25    1    1    2    0    0  0.34781567633E+02  0.34218701181E+03 -0.53935386130E+03  0.65178930353E+03  0.12500000000E+03 0.  0.
         21    1    1    2  503  501 -0.43422188379E+01  0.23788574607E+02  0.28791462005E+02  0.37599194548E+02  0.00000000000E+00 0. -1.
          1    1    1    2  501    0 -0.30439348795E+02 -0.36597558642E+03 -0.42857317504E+02  0.36973156948E+03  0.00000000000E+00 0.  1.
<mgrwt>
<rscale>  4 0.37155676E+03</rscale>
<asrwt>0</asrwt>
<pdfrwt beam="1">  1       21 0.38900026E-01 0.37155676E+03</pdfrwt>
<pdfrwt beam="2">  1        1 0.12404152E+00 0.37155676E+03</pdfrwt>
<totfact> 0.15196775E+03</totfact>
</mgrwt>
</event>
<event>
 5    0  0.3040647E+000  0.4542509E+03  0.7546771E-02  0.1026462E+00
          2   -1    0    0  502    0 -0.00000000000E+00  0.00000000000E+00  0.83247480811E+03  0.83247480811E+03  0.00000000000E+00 0.  1.
         21   -1    0    0  503  502  0.00000000000E+00 -0.00000000000E+00 -0.35767172311E+03  0.35767172311E+03  0.00000000000E+00 0. -1.
         25    1    1    2    0    0 -0.26682708602E+03  0.36745654834E+03 -0.51431490720E+02  0.47380503057E+03  0.12500000000E+03 0.  0.
         21    1    1    2  503  501  0.10262289441E+02 -0.20276163677E+02 -0.12537159817E+02  0.25954147535E+02  0.00000000000E+00 0. -1.
          2    1    1    2  501    0  0.25656479658E+03 -0.34718038467E+03  0.53877173554E+03  0.69038735312E+03  0.00000000000E+00 0.  1.
<mgrwt>
<rscale>  4 0.45425092E+03</rscale>
<asrwt>0</asrwt>
<pdfrwt beam="1">  1       21 0.55026419E-01 0.45425092E+03</pdfrwt>
<pdfrwt beam="2">  1        2 0.12807305E+00 0.45425092E+03</pdfrwt>
<totfact> 0.12130264E+03</totfact>
</mgrwt>
</event>
<event>
 5    0  0.3040647E+000  0.2826997E+03  0.7546771E-02  0.1094224E+00
         -1   -1    0    0    0  501 -0.00000000000E+00  0.00000000000E+00  0.49823729003E+03  0.49823729003E+03  0.00000000000E+00 0. -1.
         21   -1    0    0  501  502  0.00000000000E+00 -0.00000000000E+00 -0.42942592777E+03  0.42942592777E+03  0.00000000000E+00 0. -1.
         25    1    1    2    0    0 -0.14785219448E+03  0.21360768277E+03 -0.17963587266E+03  0.33968008523E+03  0.12500000000E+03 0.  0.
         21    1    1    2  503  502 -0.26137836235E+02 -0.29892802432E+02 -0.12821500006E+03  0.13422314391E+03  0.00000000000E+00 0. -1.
         -1    1    1    2    0  503  0.17399003072E+03 -0.18371488034E+03  0.37666223498E+03  0.45375998866E+03  0.00000000000E+00 0. -1.
<mgrwt>
<rscale>  4 0.28269967E+03</rscale>
<asrwt>0</asrwt>
<pdfrwt beam="1">  1       21 0.66065527E-01 0.28269967E+03</pdfrwt>
<pdfrwt beam="2">  1       -1 0.76651891E-01 0.28269967E+03</pdfrwt>
<totfact> 0.33572067E+02</totfact>
</mgrwt>
</event>
<event>
 5    0  0.3040647E+000  0.3238528E+03  0.7546771E-02  0.1073890E+00
         -2   -1    0    0    0  501 -0.00000000000E+00  0.00000000000E+00  0.89358023961E+03  0.89358023961E+03  0.00000000000E+00 0. -1.
         21   -1    0    0  501  502  0.00000000000E+00 -0.00000000000E+00 -0.17993498684E+03  0.17993498684E+03  0.00000000000E+00 0. -1.
         25    1    1    2    0    0  0.88909047214E+02  0.26753478120E+03  0.54157649808E+03  0.62322530525E+03  0.12500000000E+03 0.  0.
         21    1    1    2  503  502  0.45433066495E+01  0.59926544418E+02 -0.14741270886E+02  0.61880024471E+02  0.00000000000E+00 0. -1.
         -2    1    1    2    0  503 -0.93452353863E+02 -0.32746132562E+03  0.18681002558E+03  0.38840989673E+03  0.00000000000E+00 0. -1.
<mgrwt>
<rscale>  4 0.32385281E+03</rscale>
<asrwt>0</asrwt>
<pdfrwt beam="1">  1       21 0.27682306E-01 0.32385281E+03</pdfrwt>
<pdfrwt beam="2">  1       -2 0.13747388E+00 0.32385281E+03</pdfrwt>
<totfact> 0.39109885E+02</totfact>
</mgrwt>
</event>
<event>
 5    0  0.3040647E+000  0.1882224E+03  0.7546771E-02  0.1160074E+00
         -1   -1    0    0    0  501 -0.00000000000E+00  0.00000000000E+00  0.10350674354E+04  0.10350674354E+04  0.00000000000E+00 0. -1.
         21   -1    0    0  501  502  0.00000000000E+00 -0.00000000000E+00 -0.90790745722E+03  0.90790745722E+03  0.00000000000E+00 0. -1.
         25    1    1    2    0    0 -0.17673261052E+03  0.13959998462E+03 -0.76226942832E+03  0.80461310745E+03  0.12500000000E+03 0.  0.
         21    1    1    2  503  502  0.66774047931E+02 -0.52635960719E+02 -0.10442858905E+03  0.13466494736E+03  0.00000000000E+00 0. -1.
         -1    1    1    2    0  503  0.10995856259E+03 -0.86964023902E+02  0.99385799555E+03  0.10036968378E+04  0.00000000000E+00 0. -1.
<mgrwt>
<rscale>  4 0.18822239E+03</rscale>
<asrwt>0</asrwt>
<pdfrwt beam="1">  1       21 0.13967807E+00 0.18822239E+03</pdfrwt>
<pdfrwt beam="2">  1       -1 0.15924114E+00 0.18822239E+03</pdfrwt>
<totfact> 0.11048269E+01</totfact>
</mgrwt>
</event>
<event>
 5    0  0.3040647E+000  0.2382144E+03  0.7546771E-02  0.1120988E+00
          2   -1    0    0  502    0 -0.00000000000E+00  0.00000000000E+00  0.28176489118E+04  0.28176489118E+04  0.00000000000E+00 0.  1.
         21   -1    0    0  503  502  0.00000000000E+00 -0.00000000000E+00 -0.40254992924E+02  0.40254992924E+02  0.00000000000E+00 0.  1.
         25    1    1    2    0    0 -0.25015696336E+02  0.23260450207E+03  0.22540321463E+04  0.22695851066E+04  0.12500000000E+03 0.  0.
         21    1    1    2  503  501  0.38551521688E+02 -0.19470275594E+03  0.28942150421E+03  0.35094186142E+03  0.00000000000E+00 0.  1.
          2    1    1    2  501    0 -0.13535825352E+02 -0.37901746132E+02  0.23394026837E+03  0.23737693673E+03  0.00000000000E+00 0.  1.
<mgrwt>
<rscale>  4 0.23821438E+03</rscale>
<asrwt>0</asrwt>
<pdfrwt beam="1">  1       21 0.61930781E-02 0.23821438E+03</pdfrwt>
<pdfrwt beam="2">  1        2 0.43348429E+00 0.23821438E+03</pdfrwt>
<totfact> 0.63823925E+03</totfact>
</mgrwt>
</event>
<event>
 5    0  0.3040647E+000  0.2645705E+03  0.7546771E-02  0.1104428E+00
         21   -1    0    0  503  502  0.00000000000E+00  0.00000000000E+00  0.15919394370E+03  0.15919394370E+03  0.00000000000E+00 0. -1.
          3   -1    0    0  502    0 -0.00000000000E+00 -0.00000000000E+00 -0.78881197703E+03  0.78881197703E+03  0.00000000000E+00 0. -1.
         25    1    1    2    0    0 -0.92436281578E+02 -0.19873251081E+03 -0.12962838389E+02  0.25265017749E+03  0.12500000000E+03 0.  0.
         21    1    1    2  503  501  0.13187566243E+02 -0.23392985824E+02  0.77057425483E+01  0.27937826641E+02  0.00000000000E+00 0. -1.
          3    1    1    2  501    0  0.79248715335E+02  0.22212549664E+03 -0.62436093749E+03  0.66741791660E+03  0.00000000000E+00 0. -1.
<mgrwt>
<rscale>  4 0.26457049E+03</rscale>
<asrwt>0</asrwt>
<pdfrwt beam="1">  1       21 0.24491376E-01 0.26457049E+03</pdfrwt>
<pdfrwt beam="2">  1        3 0.12135569E+00 0.26457049E+03</pdfrwt>
<totfact> 0.44430501E+02</totfact>
</mgrwt>
</event>
<event>
 5    0  0.3040647E+000  0.2966825E+03  0.7546771E-02  0.1086911E+00
         21   -1    0    0  503  502  0.00000000000E+00  0.00000000000E+00  0.73623024201E+02  0.73623024201E+02  0.00000000000E+00 0.  1.
          2   -1    0    0  502    0 -0.00000000000E+00 -0.00000000000E+00 -0.20643725364E+04  0.20643725364E+04  0.00000000000E+00 0.  1.
         25    1    1    2    0    0 -0.28602837111E+03  0.38578726758E+02 -0.60895867157E+03  0.68538763551E+03  0.12500000000E+03 0.  0.
         21    1    1    2  503  501  0.34562051691E+02 -0.14361198821E+03 -0.26851950483E+03  0.30646641423E+03  0.00000000000E+00 0.  1.
          2    1    1    2  501    0  0.25146631941E+03  0.10503326145E+03 -0.11132713358E+04  0.11461415109E+04  0.00000000000E+00 0.  1.
<mgrwt>
<rscale>  4 0.29668254E+03</rscale>
<asrwt>0</asrwt>
<pdfrwt beam="1">  1       21 0.11326618E-01 0.29668254E+03</pdfrwt>
<pdfrwt beam="2">  1        2 0.31759580E+00 0.29668254E+03</pdfrwt>
<totfact> 0.55594348E+03</totfact>
</mgrwt>
</event>
<event>
 5    0  0.3040647E+000  0.2450590E+03  0.7546771E-02  0.1116468E+00
         21   -1    0    0  503  502  0.00000000000E+00  0.00000000000E+00  0.49741219695E+02  0.49741219695E+02  0.00000000000E+00 0.  1.
          1   -1    0    0  502    0 -0.00000000000E+00 -0.00000000000E+00 -0.17051399657E+04  0.17051399657E+04  0.00000000000E+00 0.  1.
         25    1    1    2    0    0 -0.10731802288E+03 -0.17790406313E+03 -0.12313624318E+04  0.12550081483E+04  0.12500000000E+03 0.  0.
         21    1    1    2  503  501  0.28774328081E+02 -0.28425762055E+02 -0.39912303671E+02  0.56824096026E+02  0.00000000000E+00 0. -1.
          1    1    1    2  501    0  0.78543694802E+02  0.20632982519E+03 -0.38412401046E+03  0.44304894105E+03  0.00000000000E+00 0.  1.
<mgrwt>
<rscale>  4 0.24505904E+03</rscale>
<asrwt>0</asrwt>
<pdfrwt beam="1">  1       21 0.76524955E-02 0.24505904E+03</pdfrwt>
<pdfrwt beam="2">  1        1 0.26232922E+00 0.24505904E+03</pdfrwt>
<totfact> 0.76041076E+03</totfact>
</mgrwt>
</event>
<event>
 5    0  0.3040647E+000  0.1717954E+03  0.7546771E-02  0.1175988E+00
         -1   -1    0    0    0  501 -0.00000000000E+00  0.00000000000E+00  0.12997332858E+04  0.12997332858E+04  0.00000000000E+00 0.  1.
         21   -1    0    0  501  502  0.00000000000E+00 -0.00000000000E+00 -0.88122926492E+02  0.88122926492E+02  0.00000000000E+00 0. -1.
         25    1    1    2    0    0 -0.19369201663E+03  0.79108616854E+02  0.16961630692E+03  0.29693343049E+03  0.12500000000E+03 0.  0.
         21    1    1    2  503  502  0.80205908054E+02 -0.76559795073E+02  0.12566344566E+03  0.16758786198E+03  0.00000000000E+00 0. -1.
         -1    1    1    2    0  503  0.11348610858E+03 -0.25488217816E+01  0.91633060674E+03  0.92333491983E+03  0.00000000000E+00 0.  1.
<mgrwt>
<rscale>  4 0.17179542E+03</rscale>
<asrwt>0</asrwt>
<pdfrwt beam="1">  1       21 0.13557374E-01 0.17179542E+03</pdfrwt>
<pdfrwt beam="2">  1       -1 0.19995895E+00 0.17179542E+03</pdfrwt>
<totfact> 0.75730240E+02</totfact>
</mgrwt>
</event>
<event>
 5    0  0.3040647E+000  0.2668852E+03  0.7546771E-02  0.1103076E+00
          2   -1    0    0  502    0 -0.00000000000E+00  0.00000000000E+00  0.19365130749E+04  0.19365130749E+04  0.00000000000E+00 0.  1.
         21   -1    0    0  503  502  0.00000000000E+00 -0.00000000000E+00 -0.60618955220E+02  0.60618955220E+02  0.00000000000E+00 0.  1.
         25    1    1    2    0    0 -0.59914435587E+02  0.23527874966E+03  0.36461304230E+03  0.45553649716E+03  0.12500000000E+03 0.  0.
         21    1    1    2  503  501  0.20871022437E+02 -0.40146283694E+01  0.12671977725E+02  0.24744612302E+02  0.00000000000E+00 0.  1.
          2    1    1    2  501    0  0.39043413150E+02 -0.23126412130E+03  0.14986090997E+04  0.15168509207E+04  0.00000000000E+00 0.  1.
<mgrwt>
<rscale>  4 0.26688522E+03</rscale>
<asrwt>0</asrwt>
<pdfrwt beam="1">  1       21 0.93259946E-02 0.26688522E+03</pdfrwt>
<pdfrwt beam="2">  1        2 0.29792504E+00 0.26688522E+03</pdfrwt>
<totfact> 0.92768416E+03</totfact>
</mgrwt>
</event>
<event>
 5    0  0.3040647E+000  0.2823065E+03  0.7546771E-02  0.1094436E+00
          1   -1    0    0  502    0 -0.00000000000E+00  0.00000000000E+00  0.51878053341E+03  0.51878053341E+03  0.00000000000E+00 0.  1.
         21   -1    0    0  503  502  0.00000000000E+00 -0.00000000000E+00 -0.19192734866E+03  0.19192734866E+03  0.00000000000E+00 0.  1.
         25    1    1    2    0    0  0.16320808721E+03 -0.20830895761E+03  0.28269474334E+03  0.40690394378E+03  0.12500000000E+03 0.  0.
         21    1    1    2  503  501 -0.76937440724E+01  0.28385718198E+02 -0.41643632310E+02  0.50981710519E+02  0.00000000000E+00 0. -1.
          1    1    1    2  501    0 -0.15551434313E+03  0.17992323942E+03  0.85802073718E+02  0.25282222777E+03  0.00000000000E+00 0.  1.
<mgrwt>
<rscale>  4 0.28230650E+03</rscale>
<asrwt>0</asrwt>
<pdfrwt beam="1">  1       21 0.29527285E-01 0.28230650E+03</pdfrwt>
<pdfrwt beam="2">  1        1 0.79812389E-01 0.28230650E+03</pdfrwt>
<totfact> 0.50966492E+03</totfact>
</mgrwt>
</event>
<event>
 5    0  0.3159782E+000  0.2206302E+03  0.7546771E-02  0.1133414E+00
         21   -1    0    0  503  502  0.00000000000E+00  0.00000000000E+00  0.13784895068E+03  0.13784895068E+03  0.00000000000E+00 0. -1.
          2   -1    0    0  502    0 -0.00000000000E+00 -0.00000000000E+00 -0.25307730201E+04  0.25307730201E+04  0.00000000000E+00 0. -1.
         25    1    1    2    0    0 -0.19997846824E+03 -0.80264579116E+02 -0.14693356298E+04  0.14903039903E+04  0.12500000000E+03 0.  0.
         21    1    1    2  503  501  0.16736467294E+03  0.67187949133E+02  0.63052349115E+02  0.19105170239E+03  0.00000000000E+00 0. -1.
          2    1    1    2  501    0  0.32613795293E+02  0.13076629983E+02 -0.98664078870E+03  0.98726627807E+03  0.00000000000E+00 0. -1.
<mgrwt>
<rscale>  4 0.22063019E+03</rscale>
<asrwt>0</asrwt>
<pdfrwt beam="1">  1       21 0.21207532E-01 0.22063019E+03</pdfrwt>
<pdfrwt beam="2">  1        2 0.38934968E+00 0.22063019E+03</pdfrwt>
<totfact> 0.10230864E+03</totfact>
</mgrwt>
</event>
<event>
 5    0  0.3040647E+000  0.2709269E+03  0.7546771E-02  0.1100750E+00
          1   -1    0    0  502    0 -0.00000000000E+00  0.00000000000E+00  0.65500378588E+03  0.65500378588E+03  0.00000000000E+00 0.  1.
         21   -1    0    0  503  502  0.00000000000E+00 -0.00000000000E+00 -0.10663021041E+04  0.10663021041E+04  0.00000000000E+00 0.  1.
         25    1    1    2    0    0  0.10362414763E+03 -0.18127154666E+03 -0.21510787275E+03  0.32479799032E+03  0.12500000000E+03 0.  0.
         21    1    1    2  503  501  0.21263329039E+02 -0.27477306524E+02 -0.77129314862E+03  0.77207528949E+03  0.00000000000E+00 0.  1.
          1    1    1    2  501    0 -0.12488747667E+03  0.20874885318E+03  0.57510270312E+03  0.62443261019E+03  0.00000000000E+00 0.  1.
<mgrwt>
<rscale>  4 0.27092693E+03</rscale>
<asrwt>0</asrwt>
<pdfrwt beam="1">  1       21 0.16404648E+00 0.27092693E+03</pdfrwt>
<pdfrwt beam="2">  1        1 0.10076981E+00 0.27092693E+03</pdfrwt>
<totfact> 0.76271954E+01</totfact>
</mgrwt>
</event>
<event>
 5    0  0.3040647E+000  0.2920467E+03  0.7546771E-02  0.1089285E+00
         21   -1    0    0  503  502  0.00000000000E+00  0.00000000000E+00  0.11107218462E+04  0.11107218462E+04  0.00000000000E+00 0.  1.
          2   -1    0    0  502    0 -0.00000000000E+00 -0.00000000000E+00 -0.23311560182E+03  0.23311560182E+03  0.00000000000E+00 0. -1.
         25    1    1    2    0    0  0.23391842742E+03  0.15955844722E+03  0.93776783859E+03  0.98752734031E+03  0.12500000000E+03 0.  0.
         21    1    1    2  503  501 -0.20780813396E+02 -0.66963298479E+01  0.62905108989E+02  0.66586303215E+02  0.00000000000E+00 0. -1.
          2    1    1    2  501    0 -0.21313761402E+03 -0.15286211737E+03 -0.12306670323E+03  0.28972380448E+03  0.00000000000E+00 0. -1.
<mgrwt>
<rscale>  4 0.29204674E+03</rscale>
<asrwt>0</asrwt>
<pdfrwt beam="1">  1       21 0.17088028E+00 0.29204674E+03</pdfrwt>
<pdfrwt beam="2">  1        2 0.35863939E-01 0.29204674E+03</pdfrwt>
<totfact> 0.35254207E+02</totfact>
</mgrwt>
</event>
<event>
 5    0  0.3040647E+000  0.2791564E+03  0.7546771E-02  0.1096151E+00
          2   -1    0    0  502    0 -0.00000000000E+00  0.00000000000E+00  0.33359845527E+04  0.33359845527E+04  0.00000000000E+00 0. -1.
         21   -1    0    0  503  502  0.00000000000E+00 -0.00000000000E+00 -0.32795945113E+03  0.32795945113E+03  0.00000000000E+00 0. -1.
         25    1    1    2    0    0 -0.17381724845E+03 -0.10108746421E+03  0.64523953268E+03  0.68730645699E+03  0.12500000000E+03 0.  0.
         21    1    1    2  503  501 -0.55162763910E+02 -0.31851541487E+02 -0.29697562412E+03  0.30373009817E+03  0.00000000000E+00 0. -1.
          2    1    1    2  501    0  0.22898001236E+03  0.13293900570E+03  0.26597611930E+04  0.26729074486E+04  0.00000000000E+00 0. -1.
<mgrwt>
<rscale>  4 0.27915642E+03</rscale>
<asrwt>0</asrwt>
<pdfrwt beam="1">  1       21 0.50455303E-01 0.27915642E+03</pdfrwt>
<pdfrwt beam="2">  1        2 0.51322837E+00 0.27915642E+03</pdfrwt>
<totfact> 0.59064759E+01</totfact>
</mgrwt>
</event>
<event>
 5    0  0.3040647E+000  0.3172297E+03  0.7546771E-02  0.1076931E+00
          2   -1    0    0  502    0 -0.00000000000E+00  0.00000000000E+00  0.54273646231E+03  0.54273646231E+03  0.00000000000E+00 0.  1.
         21   -1    0    0  503  502  0.00000000000E+00 -0.00000000000E+00 -0.36667351803E+03  0.36667351803E+03  0.00000000000E+00 0.  1.
         25    1    1    2    0    0  0.38641174944E+03 -0.53806478898E+02  0.20807776728E+03  0.45948942807E+03  0.12500000000E+03 0.  0.
         21    1    1    2  503  501 -0.15669882044E+03  0.70400814956E+02 -0.11318689585E+03  0.20572328130E+03  0.00000000000E+00 0.  1.
          2    1    1    2  501    0 -0.22971292900E+03 -0.16594336058E+02  0.81172072861E+02  0.24419727097E+03  0.00000000000E+00 0.  1.
<mgrwt>
<rscale>  4 0.31722968E+03</rscale>
<asrwt>0</asrwt>
<pdfrwt beam="1">  1       21 0.56411310E-01 0.31722968E+03</pdfrwt>
<pdfrwt beam="2">  1        2 0.83497918E-01 0.31722968E+03</pdfrwt>
<totfact> 0.20102823E+03</totfact>
</mgrwt>
</event>
<event>
 5    0  0.3040647E+000  0.1888203E+03  0.7546771E-02  0.1159530E+00
          2   -1    0    0  502    0 -0.00000000000E+00  0.00000000000E+00  0.10346216112E+04  0.10346216112E+04  0.00000000000E+00 0. -1.
         21   -1    0    0  503  502  0.00000000000E+00 -0.00000000000E+00 -0.12692039981E+03  0.12692039981E+03  0.00000000000E+00 0. -1.
         25    1    1    2    0    0 -0.12550350499E+03  0.15871861468E+03  0.16748016941E+03  0.29089059035E+03  0.12500000000E+03 0.  0.
         21    1    1    2  503  501  0.40196863256E+02 -0.53121590628E+02 -0.40669527420E+02  0.78049354046E+02  0.00000000000E+00 0. -1.
          2    1    1    2  501    0  0.85306641733E+02 -0.10559702405E+03  0.78089056941E+03  0.79260206662E+03  0.00000000000E+00 0. -1.
<mgrwt>
<rscale>  4 0.18882028E+03</rscale>
<asrwt>0</asrwt>
<pdfrwt beam="1">  1       21 0.19526216E-01 0.18882028E+03</pdfrwt>
<pdfrwt beam="2">  1        2 0.15917255E+00 0.18882028E+03</pdfrwt>
<totfact> 0.76926609E+03</totfact>
</mgrwt>
</event>
<event>
 5    0  0.3040647E+000  0.2880630E+03  0.7546771E-02  0.1091365E+00
          2   -1    0    0  502    0 -0.00000000000E+00  0.00000000000E+00  0.17369663215E+04  0.17369663215E+04  0.00000000000E+00 0.  1.
         21   -1    0    0  503  502  0.00000000000E+00 -0.00000000000E+00 -0.16426057090E+03  0.16426057090E+03  0.00000000000E+00 0.  1.
         25    1    1    2    0    0  0.23822532543E+03  0.34188308003E+02  0.12280757642E+04  0.12576626052E+04  0.12500000000E+03 0.  0.
         21    1    1    2  503  501  0.92625038010E+02  0.49804763558E+02 -0.54441099734E+02  0.11842189612E+03  0.00000000000E+00 0.  1.
          2    1    1    2  501    0 -0.33085036344E+03 -0.83993071561E+02  0.39907108615E+03  0.52514239103E+03  0.00000000000E+00 0.  1.
<mgrwt>
<rscale>  4 0.28806303E+03</rscale>
<asrwt>0</asrwt>
<pdfrwt beam="1">  1       21 0.25270858E-01 0.28806303E+03</pdfrwt>
<pdfrwt beam="2">  1        2 0.26722558E+00 0.28806303E+03</pdfrwt>
<totfact> 0.18666376E+03</totfact>
</mgrwt>
</event>
<event>
 5    0  0.3040647E+000  0.2581337E+03  0.7546771E-02  0.1108270E+00
          2   -1    0    0  502    0 -0.00000000000E+00  0.00000000000E+00  0.14863633186E+04  0.14863633186E+04  0.00000000000E+00 0.  1.
         21   -1    0    0  503  502  0.00000000000E+00 -0.00000000000E+00 -0.75132319196E+02  0.75132319196E+02  0.00000000000E+00 0.  1.
         25    1    1    2    0    0  0.21244598219E+03  0.37077783070E+02  0.28575415672E+03  0.37919453507E+03  0.12500000000E+03 0.  0.
         21    1    1    2  503  501  0.15389493732E+02 -0.19280087217E+02 -0.80636903756E+01  0.25953446455E+02  0.00000000000E+00 0.  1.
          2    1    1    2  501    0 -0.22783547592E+03 -0.17797695853E+02  0.11335405330E+04  0.11563476562E+04  0.00000000000E+00 0.  1.
<mgrwt>
<rscale>  4 0.25813370E+03</rscale>
<asrwt>0</asrwt>
<pdfrwt beam="1">  1       21 0.11558819E-01 0.25813370E+03</pdfrwt>
<pdfrwt beam="2">  1        2 0.22867126E+00 0.25813370E+03</pdfrwt>
<totfact> 0.10962748E+04</totfact>
</mgrwt>
</event>
<event>
 5    0  0.3040647E+000  0.2808418E+03  0.7546771E-02  0.1095230E+00
         21   -1    0    0  501  502  0.00000000000E+00  0.00000000000E+00  0.20415940309E+04  0.20415940309E+04  0.00000000000E+00 0.  1.
         -1   -1    0    0    0  501 -0.00000000000E+00 -0.00000000000E+00 -0.24575248328E+03  0.24575248328E+03  0.00000000000E+00 0.  1.
         25    1    1    2    0    0  0.25960599810E+03  0.13319433874E+02  0.17833060682E+04  0.18064822762E+04  0.12500000000E+03 0.  0.
         21    1    1    2  503  502 -0.86510033295E+01 -0.24750144114E+02  0.17808583426E+03  0.18000548285E+03  0.00000000000E+00 0. -1.
         -1    1    1    2    0  503 -0.25095499477E+03  0.11430710240E+02 -0.16555035481E+03  0.30085875509E+03  0.00000000000E+00 0.  1.
<mgrwt>
<rscale>  4 0.28084185E+03</rscale>
<asrwt>0</asrwt>
<pdfrwt beam="1">  1       21 0.31409138E+00 0.28084185E+03</pdfrwt>
<pdfrwt beam="2">  1       -1 0.37808076E-01 0.28084185E+03</pdfrwt>
<totfact> 0.16126960E+01</totfact>
</mgrwt>
</event>
<event>
 5    0  0.3040647E+000  0.2678051E+03  0.7546771E-02  0.1102542E+00
         21   -1    0    0  501  502  0.00000000000E+00  0.00000000000E+00  0.51467432328E+03  0.51467432328E+03  0.00000000000E+00 0. -1.
         -1   -1    0    0    0  501 -0.00000000000E+00 -0.00000000000E+00 -0.49333090094E+03  0.49333090094E+03  0.00000000000E+00 0. -1.
         25    1    1    2    0    0 -0.21637355018E+03 -0.16109568984E+03  0.12123909369E+03  0.32108137963E+03  0.12500000000E+03 0.  0.
         21    1    1    2  503  502  0.29490424232E+02  0.24051455268E+02  0.25786729224E+03  0.26066011975E+03  0.00000000000E+00 0. -1.
         -1    1    1    2    0  503  0.18688312595E+03  0.13704423457E+03 -0.35776296360E+03  0.42626372484E+03  0.00000000000E+00 0. -1.
<mgrwt>
<rscale>  4 0.26780514E+03</rscale>
<asrwt>0</asrwt>
<pdfrwt beam="1">  1       21 0.79180666E-01 0.26780514E+03</pdfrwt>
<pdfrwt beam="2">  1       -1 0.75897061E-01 0.26780514E+03</pdfrwt>
<totfact> 0.22981409E+02</totfact>
</mgrwt>
</event>
<event>
 5    0  0.3040647E+000  0.3755984E+03  0.7546771E-02  0.1052573E+00
          4   -1    0    0  502    0 -0.00000000000E+00  0.00000000000E+00  0.63892139607E+03  0.63892139607E+03  0.00000000000E+00 0.  1.
         21   -1    0    0  503  502  0.00000000000E+00 -0.00000000000E+00 -0.41727831293E+03  0.41727831293E+03  0.00000000000E+00 0.  1.
         25    1    1    2    0    0  0.30014056648E+03  0.15730408356E+03  0.14575269924E+03  0.38948399670E+03  0.12500000000E+03 0.  0.
         21    1    1    2  503  501 -0.34608265401E+03 -0.10732796041E+03 -0.17814437294E+03  0.40376715085E+03  0.00000000000E+00 0.  1.
          4    1    1    2  501    0  0.45942087532E+02 -0.49976123143E+02  0.25403475683E+03  0.26294856145E+03  0.00000000000E+00 0.  1.
<mgrwt>
<rscale>  4 0.37559838E+03</rscale>
<asrwt>0</asrwt>
<pdfrwt beam="1">  1       21 0.64196663E-01 0.37559838E+03</pdfrwt>
<pdfrwt beam="2">  1        4 0.98295600E-01 0.37559838E+03</pdfrwt>
<totfact> 0.80555132E+01</totfact>
</mgrwt>
</event>
<event>
 5    0  0.3040647E+000  0.4132287E+03  0.7546771E-02  0.1039293E+00
         21   -1    0    0  503  502  0.00000000000E+00  0.00000000000E+00  0.80742128946E+03  0.80742128946E+03  0.00000000000E+00 0.  1.
          1   -1    0    0  502    0 -0.00000000000E+00 -0.00000000000E+00 -0.19478028594E+04  0.19478028594E+04  0.00000000000E+00 0.  1.
         25    1    1    2    0    0  0.35861363593E+03 -0.30439395665E+03  0.46867591028E+03  0.67567856973E+03  0.12500000000E+03 0.  0.
         21    1    1    2  503  501 -0.11382868270E+03 -0.97674958522E+00  0.19919385968E+03  0.22942562363E+03  0.00000000000E+00 0.  1.
          1    1    1    2  501    0 -0.24478495323E+03  0.30537070624E+03 -0.18082513399E+04  0.18501199555E+04  0.00000000000E+00 0.  1.
<mgrwt>
<rscale>  4 0.41322870E+03</rscale>
<asrwt>0</asrwt>
<pdfrwt beam="1">  1       21 0.12421866E+00 0.41322870E+03</pdfrwt>
<pdfrwt beam="2">  1        1 0.29966198E+00 0.41322870E+03</pdfrwt>
<totfact> 0.17005582E+01</totfact>
</mgrwt>
</event>
<event>
 5    0  0.3040647E+000  0.3333572E+03  0.7546771E-02  0.1069661E+00
         21   -1    0    0  503  502  0.00000000000E+00  0.00000000000E+00  0.18531985280E+03  0.18531985280E+03  0.00000000000E+00 0. -1.
          1   -1    0    0  502    0 -0.00000000000E+00 -0.00000000000E+00 -0.65750622939E+03  0.65750622939E+03  0.00000000000E+00 0. -1.
         25    1    1    2    0    0  0.36290746966E+02 -0.30354149029E+03 -0.17959783380E+03  0.37594525738E+03  0.12500000000E+03 0.  0.
         21    1    1    2  503  501 -0.30784597329E+02 -0.83256913860E+01  0.88653374772E+01  0.33099890912E+02  0.00000000000E+00 0.  1.
          1    1    1    2  501    0 -0.55061496369E+01  0.31186718167E+03 -0.30145388026E+03  0.43378093390E+03  0.00000000000E+00 0. -1.
<mgrwt>
<rscale>  4 0.33335723E+03</rscale>
<asrwt>0</asrwt>
<pdfrwt beam="1">  1       21 0.28510747E-01 0.33335723E+03</pdfrwt>
<pdfrwt beam="2">  1        1 0.10115480E+00 0.33335723E+03</pdfrwt>
<totfact> 0.38804661E+03</totfact>
</mgrwt>
</event>
<event>
 5    0  0.3040647E+000  0.3533080E+03  0.7546771E-02  0.1061265E+00
          2   -1    0    0  502    0 -0.00000000000E+00  0.00000000000E+00  0.14442969477E+04  0.14442969477E+04  0.00000000000E+00 0.  1.
         21   -1    0    0  503  502  0.00000000000E+00 -0.00000000000E+00 -0.50465648764E+03  0.50465648764E+03  0.00000000000E+00 0.  1.
         25    1    1    2    0    0 -0.13893246472E+03 -0.26367589426E+03  0.39012520748E+03  0.50660624205E+03  0.12500000000E+03 0.  0.
         21    1    1    2  503  501 -0.30486053085E+02 -0.39583773631E+02 -0.41457989609E+03  0.41757965086E+03  0.00000000000E+00 0.  1.
          2    1    1    2  501    0  0.16941851781E+03  0.30325966790E+03  0.96409514868E+03  0.10247675424E+04  0.00000000000E+00 0.  1.
<mgrwt>
<rscale>  4 0.35330804E+03</rscale>
<asrwt>0</asrwt>
<pdfrwt beam="1">  1       21 0.77639460E-01 0.35330804E+03</pdfrwt>
<pdfrwt beam="2">  1        2 0.22219953E+00 0.35330804E+03</pdfrwt>
<totfact> 0.25096490E+02</totfact>
</mgrwt>
</event>
<event>
 5    0  0.3040647E+000  0.2724335E+03  0.7546771E-02  0.1099895E+00
         21   -1    0    0  503  502  0.00000000000E+00  0.00000000000E+00  0.86833873610E+03  0.86833873610E+03  0.00000000000E+00 0. -1.
          1   -1    0    0  502    0 -0.00000000000E+00 -0.00000000000E+00 -0.56074170697E+03  0.56074170697E+03  0.00000000000E+00 0. -1.
         25    1    1    2    0    0 -0.30119512409E+03 -0.10443656693E+03  0.64996229257E+03  0.73464377834E+03  0.12500000000E+03 0.  0.
         21    1    1    2  503  501  0.82795589751E+02  0.74031266096E+01  0.13617394096E+03  0.15954077272E+03  0.00000000000E+00 0. -1.
          1    1    1    2  501    0  0.21839953434E+03  0.97033440321E+02 -0.47853920439E+03  0.53489589200E+03  0.00000000000E+00 0. -1.
<mgrwt>
<rscale>  4 0.27243354E+03</rscale>
<asrwt>0</asrwt>
<pdfrwt beam="1">  1       21 0.13359057E+00 0.27243354E+03</pdfrwt>
<pdfrwt beam="2">  1        1 0.86267955E-01 0.27243354E+03</pdfrwt>
<totfact> 0.16359368E+02</totfact>
</mgrwt>
</event>
<event>
 5    0  0.3040647E+000  0.3777903E+03  0.7546771E-02  0.1051754E+00
          2   -1    0    0  502    0 -0.00000000000E+00  0.00000000000E+00  0.23132322023E+04  0.23132322023E+04  0.00000000000E+00 0. -1.
         21   -1    0    0  503  502  0.00000000000E+00 -0.00000000000E+00 -0.44024362271E+03  0.44024362271E+03  0.00000000000E+00 0. -1.
         25    1    1    2    0    0  0.13269459338E+03  0.30982000688E+03  0.10292201946E+04  0.10901905800E+04  0.12500000000E+03 0.  0.
         21    1    1    2  503  501  0.21889118357E+02  0.31199258698E+02 -0.38082687208E+03  0.38272919114E+03  0.00000000000E+00 0. -1.
          2    1    1    2  501    0 -0.15458371174E+03 -0.34101926558E+03  0.12245952571E+04  0.12805560539E+04  0.00000000000E+00 0. -1.
<mgrwt>
<rscale>  4 0.37779027E+03</rscale>
<asrwt>0</asrwt>
<pdfrwt beam="1">  1       21 0.67729789E-01 0.37779027E+03</pdfrwt>
<pdfrwt beam="2">  1        2 0.35588187E+00 0.37779027E+03</pdfrwt>
<totfact> 0.11556756E+02</totfact>
</mgrwt>
</event>
<event>
 5    0  0.3040647E+000  0.2239451E+03  0.7546771E-02  0.1130976E+00
         21   -1    0    0  503  502  0.00000000000E+00  0.00000000000E+00  0.12398271796E+04  0.12398271796E+04  0.00000000000E+00 0.  1.
          1   -1    0    0  502    0 -0.00000000000E+00 -0.00000000000E+00 -0.22642899142E+03  0.22642899142E+03  0.00000000000E+00 0.  1.
         25    1    1    2    0    0  0.65544344841E+02  0.24657659314E+03  0.40242824835E+03  0.49261503478E+03  0.12500000000E+03 0.  0.
         21    1    1    2  503  501 -0.11126227106E+02 -0.76125660124E+02  0.74570184574E+03  0.74966002414E+03  0.00000000000E+00 0.  1.
          1    1    1    2  501    0 -0.54418117734E+02 -0.17045093302E+03 -0.13473190591E+03  0.22398111209E+03  0.00000000000E+00 0.  1.
<mgrwt>
<rscale>  4 0.22394512E+03</rscale>
<asrwt>0</asrwt>
<pdfrwt beam="1">  1       21 0.19074264E+00 0.22394512E+03</pdfrwt>
<pdfrwt beam="2">  1        1 0.34835230E-01 0.22394512E+03</pdfrwt>
<totfact> 0.20494800E+02</totfact>
</mgrwt>
</event>
<event>
 5    0  0.3040647E+000  0.2764409E+03  0.7546771E-02  0.1097649E+00
         21   -1    0    0  503  502  0.00000000000E+00  0.00000000000E+00  0.21123536322E+03  0.21123536322E+03  0.00000000000E+00 0. -1.
          3   -1    0    0  502    0 -0.00000000000E+00 -0.00000000000E+00 -0.59111222814E+03  0.59111222814E+03  0.00000000000E+00 0.  1.
         25    1    1    2    0    0  0.86464992669E+02 -0.21786760763E+03  0.55431260664E+02  0.27136712047E+03  0.12500000000E+03 0.  0.
         21    1    1    2  503  501  0.22227236976E+02 -0.62772549965E+01  0.63147346155E+01  0.23944307614E+02  0.00000000000E+00 0. -1.
          3    1    1    2  501    0 -0.10869222964E+03  0.22414486263E+03 -0.44162286019E+03  0.50703616328E+03  0.00000000000E+00 0.  1.
<mgrwt>
<rscale>  4 0.27644090E+03</rscale>
<asrwt>0</asrwt>
<pdfrwt beam="1">  1       21 0.32497748E-01 0.27644090E+03</pdfrwt>
<pdfrwt beam="2">  1        3 0.90940343E-01 0.27644090E+03</pdfrwt>
<totfact> 0.49959389E+02</totfact>
</mgrwt>
</event>
<event>
 5    0  0.3040647E+000  0.4120165E+03  0.7546771E-02  0.1039696E+00
         21   -1    0    0  503  502  0.00000000000E+00  0.00000000000E+00  0.70826689892E+03  0.70826689892E+03  0.00000000000E+00 0.  1.
          1   -1    0    0  502    0 -0.00000000000E+00 -0.00000000000E+00 -0.42919113519E+03  0.42919113519E+03  0.00000000000E+00 0. -1.
         25    1    1    2    0    0 -0.14029529391E+03  0.36382275879E+03  0.31488140255E+03  0.51655112717E+03  0.12500000000E+03 0.  0.
         21    1    1    2  503  501  0.30881549020E+02  0.14347660283E+02  0.17228217232E+03  0.17561512556E+03  0.00000000000E+00 0.  1.
          1    1    1    2  501    0  0.10941374489E+03 -0.37817041907E+03 -0.20808781113E+03  0.44529178139E+03  0.00000000000E+00 0. -1.
<mgrwt>
<rscale>  4 0.41201654E+03</rscale>
<asrwt>0</asrwt>
<pdfrwt beam="1">  1       21 0.10896414E+00 0.41201654E+03</pdfrwt>
<pdfrwt beam="2">  1        1 0.66029405E-01 0.41201654E+03</pdfrwt>
<totfact> 0.36919067E+02</totfact>
</mgrwt>
</event>
<event>
 5    0  0.3040647E+000  0.3981784E+03  0.7546771E-02  0.1044412E+00
         21   -1    0    0  503  502  0.00000000000E+00  0.00000000000E+00  0.66995401108E+03  0.66995401108E+03  0.00000000000E+00 0. -1.
          1   -1    0    0  502    0 -0.00000000000E+00 -0.00000000000E+00 -0.13926391588E+04  0.13926391588E+04  0.00000000000E+00 0.  1.
         25    1    1    2    0    0  0.18405998179E+03  0.45327132382E+03  0.24319743675E+03  0.56044889432E+03  0.12500000000E+03 0.  0.
         21    1    1    2  503  501 -0.77654760958E+02 -0.98488415446E+02  0.22357449586E+03  0.25635090223E+03  0.00000000000E+00 0. -1.
          1    1    1    2  501    0 -0.10640522084E+03 -0.35478290838E+03 -0.11894570803E+04  0.12457933733E+04  0.00000000000E+00 0.  1.
<mgrwt>
<rscale>  4 0.39817844E+03</rscale>
<asrwt>0</asrwt>
<pdfrwt beam="1">  1       21 0.10306985E+00 0.39817844E+03</pdfrwt>
<pdfrwt beam="2">  1        1 0.21425218E+00 0.39817844E+03</pdfrwt>
<totfact> 0.63856924E+01</totfact>
</mgrwt>
</event>
<event>
 5    0  0.3040647E+000  0.2238788E+03  0.7546771E-02  0.1131024E+00
          1   -1    0    0  502    0 -0.00000000000E+00  0.00000000000E+00  0.10734956563E+04  0.10734956563E+04  0.00000000000E+00 0.  1.
         21   -1    0    0  503  502  0.00000000000E+00 -0.00000000000E+00 -0.10673370219E+03  0.10673370219E+03  0.00000000000E+00 0.  1.
         25    1    1    2    0    0  0.20542122628E+03  0.13152185768E+02  0.10532625520E+03  0.26284877826E+03  0.12500000000E+03 0.  0.
         21    1    1    2  503  501 -0.27056893445E+02  0.30351896449E+02  0.43970425688E+01  0.40898008317E+02  0.00000000000E+00 0.  1.
          1    1    1    2  501    0 -0.17836433284E+03 -0.43504082217E+02  0.85703865632E+03  0.87648257188E+03  0.00000000000E+00 0.  1.
<mgrwt>
<rscale>  4 0.22387884E+03</rscale>
<asrwt>0</asrwt>
<pdfrwt beam="1">  1       21 0.16420570E-01 0.22387884E+03</pdfrwt>
<pdfrwt beam="2">  1        1 0.16515317E+00 0.22387884E+03</pdfrwt>
<totfact> 0.52208365E+03</totfact>
</mgrwt>
</event>
<event>
 5    0  0.3040647E+000  0.4271693E+03  0.7546771E-02  0.1034758E+00
         21   -1    0    0  503  502  0.00000000000E+00  0.00000000000E+00  0.21593671962E+04  0.21593671962E+04  0.00000000000E+00 0. -1.
          1   -1    0    0  502    0 -0.00000000000E+00 -0.00000000000E+00 -0.58194041360E+03  0.58194041360E+03  0.00000000000E+00 0.  1.
         25    1    1    2    0    0 -0.44530693279E+03  0.17770526339E+03 -0.12452411048E+03  0.51089008516E+03  0.12500000000E+03 0.  0.
         21    1    1    2  503  501  0.12587627914E+03 -0.45433255812E+01  0.18380921052E+04  0.18424027971E+04  0.00000000000E+00 0. -1.
          1    1    1    2  501    0  0.31943065365E+03 -0.17316193781E+03 -0.13614121210E+03  0.38801472759E+03  0.00000000000E+00 0.  1.
<mgrwt>
<rscale>  4 0.42716930E+03</rscale>
<asrwt>0</asrwt>
<pdfrwt beam="1">  1       21 0.33221033E+00 0.42716930E+03</pdfrwt>
<pdfrwt beam="2">  1        1 0.89529295E-01 0.42716930E+03</pdfrwt>
<totfact> 0.71641047E+00</totfact>
</mgrwt>
</event>
<event>
 5    0  0.3040647E+000  0.1929820E+03  0.7546771E-02  0.1155799E+00
          1   -1    0    0  502    0 -0.00000000000E+00  0.00000000000E+00  0.14087977319E+04  0.14087977319E+04  0.00000000000E+00 0. -1.
         21   -1    0    0  503  502  0.00000000000E+00 -0.00000000000E+00 -0.17428391418E+03  0.17428391418E+03  0.00000000000E+00 0. -1.
         25    1    1    2    0    0 -0.20891842550E+03  0.94819472324E+02  0.83210820960E+03  0.87216209120E+03  0.12500000000E+03 0.  0.
         21    1    1    2  503  501  0.12969944962E+03 -0.61906957378E+02 -0.11647925131E+03  0.18499144464E+03  0.00000000000E+00 0. -1.
          1    1    1    2  501    0  0.79218975888E+02 -0.32912514947E+02  0.51888485943E+03  0.52592811023E+03  0.00000000000E+00 0. -1.
<mgrwt>
<rscale>  4 0.19298202E+03</rscale>
<asrwt>0</asrwt>
<pdfrwt beam="1">  1       21 0.26812911E-01 0.19298202E+03</pdfrwt>
<pdfrwt beam="2">  1        1 0.21673810E+00 0.19298202E+03</pdfrwt>
<totfact> 0.12365778E+03</totfact>
</mgrwt>
</event>
<event>
 5    0  0.3040647E+000  0.3377173E+03  0.7546771E-02  0.1067772E+00
         21   -1    0    0  503  502  0.00000000000E+00  0.00000000000E+00  0.14309936263E+04  0.14309936263E+04  0.00000000000E+00 0.  1.
          2   -1    0    0  502    0 -0.00000000000E+00 -0.00000000000E+00 -0.28631181863E+03  0.28631181863E+03  0.00000000000E+00 0. -1.
         25    1    1    2    0    0 -0.43682450613E+03 -0.42476290797E+01  0.49211859119E+03  0.66980549363E+03  0.12500000000E+03 0.  0.
         21    1    1    2  503  501  0.14708088578E+03  0.23838311256E+02  0.73152978982E+03  0.74654998857E+03  0.00000000000E+00 0.  1.
          2    1    1    2  501    0  0.28974362034E+03 -0.19590682176E+02 -0.78966573339E+02  0.30094996272E+03  0.00000000000E+00 0. -1.
<mgrwt>
<rscale>  4 0.33771730E+03</rscale>
<asrwt>0</asrwt>
<pdfrwt beam="1">  1       21 0.22015286E+00 0.33771730E+03</pdfrwt>
<pdfrwt beam="2">  1        2 0.44047973E-01 0.33771730E+03</pdfrwt>
<totfact> 0.12914078E+02</totfact>
</mgrwt>
</event>
<event>
 5    0  0.3040647E+000  0.3131965E+03  0.7546771E-02  0.1078824E+00
         21   -1    0    0  501  502  0.00000000000E+00  0.00000000000E+00  0.46933913313E+03  0.46933913313E+03  0.00000000000E+00 0.  1.
         -2   -1    0    0    0  501 -0.00000000000E+00 -0.00000000000E+00 -0.39361545543E+03  0.39361545543E+03  0.00000000000E+00 0. -1.
         25    1    1    2    0    0 -0.28653983201E+03  0.10256480859E+03  0.31288001977E+03  0.45403030962E+03  0.12500000000E+03 0.  0.
         21    1    1    2  503  502  0.20782839416E+02 -0.14740171322E+01  0.17510297151E+02  0.27215981464E+02  0.00000000000E+00 0.  1.
         -2    1    1    2    0  503  0.26575699259E+03 -0.10109079146E+03 -0.25466663922E+03  0.38170829747E+03  0.00000000000E+00 0. -1.
<mgrwt>
<rscale>  4 0.31319654E+03</rscale>
<asrwt>0</asrwt>
<pdfrwt beam="1">  1       21 0.72206020E-01 0.31319654E+03</pdfrwt>
<pdfrwt beam="2">  1       -2 0.60556224E-01 0.31319654E+03</pdfrwt>
<totfact> 0.34865720E+02</totfact>
</mgrwt>
</event>
<event>
 5    0  0.3040647E+000  0.2310263E+03  0.7546771E-02  0.1125919E+00
          1   -1    0    0  502    0 -0.00000000000E+00  0.00000000000E+00  0.70075762511E+03  0.70075762511E+03  0.00000000000E+00 0. -1.
         21   -1    0    0  503  502  0.00000000000E+00 -0.00000000000E+00 -0.95290577310E+02  0.95290577310E+02  0.00000000000E+00 0. -1.
         25    1    1    2    0    0 -0.11926215393E+03  0.18494129322E+03  0.23126592083E+03  0.34283475529E+03  0.12500000000E+03 0.  0.
         21    1    1    2  503  501 -0.37702002137E+01 -0.47213027184E+02  0.15625512893E+02  0.49874251861E+02  0.00000000000E+00 0. -1.
          1    1    1    2  501    0  0.12303235415E+03 -0.13772826603E+03  0.35857561407E+03  0.40333919526E+03  0.00000000000E+00 0. -1.
<mgrwt>
<rscale>  4 0.23102631E+03</rscale>
<asrwt>0</asrwt>
<pdfrwt beam="1">  1       21 0.14660089E-01 0.23102631E+03</pdfrwt>
<pdfrwt beam="2">  1        1 0.10780886E+00 0.23102631E+03</pdfrwt>
<totfact> 0.12713459E+04</totfact>
</mgrwt>
</event>
<event>
 5    0  0.3040647E+000  0.2588825E+03  0.7546771E-02  0.1107816E+00
         21   -1    0    0  503  502  0.00000000000E+00  0.00000000000E+00  0.46172465150E+03  0.46172465150E+03  0.00000000000E+00 0.  1.
          1   -1    0    0  502    0 -0.00000000000E+00 -0.00000000000E+00 -0.70744408857E+03  0.70744408857E+03  0.00000000000E+00 0.  1.
         25    1    1    2    0    0  0.23187359461E+03  0.10143552187E+03 -0.19187631399E+03  0.34131517523E+03  0.12500000000E+03 0.  0.
         21    1    1    2  503  501 -0.20566286266E+02 -0.25307267266E+03  0.29724353402E+03  0.39092514410E+03  0.00000000000E+00 0.  1.
          1    1    1    2  501    0 -0.21130730834E+03  0.15163715079E+03 -0.35108665709E+03  0.43692842074E+03  0.00000000000E+00 0.  1.
<mgrwt>
<rscale>  4 0.25888253E+03</rscale>
<asrwt>0</asrwt>
<pdfrwt beam="1">  1       21 0.71034562E-01 0.25888253E+03</pdfrwt>
<pdfrwt beam="2">  1        1 0.10883755E+00 0.25888253E+03</pdfrwt>
<totfact> 0.53478625E+02</totfact>
</mgrwt>
</event>
<event>
 5    0  0.3040647E+000  0.2182687E+03  0.7546771E-02  0.1135180E+00
          1   -1    0    0  502    0 -0.00000000000E+00  0.00000000000E+00  0.10717246147E+04  0.10717246147E+04  0.00000000000E+00 0.  1.
         21   -1    0    0  503  502  0.00000000000E+00 -0.00000000000E+00 -0.95928983306E+02  0.95928983306E+02  0.00000000000E+00 0.  1.
         25    1    1    2    0    0 -0.17641150025E+03  0.10241979567E+03  0.25205182539E+03  0.34751396324E+03  0.12500000000E+03 0.  0.
         21    1    1    2  503  501  0.46316372279E+02  0.13673998708E+02 -0.22871128485E+02  0.53434755543E+02  0.00000000000E+00 0.  1.
          1    1    1    2  501    0  0.13009512797E+03 -0.11609379438E+03  0.74661493446E+03  0.76670487919E+03  0.00000000000E+00 0.  1.
<mgrwt>
<rscale>  4 0.21826868E+03</rscale>
<asrwt>0</asrwt>
<pdfrwt beam="1">  1       21 0.14758306E-01 0.21826868E+03</pdfrwt>
<pdfrwt beam="2">  1        1 0.16488070E+00 0.21826868E+03</pdfrwt>
<totfact> 0.63792941E+03</totfact>
</mgrwt>
</event>
<event>
 5    0  0.3040647E+000  0.2508023E+03  0.7546771E-02  0.1112799E+00
         21   -1    0    0  503  502  0.00000000000E+00  0.00000000000E+00  0.26131992766E+02  0.26131992766E+02  0.00000000000E+00 0. -1.
          2   -1    0    0  502    0 -0.00000000000E+00 -0.00000000000E+00 -0.30679772428E+04  0.30679772428E+04  0.00000000000E+00 0. -1.
         25    1    1    2    0    0 -0.20488332663E+03 -0.95700257656E+02 -0.20907664368E+04  0.21066715477E+04  0.12500000000E+03 0.  0.
         21    1    1    2  503  501  0.10381118707E+02  0.28614217653E+02 -0.26863481543E+02  0.40597878246E+02  0.00000000000E+00 0.  1.
          2    1    1    2  501    0  0.19450220793E+03  0.67086040004E+02 -0.92421533165E+03  0.94683980953E+03  0.00000000000E+00 0. -1.
<mgrwt>
<rscale>  4 0.25080228E+03</rscale>
<asrwt>0</asrwt>
<pdfrwt beam="1">  1       21 0.40203090E-02 0.25080228E+03</pdfrwt>
<pdfrwt beam="2">  1        2 0.47199621E+00 0.25080228E+03</pdfrwt>
<totfact> 0.94623224E+03</totfact>
</mgrwt>
</event>
<event>
 5    0  0.3040647E+000  0.4434401E+03  0.7546771E-02  0.1029697E+00
         21   -1    0    0  503  502  0.00000000000E+00  0.00000000000E+00  0.44193210340E+03  0.44193210340E+03  0.00000000000E+00 0.  1.
          2   -1    0    0  502    0 -0.00000000000E+00 -0.00000000000E+00 -0.10151412120E+04  0.10151412120E+04  0.00000000000E+00 0.  1.
         25    1    1    2    0    0  0.41589220116E+03  0.82498107154E+02  0.12111715436E+03  0.45833025838E+03  0.12500000000E+03 0.  0.
         21    1    1    2  503  501 -0.51659607138E+01  0.30173870550E+02  0.96109924478E+02  0.10086757258E+03  0.00000000000E+00 0. -1.
          2    1    1    2  501    0 -0.41072624045E+03 -0.11267197770E+03 -0.79043618739E+03  0.89787548440E+03  0.00000000000E+00 0.  1.
<mgrwt>
<rscale>  4 0.44344015E+03</rscale>
<asrwt>0</asrwt>
<pdfrwt beam="1">  1       21 0.67989556E-01 0.44344015E+03</pdfrwt>
<pdfrwt beam="2">  1        2 0.15617557E+00 0.44344015E+03</pdfrwt>
<totfact> 0.58034144E+02</totfact>
</mgrwt>
</event>
<event>
 5    0  0.3040647E+000  0.3402165E+03  0.7546771E-02  0.1066704E+00
          2   -1    0    0  502    0 -0.00000000000E+00  0.00000000000E+00  0.19564251742E+04  0.19564251742E+04  0.00000000000E+00 0.  1.
         21   -1    0    0  503  502  0.00000000000E+00 -0.00000000000E+00 -0.17440790290E+03  0.17440790290E+03  0.00000000000E+00 0.  1.
         25    1    1    2    0    0  0.78320938570E+02  0.31999951711E+03  0.61055116151E+03  0.70493374241E+03  0.12500000000E+03 0.  0.
         21    1    1    2  503  501  0.41699625728E+01 -0.19822603439E+02 -0.10760237203E+03  0.10949244111E+03  0.00000000000E+00 0.  1.
          2    1    1    2  501    0 -0.82490901143E+02 -0.30017691367E+03  0.12790684818E+04  0.13164068936E+04  0.00000000000E+00 0.  1.
<mgrwt>
<rscale>  4 0.34021654E+03</rscale>
<asrwt>0</asrwt>
<pdfrwt beam="1">  1       21 0.26831986E-01 0.34021654E+03</pdfrwt>
<pdfrwt beam="2">  1        2 0.30098847E+00 0.34021654E+03</pdfrwt>
<totfact> 0.12463606E+03</totfact>
</mgrwt>
</event>
<event>
 5    0  0.3040647E+000  0.2108467E+03  0.7546771E-02  0.1140897E+00
         -1   -1    0    0    0  501 -0.00000000000E+00  0.00000000000E+00  0.84051776799E+02  0.84051776799E+02  0.00000000000E+00 0. -1.
         21   -1    0    0  501  502  0.00000000000E+00 -0.00000000000E+00 -0.17211879972E+04  0.17211879972E+04  0.00000000000E+00 0.  1.
         25    1    1    2    0    0 -0.21602946299E+03  0.63029101231E+02 -0.13226328690E+04  0.13474509648E+04  0.12500000000E+03 0.  0.
         21    1    1    2  503  502  0.66849883643E+02  0.93515916170E+01 -0.28052451964E+03  0.28853139401E+03  0.00000000000E+00 0.  1.
         -1    1    1    2    0  503  0.14917957935E+03 -0.72380692848E+02 -0.33978831822E+02  0.16925741521E+03  0.00000000000E+00 0. -1.
<mgrwt>
<rscale>  4 0.21084669E+03</rscale>
<asrwt>0</asrwt>
<pdfrwt beam="1">  1       21 0.26479812E+00 0.21084669E+03</pdfrwt>
<pdfrwt beam="2">  1       -1 0.12931044E-01 0.21084669E+03</pdfrwt>
<totfact> 0.19603408E+02</totfact>
</mgrwt>
</event>
<event>
 5    0  0.3040647E+000  0.2753462E+03  0.7546771E-02  0.1098258E+00
          1   -1    0    0  502    0 -0.00000000000E+00  0.00000000000E+00  0.27277100403E+04  0.27277100403E+04  0.00000000000E+00 0.  1.
         21   -1    0    0  503  502  0.00000000000E+00 -0.00000000000E+00 -0.13311802824E+03  0.13311802824E+03  0.00000000000E+00 0. -1.
         25    1    1    2    0    0 -0.26635938360E+03 -0.22606209913E+03  0.27402751553E+03  0.46126724701E+03  0.12500000000E+03 0.  0.
         21    1    1    2  503  501  0.26522911723E+02  0.19797349025E+03  0.27550341374E+03  0.34029266620E+03  0.00000000000E+00 0. -1.
          1    1    1    2  501    0  0.23983647188E+03  0.28088608882E+02  0.20450610828E+04  0.20592681553E+04  0.00000000000E+00 0.  1.
<mgrwt>
<rscale>  4 0.27534622E+03</rscale>
<asrwt>0</asrwt>
<pdfrwt beam="1">  1       21 0.20479699E-01 0.27534622E+03</pdfrwt>
<pdfrwt beam="2">  1        1 0.41964766E+00 0.27534622E+03</pdfrwt>
<totfact> 0.26856853E+02</totfact>
</mgrwt>
</event>
<event>
 5    0  0.3040647E+000  0.2520485E+03  0.7546771E-02  0.1112017E+00
         21   -1    0    0  503  502  0.00000000000E+00  0.00000000000E+00  0.10495618682E+03  0.10495618682E+03  0.00000000000E+00 0. -1.
          1   -1    0    0  502    0 -0.00000000000E+00 -0.00000000000E+00 -0.27454623618E+04  0.27454623618E+04  0.00000000000E+00 0. -1.
         25    1    1    2    0    0  0.55284017776E+02  0.21303280503E+03 -0.71860656204E+02  0.26311262332E+03  0.12500000000E+03 0.  0.
         21    1    1    2  503  501  0.51735459415E+02 -0.33125085412E+02 -0.19499652361E+03  0.20444430358E+03  0.00000000000E+00 0.  1.
          1    1    1    2  501    0 -0.10701947719E+03 -0.17990771961E+03 -0.23736489952E+04  0.23828616218E+04  0.00000000000E+00 0. -1.
<mgrwt>
<rscale>  4 0.25204849E+03</rscale>
<asrwt>0</asrwt>
<pdfrwt beam="1">  1       21 0.16147106E-01 0.25204849E+03</pdfrwt>
<pdfrwt beam="2">  1        1 0.42237881E+00 0.25204849E+03</pdfrwt>
<totfact> 0.41272308E+02</totfact>
</mgrwt>
</event>
<event>
 5    0  0.3040647E+000  0.2262352E+03  0.7546771E-02  0.1129318E+00
          2   -1    0    0  502    0 -0.00000000000E+00  0.00000000000E+00  0.36936508840E+04  0.36936508840E+04  0.00000000000E+00 0.  1.
         21   -1    0    0  503  502  0.00000000000E+00 -0.00000000000E+00 -0.10813585478E+03  0.10813585478E+03  0.00000000000E+00 0.  1.
         25    1    1    2    0    0  0.11688000554E+03  0.17307975292E+03  0.51701312755E+02  0.24882837922E+03  0.12500000000E+03 0.  0.
         21    1    1    2  503  501 -0.89897517973E+02 -0.91644414870E+02  0.45004439288E+03  0.46799595946E+03  0.00000000000E+00 0.  1.
          2    1    1    2  501    0 -0.26982487567E+02 -0.81435338051E+02  0.30837693236E+04  0.30849624001E+04  0.00000000000E+00 0.  1.
<mgrwt>
<rscale>  4 0.22623518E+03</rscale>
<asrwt>0</asrwt>
<pdfrwt beam="1">  1       21 0.16636288E-01 0.22623518E+03</pdfrwt>
<pdfrwt beam="2">  1        2 0.56825389E+00 0.22623518E+03</pdfrwt>
<totfact> 0.31440733E+02</totfact>
</mgrwt>
</event>
<event>
 5    0  0.3040647E+000  0.2066929E+03  0.7546771E-02  0.1144212E+00
          1   -1    0    0  502    0 -0.00000000000E+00  0.00000000000E+00  0.24060285347E+03  0.24060285347E+03  0.00000000000E+00 0.  1.
         21   -1    0    0  503  502  0.00000000000E+00 -0.00000000000E+00 -0.89779305126E+03  0.89779305126E+03  0.00000000000E+00 0.  1.
         25    1    1    2    0    0 -0.20780970947E+03  0.33432060160E+02 -0.53095671960E+03  0.58467308480E+03  0.12500000000E+03 0.  0.
         21    1    1    2  503  501  0.92106627364E+02  0.82960382881E+02 -0.29397993462E+03  0.31904585547E+03  0.00000000000E+00 0.  1.
          1    1    1    2  501    0  0.11570308211E+03 -0.11639244304E+03  0.16774645643E+03  0.23467696447E+03  0.00000000000E+00 0.  1.
<mgrwt>
<rscale>  4 0.20669287E+03</rscale>
<asrwt>0</asrwt>
<pdfrwt beam="1">  1       21 0.13812201E+00 0.20669287E+03</pdfrwt>
<pdfrwt beam="2">  1        1 0.37015824E-01 0.20669287E+03</pdfrwt>
<totfact> 0.46344713E+02</totfact>
</mgrwt>
</event>
<event>
 5    0  0.3040647E+000  0.1714110E+03  0.7546771E-02  0.1176384E+00
          2   -1    0    0  502    0 -0.00000000000E+00  0.00000000000E+00  0.21520934309E+04  0.21520934309E+04  0.00000000000E+00 0. -1.
         21   -1    0    0  503  502  0.00000000000E+00 -0.00000000000E+00 -0.57307843518E+03  0.57307843518E+03  0.00000000000E+00 0.  1.
         25    1    1    2    0    0  0.11041467452E+03  0.16942154669E+03 -0.72166679627E+02  0.24845138454E+03  0.12500000000E+03 0.  0.
         21    1    1    2  503  501 -0.28086101338E+02 -0.10723954976E+03 -0.40400885892E+03  0.41894189121E+03  0.00000000000E+00 0.  1.
          2    1    1    2  501    0 -0.82328573180E+02 -0.62181996926E+02  0.20551905343E+04  0.20577785904E+04  0.00000000000E+00 0. -1.
<mgrwt>
<rscale>  4 0.17141105E+03</rscale>
<asrwt>0</asrwt>
<pdfrwt beam="1">  1       21 0.88165915E-01 0.17141105E+03</pdfrwt>
<pdfrwt beam="2">  1        2 0.33109129E+00 0.17141105E+03</pdfrwt>
<totfact> 0.90569197E+01</totfact>
</mgrwt>
</event>
<event>
 5    0  0.3040647E+000  0.1738993E+03  0.7546771E-02  0.1173841E+00
         21   -1    0    0  503  502  0.00000000000E+00  0.00000000000E+00  0.13839707407E+03  0.13839707407E+03  0.00000000000E+00 0.  1.
          2   -1    0    0  502    0 -0.00000000000E+00 -0.00000000000E+00 -0.25502231873E+04  0.25502231873E+04  0.00000000000E+00 0.  1.
         25    1    1    2    0    0  0.22288815154E+03 -0.76545064155E+02 -0.20582552884E+04  0.20754705749E+04  0.12500000000E+03 0.  0.
         21    1    1    2  503  501 -0.10940518635E+03  0.47547399611E+02  0.93135729780E+02  0.15134237402E+03  0.00000000000E+00 0.  1.
          2    1    1    2  501    0 -0.11348296519E+03  0.28997664545E+02 -0.44670655463E+03  0.46180731251E+03  0.00000000000E+00 0.  1.
<mgrwt>
<rscale>  4 0.17389933E+03</rscale>
<asrwt>0</asrwt>
<pdfrwt beam="1">  1       21 0.21291859E-01 0.17389933E+03</pdfrwt>
<pdfrwt beam="2">  1        2 0.39234201E+00 0.17389933E+03</pdfrwt>
<totfact> 0.10263376E+03</totfact>
</mgrwt>
</event>
<event>
 5    0  0.3040647E+000  0.1737618E+03  0.7546771E-02  0.1173981E+00
         21   -1    0    0  503  502  0.00000000000E+00  0.00000000000E+00  0.12240581690E+03  0.12240581690E+03  0.00000000000E+00 0. -1.
          2   -1    0    0  502    0 -0.00000000000E+00 -0.00000000000E+00 -0.19885423464E+04  0.19885423464E+04  0.00000000000E+00 0. -1.
         25    1    1    2    0    0 -0.70702562112E+02 -0.19791407732E+03 -0.28901524634E+03  0.37858109687E+03  0.12500000000E+03 0.  0.
         21    1    1    2  503  501  0.14041818487E+02  0.95965679036E+02  0.44392181906E+02  0.10666419284E+03  0.00000000000E+00 0. -1.
          2    1    1    2  501    0  0.56660743625E+02  0.10194839828E+03 -0.16215134650E+04  0.16257028735E+04  0.00000000000E+00 0. -1.
<mgrwt>
<rscale>  4 0.17376176E+03</rscale>
<asrwt>0</asrwt>
<pdfrwt beam="1">  1       21 0.18831666E-01 0.17376176E+03</pdfrwt>
<pdfrwt beam="2">  1        2 0.30592956E+00 0.17376176E+03</pdfrwt>
<totfact> 0.25520300E+03</totfact>
</mgrwt>
</event>
<event>
 5    0  0.3040647E+000  0.3499830E+03  0.7546771E-02  0.1063228E+00
          2   -1    0    0  502    0 -0.00000000000E+00  0.00000000000E+00  0.42162070293E+04  0.42162070293E+04  0.00000000000E+00 0.  1.
         21   -1    0    0  503  502  0.00000000000E+00 -0.00000000000E+00 -0.19593631294E+03  0.19593631294E+03  0.00000000000E+00 0.  1.
         25    1    1    2    0    0 -0.27636389456E+03 -0.16256075703E+03  0.37379616732E+03  0.50808619018E+03  0.12500000000E+03 0.  0.
         21    1    1    2  503  501  0.32491664533E+03 -0.19232705524E+03  0.17851070092E+03  0.41764409841E+03  0.00000000000E+00 0.  1.
          2    1    1    2  501    0 -0.48552750770E+02  0.35488781227E+03  0.34679638481E+04  0.34864130537E+04  0.00000000000E+00 0.  1.
<mgrwt>
<rscale>  4 0.34851143E+03</rscale>
<asrwt>0</asrwt>
<pdfrwt beam="1">  1       21 0.30144051E-01 0.34998302E+03</pdfrwt>
<pdfrwt beam="2">  1        2 0.64864717E+00 0.34998302E+03</pdfrwt>
<totfact> 0.36986068E+01</totfact>
</mgrwt>
</event>
<event>
 5    0  0.3040647E+000  0.2268596E+03  0.7546771E-02  0.1128870E+00
         21   -1    0    0  503  502  0.00000000000E+00  0.00000000000E+00  0.30256868949E+03  0.30256868949E+03  0.00000000000E+00 0. -1.
          2   -1    0    0  502    0 -0.00000000000E+00 -0.00000000000E+00 -0.14664112826E+04  0.14664112826E+04  0.00000000000E+00 0.  1.
         25    1    1    2    0    0  0.47462825642E+02  0.20103135044E+03 -0.47767586259E+02  0.24611596042E+03  0.12500000000E+03 0.  0.
         21    1    1    2  503  501 -0.42139579662E+02 -0.17952884763E+03  0.16148023324E+03  0.24511674164E+03  0.00000000000E+00 0. -1.
          2    1    1    2  501    0 -0.53232459805E+01 -0.21502502806E+02 -0.12775552401E+04  0.12777472700E+04  0.00000000000E+00 0.  1.
<mgrwt>
<rscale>  4 0.22685959E+03</rscale>
<asrwt>0</asrwt>
<pdfrwt beam="1">  1       21 0.46549030E-01 0.22685959E+03</pdfrwt>
<pdfrwt beam="2">  1        2 0.22560173E+00 0.22685959E+03</pdfrwt>
<totfact> 0.79060782E+02</totfact>
</mgrwt>
</event>
<event>
 5    0  0.3040647E+000  0.2935046E+03  0.7546771E-02  0.1088533E+00
         -3   -1    0    0    0  501 -0.00000000000E+00  0.00000000000E+00  0.48776443609E+03  0.48776443609E+03  0.00000000000E+00 0.  1.
         21   -1    0    0  501  502  0.00000000000E+00 -0.00000000000E+00 -0.33786783373E+03  0.33786783373E+03  0.00000000000E+00 0. -1.
         25    1    1    2    0    0  0.11742833514E+03 -0.16360114005E+03 -0.86972160291E+02  0.25247555047E+03  0.12500000000E+03 0.  0.
         21    1    1    2  503  502 -0.17682630256E+02 -0.10675539470E+03 -0.87580169117E+02  0.13921090379E+03  0.00000000000E+00 0. -1.
         -3    1    1    2    0  503 -0.99745704885E+02  0.27035653474E+03  0.32444893176E+03  0.43394581556E+03  0.00000000000E+00 0.  1.
<mgrwt>
<rscale>  4 0.29350463E+03</rscale>
<asrwt>0</asrwt>
<pdfrwt beam="1">  1       21 0.51979666E-01 0.29350463E+03</pdfrwt>
<pdfrwt beam="2">  1       -3 0.75040683E-01 0.29350463E+03</pdfrwt>
<totfact> 0.29106165E+02</totfact>
</mgrwt>
</event>
<event>
 5    0  0.3040647E+000  0.1889105E+03  0.7546771E-02  0.1159448E+00
          2   -1    0    0  502    0 -0.00000000000E+00  0.00000000000E+00  0.12403943257E+04  0.12403943257E+04  0.00000000000E+00 0.  1.
         21   -1    0    0  503  502  0.00000000000E+00 -0.00000000000E+00 -0.42814853135E+03  0.42814853135E+03  0.00000000000E+00 0. -1.
         25    1    1    2    0    0 -0.10674482523E+03 -0.21770271942E+03  0.30730673638E+03  0.41091527349E+03  0.12500000000E+03 0.  0.
         21    1    1    2  503  501  0.89214895964E+02  0.10565521621E+03 -0.35981283260E+03  0.38547061740E+03  0.00000000000E+00 0. -1.
          2    1    1    2  501    0  0.17529929271E+02  0.11204750321E+03  0.86475189058E+03  0.87215696618E+03  0.00000000000E+00 0.  1.
<mgrwt>
<rscale>  4 0.18891047E+03</rscale>
<asrwt>0</asrwt>
<pdfrwt beam="1">  1       21 0.65869005E-01 0.18891047E+03</pdfrwt>
<pdfrwt beam="2">  1        2 0.19082990E+00 0.18891047E+03</pdfrwt>
<totfact> 0.51472898E+02</totfact>
</mgrwt>
</event>
<event>
 5    0  0.3040647E+000  0.2531674E+03  0.7546771E-02  0.1111319E+00
          2   -1    0    0  502    0 -0.00000000000E+00  0.00000000000E+00  0.77363323645E+03  0.77363323645E+03  0.00000000000E+00 0. -1.
         21   -1    0    0  503  502  0.00000000000E+00 -0.00000000000E+00 -0.33399995292E+03  0.33399995292E+03  0.00000000000E+00 0.  1.
         25    1    1    2    0    0  0.18808916482E+03  0.21895469112E+03  0.42031793720E+03  0.52498653222E+03  0.12500000000E+03 0.  0.
         21    1    1    2  503  501 -0.39128191310E+02 -0.11100137650E+03 -0.23848022856E+03  0.26594198682E+03  0.00000000000E+00 0.  1.
          2    1    1    2  501    0 -0.14896097351E+03 -0.10795331463E+03  0.25779557490E+03  0.31670467032E+03  0.00000000000E+00 0. -1.
<mgrwt>
<rscale>  4 0.25316743E+03</rscale>
<asrwt>0</asrwt>
<pdfrwt beam="1">  1       21 0.51384608E-01 0.25316743E+03</pdfrwt>
<pdfrwt beam="2">  1        2 0.11902050E+00 0.25316743E+03</pdfrwt>
<totfact> 0.16387952E+03</totfact>
</mgrwt>
</event>
<event>
 5    0  0.3040647E+000  0.2526393E+03  0.7546771E-02  0.1111648E+00
          2   -1    0    0  502    0 -0.00000000000E+00  0.00000000000E+00  0.18464360350E+04  0.18464360350E+04  0.00000000000E+00 0. -1.
         21   -1    0    0  503  502  0.00000000000E+00 -0.00000000000E+00 -0.91054962548E+03  0.91054962548E+03  0.00000000000E+00 0. -1.
         25    1    1    2    0    0  0.57302263659E+02  0.25215592776E+03 -0.78273048961E+03  0.83376146510E+03  0.12500000000E+03 0.  0.
         21    1    1    2  503  501  0.27323442183E+02 -0.49885545887E+02 -0.87218840779E+02  0.10412619444E+03  0.00000000000E+00 0. -1.
          2    1    1    2  501    0 -0.84625705843E+02 -0.20227038188E+03  0.18058357400E+04  0.18190980010E+04  0.00000000000E+00 0. -1.
<mgrwt>
<rscale>  4 0.25263931E+03</rscale>
<asrwt>0</asrwt>
<pdfrwt beam="1">  1       21 0.14008456E+00 0.25263931E+03</pdfrwt>
<pdfrwt beam="2">  1        2 0.28406708E+00 0.25263931E+03</pdfrwt>
<totfact> 0.38913640E+01</totfact>
</mgrwt>
</event>
<event>
 5    0  0.3040647E+000  0.3291931E+03  0.7546771E-02  0.1071494E+00
         21   -1    0    0  503  502  0.00000000000E+00  0.00000000000E+00  0.11486772956E+03  0.11486772956E+03  0.00000000000E+00 0. -1.
          1   -1    0    0  502    0 -0.00000000000E+00 -0.00000000000E+00 -0.11536441786E+04  0.11536441786E+04  0.00000000000E+00 0. -1.
         25    1    1    2    0    0 -0.14987243581E+03  0.24337503834E+03 -0.49507097200E+03  0.58516102367E+03  0.12500000000E+03 0.  0.
         21    1    1    2  503  501  0.12783159073E+03 -0.29220884031E+03 -0.31434785059E+03  0.44781859398E+03  0.00000000000E+00 0. -1.
          1    1    1    2  501    0  0.22040845085E+02  0.48833801966E+02 -0.22935762646E+03  0.23553229053E+03  0.00000000000E+00 0. -1.
<mgrwt>
<rscale>  4 0.32919306E+03</rscale>
<asrwt>0</asrwt>
<pdfrwt beam="1">  1       21 0.17671958E-01 0.32919306E+03</pdfrwt>
<pdfrwt beam="2">  1        1 0.17748372E+00 0.32919306E+03</pdfrwt>
<totfact> 0.38669911E+03</totfact>
</mgrwt>
</event>
<event>
 5    0  0.3040647E+000  0.3255962E+03  0.7546771E-02  0.1073102E+00
         21   -1    0    0  503  502  0.00000000000E+00  0.00000000000E+00  0.29537867022E+03  0.29537867022E+03  0.00000000000E+00 0.  1.
          2   -1    0    0  502    0 -0.00000000000E+00 -0.00000000000E+00 -0.13550619277E+04  0.13550619277E+04  0.00000000000E+00 0.  1.
         25    1    1    2    0    0  0.26765352969E+03  0.12996289626E+02  0.16878220899E+03  0.34046989525E+03  0.12500000000E+03 0.  0.
         21    1    1    2  503  501  0.30672585396E+02  0.41042842629E+02 -0.73277128390E+01  0.51759229142E+02  0.00000000000E+00 0. -1.
          2    1    1    2  501    0 -0.29832611508E+03 -0.54039132255E+02 -0.12211377536E+04  0.12582114735E+04  0.00000000000E+00 0.  1.
<mgrwt>
<rscale>  4 0.32559618E+03</rscale>
<asrwt>0</asrwt>
<pdfrwt beam="1">  1       21 0.45442873E-01 0.32559618E+03</pdfrwt>
<pdfrwt beam="2">  1        2 0.20847106E+00 0.32559618E+03</pdfrwt>
<totfact> 0.91173893E+02</totfact>
</mgrwt>
</event>
<event>
 5    0  0.3040647E+000  0.2246871E+03  0.7546771E-02  0.1130436E+00
          2   -1    0    0  502    0 -0.00000000000E+00  0.00000000000E+00  0.22509566247E+03  0.22509566247E+03  0.00000000000E+00 0.  1.
         21   -1    0    0  503  502  0.00000000000E+00 -0.00000000000E+00 -0.29627364636E+03  0.29627364636E+03  0.00000000000E+00 0. -1.
         25    1    1    2    0    0 -0.14074912082E+03  0.16888410400E+03 -0.88641701035E+02  0.26798228814E+03  0.12500000000E+03 0.  0.
         21    1    1    2  503  501  0.46674052018E+02 -0.20637218875E+02 -0.43980165188E+02  0.67369257564E+02  0.00000000000E+00 0. -1.
          2    1    1    2  501    0  0.94075068800E+02 -0.14824688512E+03  0.61443882337E+02  0.18601776312E+03  0.00000000000E+00 0.  1.
<mgrwt>
<rscale>  4 0.22468711E+03</rscale>
<asrwt>0</asrwt>
<pdfrwt beam="1">  1       21 0.45580560E-01 0.22468711E+03</pdfrwt>
<pdfrwt beam="2">  1        2 0.34630102E-01 0.22468711E+03</pdfrwt>
<totfact> 0.84625931E+03</totfact>
</mgrwt>
</event>
<event>
 5    0  0.3040647E+000  0.3782309E+03  0.7546771E-02  0.1051590E+00
          1   -1    0    0  502    0 -0.00000000000E+00  0.00000000000E+00  0.69449068988E+03  0.69449068988E+03  0.00000000000E+00 0. -1.
         21   -1    0    0  503  502  0.00000000000E+00 -0.00000000000E+00 -0.37058473999E+03  0.37058473999E+03  0.00000000000E+00 0. -1.
         25    1    1    2    0    0  0.18121307007E+03 -0.30361614410E+03  0.15248374973E+03  0.40484223305E+03  0.12500000000E+03 0.  0.
         21    1    1    2  503  501 -0.48836672942E+02 -0.32160966775E+02 -0.15992068650E+03  0.17027617091E+03  0.00000000000E+00 0. -1.
          1    1    1    2  501    0 -0.13237639713E+03  0.33577711088E+03  0.33134288667E+03  0.48995702592E+03  0.00000000000E+00 0. -1.
<mgrwt>
<rscale>  4 0.37823093E+03</rscale>
<asrwt>0</asrwt>
<pdfrwt beam="1">  1       21 0.57013037E-01 0.37823093E+03</pdfrwt>
<pdfrwt beam="2">  1        1 0.10684472E+00 0.37823093E+03</pdfrwt>
<totfact> 0.85233057E+02</totfact>
</mgrwt>
</event>
<event>
 5    0  0.3040647E+000  0.2435764E+03  0.7546771E-02  0.1117433E+00
         21   -1    0    0  501  502  0.00000000000E+00  0.00000000000E+00  0.23596177977E+03  0.23596177977E+03  0.00000000000E+00 0. -1.
         -1   -1    0    0    0  501 -0.00000000000E+00 -0.00000000000E+00 -0.30620218052E+03  0.30620218052E+03  0.00000000000E+00 0. -1.
         25    1    1    2    0    0 -0.46132901569E+02  0.20390245282E+03  0.10057102527E+03  0.26352226850E+03  0.12500000000E+03 0.  0.
         21    1    1    2  503  502  0.24350732912E+02 -0.10063147251E+03 -0.41048424702E+02  0.11137605049E+03  0.00000000000E+00 0. -1.
         -1    1    1    2    0  503  0.21782168657E+02 -0.10327098031E+03 -0.12976300132E+03  0.16726564129E+03  0.00000000000E+00 0. -1.
<mgrwt>
<rscale>  4 0.24357638E+03</rscale>
<asrwt>0</asrwt>
<pdfrwt beam="1">  1       21 0.36301812E-01 0.24357638E+03</pdfrwt>
<pdfrwt beam="2">  1       -1 0.47108028E-01 0.24357638E+03</pdfrwt>
<totfact> 0.30603527E+03</totfact>
</mgrwt>
</event>
<event>
 5    0  0.3040647E+000  0.1857434E+03  0.7546771E-02  0.1162357E+00
         -3   -1    0    0    0  501 -0.00000000000E+00  0.00000000000E+00  0.11016183192E+04  0.11016183192E+04  0.00000000000E+00 0.  1.
         21   -1    0    0  501  502  0.00000000000E+00 -0.00000000000E+00 -0.86303234520E+03  0.86303234520E+03  0.00000000000E+00 0.  1.
         25    1    1    2    0    0  0.50411065325E+02 -0.24048547365E+03  0.67580389087E+02  0.28384264573E+03  0.12500000000E+03 0.  0.
         21    1    1    2  503  502 -0.13818316267E+02  0.13304467774E+03 -0.74544751840E+03  0.75735317708E+03  0.00000000000E+00 0.  1.
         -3    1    1    2    0  503 -0.36592749058E+02  0.10744079591E+03  0.91645310335E+03  0.92345484164E+03  0.00000000000E+00 0.  1.
<mgrwt>
<rscale>  4 0.18574340E+03</rscale>
<asrwt>0</asrwt>
<pdfrwt beam="1">  1       21 0.13277421E+00 0.18574340E+03</pdfrwt>
<pdfrwt beam="2">  1       -3 0.16947974E+00 0.18574340E+03</pdfrwt>
<totfact> 0.51058333E+00</totfact>
</mgrwt>
</event>
<event>
 5    0  0.3040647E+000  0.2731346E+03  0.7546771E-02  0.1099499E+00
         21   -1    0    0  503  502  0.00000000000E+00  0.00000000000E+00  0.42878600987E+02  0.42878600987E+02  0.00000000000E+00 0.  1.
          2   -1    0    0  502    0 -0.00000000000E+00 -0.00000000000E+00 -0.20136825139E+04  0.20136825139E+04  0.00000000000E+00 0.  1.
         25    1    1    2    0    0  0.67115614756E+01  0.24276014598E+03 -0.14743880784E+04  0.14994741543E+04  0.12500000000E+03 0.  0.
         21    1    1    2  503  501  0.21404086183E+02 -0.30544433192E+02 -0.54350520284E+02  0.65917193201E+02  0.00000000000E+00 0. -1.
          2    1    1    2  501    0 -0.28115647658E+02 -0.21221571278E+03 -0.44206531419E+03  0.49116976740E+03  0.00000000000E+00 0.  1.
<mgrwt>
<rscale>  4 0.27313464E+03</rscale>
<asrwt>0</asrwt>
<pdfrwt beam="1">  1       21 0.65967085E-02 0.27313464E+03</pdfrwt>
<pdfrwt beam="2">  1        2 0.30979728E+00 0.27313464E+03</pdfrwt>
<totfact> 0.15468536E+04</totfact>
</mgrwt>
</event>
<event>
 5    0  0.3040647E+000  0.2491895E+03  0.7546771E-02  0.1113818E+00
         21   -1    0    0  503  502  0.00000000000E+00  0.00000000000E+00  0.26451638646E+03  0.26451638646E+03  0.00000000000E+00 0.  1.
          2   -1    0    0  502    0 -0.00000000000E+00 -0.00000000000E+00 -0.46470945195E+03  0.46470945195E+03  0.00000000000E+00 0.  1.
         25    1    1    2    0    0  0.25622405830E+02  0.21522639269E+03  0.75949331550E+02  0.26148079997E+03  0.12500000000E+03 0.  0.
         21    1    1    2  503  501 -0.26655497886E+02  0.38018770294E+00  0.61559227988E+02  0.67083520038E+02  0.00000000000E+00 0.  1.
          2    1    1    2  501    0  0.10330920567E+01 -0.21560658039E+03 -0.33770162502E+03  0.40066151841E+03  0.00000000000E+00 0.  1.
<mgrwt>
<rscale>  4 0.24918948E+03</rscale>
<asrwt>0</asrwt>
<pdfrwt beam="1">  1       21 0.40694829E-01 0.24918948E+03</pdfrwt>
<pdfrwt beam="2">  1        2 0.71493761E-01 0.24918948E+03</pdfrwt>
<totfact> 0.48334440E+03</totfact>
</mgrwt>
</event>
<event>
 5    0  0.3040647E+000  0.2755932E+03  0.7546771E-02  0.1098120E+00
          2   -1    0    0  502    0 -0.00000000000E+00  0.00000000000E+00  0.17762607105E+03  0.17762607105E+03  0.00000000000E+00 0.  1.
         21   -1    0    0  503  502  0.00000000000E+00 -0.00000000000E+00 -0.13265823974E+04  0.13265823974E+04  0.00000000000E+00 0. -1.
         25    1    1    2    0    0  0.21870634165E+03 -0.13943213590E+03 -0.10958326603E+04  0.11330260384E+04  0.12500000000E+03 0.  0.
         21    1    1    2  503  501 -0.16751358204E+03  0.12200979107E+03 -0.15300640050E+03  0.25760075287E+03  0.00000000000E+00 0. -1.
          2    1    1    2  501    0 -0.51192759612E+02  0.17422344825E+02  0.99882734461E+02  0.11358167713E+03  0.00000000000E+00 0.  1.
<mgrwt>
<rscale>  4 0.27559325E+03</rscale>
<asrwt>0</asrwt>
<pdfrwt beam="1">  1       21 0.20408959E+00 0.27559325E+03</pdfrwt>
<pdfrwt beam="2">  1        2 0.27327089E-01 0.27559325E+03</pdfrwt>
<totfact> 0.28585864E+02</totfact>
</mgrwt>
</event>
<event>
 5    0  0.3040647E+000  0.5550131E+03  0.7546771E-02  0.1000340E+00
         21   -1    0    0  503  502  0.00000000000E+00  0.00000000000E+00  0.11527527786E+04  0.11527527786E+04  0.00000000000E+00 0. -1.
          2   -1    0    0  502    0 -0.00000000000E+00 -0.00000000000E+00 -0.54610414901E+03  0.54610414901E+03  0.00000000000E+00 0.  1.
         25    1    1    2    0    0 -0.55120787739E+03 -0.11909441913E+03  0.75043673831E+03  0.94699202899E+03  0.12500000000E+03 0.  0.
         21    1    1    2  503  501  0.30340925197E+02 -0.90012686009E+01  0.14103824442E+03  0.14454542873E+03  0.00000000000E+00 0.  1.
          2    1    1    2  501    0  0.52086695220E+03  0.12809568773E+03 -0.28482635311E+03  0.60731946991E+03  0.00000000000E+00 0.  1.
<mgrwt>
<rscale>  4 0.55501309E+03</rscale>
<asrwt>0</asrwt>
<pdfrwt beam="1">  1       21 0.17734658E+00 0.55501309E+03</pdfrwt>
<pdfrwt beam="2">  1        2 0.84016023E-01 0.55501309E+03</pdfrwt>
<totfact> 0.11165716E+02</totfact>
</mgrwt>
</event>
<event>
 5    0  0.3040647E+000  0.2819002E+03  0.7546771E-02  0.1094656E+00
         21   -1    0    0  503  502  0.00000000000E+00  0.00000000000E+00  0.11891405373E+04  0.11891405373E+04  0.00000000000E+00 0.  1.
          2   -1    0    0  502    0 -0.00000000000E+00 -0.00000000000E+00 -0.99804614814E+02  0.99804614814E+02  0.00000000000E+00 0. -1.
         25    1    1    2    0    0 -0.23661921250E+03 -0.13962883540E+03  0.70613290461E+03  0.76794110606E+03  0.12500000000E+03 0.  0.
         21    1    1    2  503  501  0.43320766814E+02 -0.13220591464E+02  0.22190492828E+03  0.22648017589E+03  0.00000000000E+00 0.  1.
          2    1    1    2  501    0  0.19329844569E+03  0.15284942687E+03  0.16129808963E+03  0.29452387020E+03  0.00000000000E+00 0. -1.
<mgrwt>
<rscale>  4 0.28190024E+03</rscale>
<asrwt>0</asrwt>
<pdfrwt beam="1">  1       21 0.18294469E+00 0.28190024E+03</pdfrwt>
<pdfrwt beam="2">  1        2 0.15354557E-01 0.28190024E+03</pdfrwt>
<totfact> 0.76466139E+02</totfact>
</mgrwt>
</event>
<event>
 5    0  0.3040647E+000  0.3048037E+03  0.7546771E-02  0.1082864E+00
         21   -1    0    0  501  502  0.00000000000E+00  0.00000000000E+00  0.15272112373E+03  0.15272112373E+03  0.00000000000E+00 0. -1.
         -2   -1    0    0    0  501 -0.00000000000E+00 -0.00000000000E+00 -0.15533057581E+04  0.15533057581E+04  0.00000000000E+00 0. -1.
         25    1    1    2    0    0 -0.23097202632E+03 -0.15682234320E+02 -0.37665810296E+03  0.45944568334E+03  0.12500000000E+03 0.  0.
         21    1    1    2  503  502 -0.69040928012E+02 -0.31595081513E+01  0.78101454714E+02  0.10429031336E+03  0.00000000000E+00 0. -1.
         -2    1    1    2    0  503  0.30001295433E+03  0.18841742471E+02 -0.11020279862E+04  0.11422908851E+04  0.00000000000E+00 0. -1.
<mgrwt>
<rscale>  4 0.30480366E+03</rscale>
<asrwt>0</asrwt>
<pdfrwt beam="1">  1       21 0.23495558E-01 0.30480366E+03</pdfrwt>
<pdfrwt beam="2">  1       -2 0.23897011E+00 0.30480366E+03</pdfrwt>
<totfact> 0.11281879E+02</totfact>
</mgrwt>
</event>
<event>
 5    0  0.3040647E+000  0.2783726E+03  0.7546771E-02  0.1096581E+00
         -3   -1    0    0    0  501 -0.00000000000E+00  0.00000000000E+00  0.41631254320E+03  0.41631254320E+03  0.00000000000E+00 0.  1.
         21   -1    0    0  501  502  0.00000000000E+00 -0.00000000000E+00 -0.38140766399E+03  0.38140766399E+03  0.00000000000E+00 0.  1.
         25    1    1    2    0    0  0.27145726258E+03 -0.11068662815E+03 -0.10638000595E+03  0.33597958379E+03  0.12500000000E+03 0.  0.
         21    1    1    2  503  502 -0.36561222206E+02  0.63093629711E+02 -0.98606067031E+02  0.12264047266E+03  0.00000000000E+00 0.  1.
         -3    1    1    2    0  503 -0.23489604038E+03  0.47592998435E+02  0.23989095220E+03  0.33910015074E+03  0.00000000000E+00 0.  1.
<mgrwt>
<rscale>  4 0.27837265E+03</rscale>
<asrwt>0</asrwt>
<pdfrwt beam="1">  1       21 0.58678103E-01 0.27837265E+03</pdfrwt>
<pdfrwt beam="2">  1       -3 0.64048083E-01 0.27837265E+03</pdfrwt>
<totfact> 0.31643250E+02</totfact>
</mgrwt>
</event>
<event>
 5    0  0.3040647E+000  0.2082085E+03  0.7546771E-02  0.1142993E+00
         21   -1    0    0  503  502  0.00000000000E+00  0.00000000000E+00  0.12114343525E+03  0.12114343525E+03  0.00000000000E+00 0.  1.
          2   -1    0    0  502    0 -0.00000000000E+00 -0.00000000000E+00 -0.20066320333E+04  0.20066320333E+04  0.00000000000E+00 0. -1.
         25    1    1    2    0    0 -0.23872509020E+00  0.26500414295E+03 -0.30657336305E+03  0.42407485153E+03  0.12500000000E+03 0.  0.
         21    1    1    2  503  501  0.61916965171E+02 -0.13257818006E+03 -0.31845735175E+02  0.14974924124E+03  0.00000000000E+00 0.  1.
          2    1    1    2  501    0 -0.61678240081E+02 -0.13242596289E+03 -0.15470694998E+04  0.15539513758E+04  0.00000000000E+00 0. -1.
<mgrwt>
<rscale>  4 0.20820851E+03</rscale>
<asrwt>0</asrwt>
<pdfrwt beam="1">  1       21 0.18637452E-01 0.20820851E+03</pdfrwt>
<pdfrwt beam="2">  1        2 0.30871261E+00 0.20820851E+03</pdfrwt>
<totfact> 0.24936820E+03</totfact>
</mgrwt>
</event>
<event>
 5    0  0.3040647E+000  0.3380155E+03  0.7546771E-02  0.1067644E+00
          1   -1    0    0  502    0 -0.00000000000E+00  0.00000000000E+00  0.49107765695E+03  0.49107765695E+03  0.00000000000E+00 0.  1.
         21   -1    0    0  503  502  0.00000000000E+00 -0.00000000000E+00 -0.64343674516E+03  0.64343674516E+03  0.00000000000E+00 0.  1.
         25    1    1    2    0    0  0.34813539656E+03 -0.52375907626E+02 -0.34224590598E+03  0.50665446825E+03  0.12500000000E+03 0.  0.
         21    1    1    2  503  501 -0.43234549398E+02  0.34729020534E+01 -0.15732619087E+03  0.16319564223E+03  0.00000000000E+00 0.  1.
          1    1    1    2  501    0 -0.30490084716E+03  0.48903005572E+02  0.34721300863E+03  0.46466429163E+03  0.00000000000E+00 0.  1.
<mgrwt>
<rscale>  4 0.33801549E+03</rscale>
<asrwt>0</asrwt>
<pdfrwt beam="1">  1       21 0.98990267E-01 0.33801549E+03</pdfrwt>
<pdfrwt beam="2">  1        1 0.75550410E-01 0.33801549E+03</pdfrwt>
<totfact> 0.40009838E+02</totfact>
</mgrwt>
</event>
<event>
 5    0  0.3040647E+000  0.3372202E+03  0.7546771E-02  0.1067986E+00
          2   -1    0    0  502    0 -0.00000000000E+00  0.00000000000E+00  0.22670962214E+04  0.22670962214E+04  0.00000000000E+00 0.  1.
         21   -1    0    0  503  502  0.00000000000E+00 -0.00000000000E+00 -0.67790627017E+02  0.67790627017E+02  0.00000000000E+00 0.  1.
         25    1    1    2    0    0  0.19942777027E+03  0.22200316897E+03  0.99299099196E+03  0.10443720375E+04  0.12500000000E+03 0.  0.
         21    1    1    2  503  501  0.81281660843E+02 -0.42926758920E+02  0.10299841920E+03  0.13805103904E+03  0.00000000000E+00 0. -1.
          2    1    1    2  501    0 -0.28070943111E+03 -0.17907641005E+03  0.11033161833E+04  0.11524637719E+04  0.00000000000E+00 0.  1.
<mgrwt>
<rscale>  4 0.33722018E+03</rscale>
<asrwt>0</asrwt>
<pdfrwt beam="1">  1       21 0.10429329E-01 0.33722018E+03</pdfrwt>
<pdfrwt beam="2">  1        2 0.34878398E+00 0.33722018E+03</pdfrwt>
<totfact> 0.49592374E+03</totfact>
</mgrwt>
</event>
<event>
 5    0  0.3040647E+000  0.2880198E+03  0.7546771E-02  0.1091388E+00
         21   -1    0    0  503  502  0.00000000000E+00  0.00000000000E+00  0.19506825163E+03  0.19506825163E+03  0.00000000000E+00 0.  1.
          2   -1    0    0  502    0 -0.00000000000E+00 -0.00000000000E+00 -0.20798579476E+04  0.20798579476E+04  0.00000000000E+00 0. -1.
         25    1    1    2    0    0 -0.18199769269E+03  0.13362375407E+03 -0.26441707083E+02  0.25942750754E+03  0.12500000000E+03 0.  0.
         21    1    1    2  503  501 -0.27635583665E+02  0.23618508863E+02  0.64949321293E+02  0.74431000140E+02  0.00000000000E+00 0.  1.
          2    1    1    2  501    0  0.20963327635E+03 -0.15724226293E+03 -0.19232973102E+04  0.19410676915E+04  0.00000000000E+00 0. -1.
<mgrwt>
<rscale>  4 0.28801976E+03</rscale>
<asrwt>0</asrwt>
<pdfrwt beam="1">  1       21 0.30010500E-01 0.28801976E+03</pdfrwt>
<pdfrwt beam="2">  1        2 0.31997815E+00 0.28801976E+03</pdfrwt>
<totfact> 0.88063001E+02</totfact>
</mgrwt>
</event>
<event>
 5    0  0.3040647E+000  0.3062849E+03  0.7546771E-02  0.1082140E+00
         21   -1    0    0  503  502  0.00000000000E+00  0.00000000000E+00  0.47372323295E+03  0.47372323295E+03  0.00000000000E+00 0.  1.
          4   -1    0    0  502    0 -0.00000000000E+00 -0.00000000000E+00 -0.20629661493E+03  0.20629661493E+03  0.00000000000E+00 0.  1.
         25    1    1    2    0    0 -0.14207024174E+02 -0.27925539747E+03  0.23401557164E+03  0.38545259673E+03  0.12500000000E+03 0.  0.
         21    1    1    2  503  501  0.24869622765E+02  0.31514160552E+02  0.23242888043E+02  0.46388277575E+02  0.00000000000E+00 0. -1.
          4    1    1    2  501    0 -0.10662598591E+02  0.24774123692E+03  0.10168158331E+02  0.24817897357E+03  0.00000000000E+00 0.  1.
<mgrwt>
<rscale>  4 0.30628486E+03</rscale>
<asrwt>0</asrwt>
<pdfrwt beam="1">  1       21 0.72880497E-01 0.30628486E+03</pdfrwt>
<pdfrwt beam="2">  1        4 0.31737941E-01 0.30628486E+03</pdfrwt>
<totfact> 0.67475999E+02</totfact>
</mgrwt>
</event>
<event>
 5    0  0.3040647E+000  0.2358812E+03  0.7546771E-02  0.1122567E+00
         -4   -1    0    0    0  501 -0.00000000000E+00  0.00000000000E+00  0.10556785426E+04  0.10556785426E+04  0.00000000000E+00 0.  1.
         21   -1    0    0  501  502  0.00000000000E+00 -0.00000000000E+00 -0.61429851959E+02  0.61429851959E+02  0.00000000000E+00 0.  1.
         25    1    1    2    0    0 -0.31287947579E+02  0.19757528699E+03  0.77401045798E+03  0.80915518830E+03  0.12500000000E+03 0.  0.
         21    1    1    2  503  502  0.58139098874E+02 -0.13350548987E+03  0.14348798479E+03  0.20443256204E+03  0.00000000000E+00 0.  1.
         -4    1    1    2    0  503 -0.26851151295E+02 -0.64069797120E+02  0.76750247816E+02  0.10352064417E+03  0.00000000000E+00 0.  1.
<mgrwt>
<rscale>  4 0.23588118E+03</rscale>
<asrwt>0</asrwt>
<pdfrwt beam="1">  1       21 0.94507472E-02 0.23588118E+03</pdfrwt>
<pdfrwt beam="2">  1       -4 0.16241207E+00 0.23588118E+03</pdfrwt>
<totfact> 0.97311248E+02</totfact>
</mgrwt>
</event>
<event>
 5    0  0.3040647E+000  0.2306423E+03  0.7546771E-02  0.1126188E+00
          1   -1    0    0  502    0 -0.00000000000E+00  0.00000000000E+00  0.26162516144E+04  0.26162516144E+04  0.00000000000E+00 0.  1.
         21   -1    0    0  503  502  0.00000000000E+00 -0.00000000000E+00 -0.10806140093E+03  0.10806140093E+03  0.00000000000E+00 0.  1.
         25    1    1    2    0    0 -0.83871535933E+02  0.24103251836E+03  0.14735081388E+03  0.32010681311E+03  0.12500000000E+03 0.  0.
         21    1    1    2  503  501 -0.75845090772E+01 -0.73163646857E+02  0.58602441971E+02  0.94046213131E+02  0.00000000000E+00 0.  1.
          1    1    1    2  501    0  0.91456045010E+02 -0.16786887151E+03  0.23022369576E+04  0.23101599891E+04  0.00000000000E+00 0.  1.
<mgrwt>
<rscale>  4 0.23064235E+03</rscale>
<asrwt>0</asrwt>
<pdfrwt beam="1">  1       21 0.16624833E-01 0.23064235E+03</pdfrwt>
<pdfrwt beam="2">  1        1 0.40250020E+00 0.23064235E+03</pdfrwt>
<totfact> 0.48445152E+02</totfact>
</mgrwt>
</event>
<event>
 5    0  0.3040647E+000  0.2481282E+03  0.7546771E-02  0.1114494E+00
          2   -1    0    0  502    0 -0.00000000000E+00  0.00000000000E+00  0.22942998775E+04  0.22942998775E+04  0.00000000000E+00 0.  1.
         21   -1    0    0  503  502  0.00000000000E+00 -0.00000000000E+00 -0.28041674864E+02  0.28041674864E+02  0.00000000000E+00 0.  1.
         25    1    1    2    0    0  0.42056238425E+02  0.22130478463E+03  0.11857615327E+04  0.12134248832E+04  0.12500000000E+03 0.  0.
         21    1    1    2  503  501  0.10258926166E+02 -0.21428659244E+02  0.29862768427E+02  0.38160423755E+02  0.00000000000E+00 0. -1.
          2    1    1    2  501    0 -0.52315164591E+02 -0.19987612539E+03  0.10506339015E+04  0.10707562453E+04  0.00000000000E+00 0.  1.
<mgrwt>
<rscale>  4 0.24812818E+03</rscale>
<asrwt>0</asrwt>
<pdfrwt beam="1">  1       21 0.43141056E-02 0.24812818E+03</pdfrwt>
<pdfrwt beam="2">  1        2 0.35296906E+00 0.24812818E+03</pdfrwt>
<totfact> 0.22894207E+04</totfact>
</mgrwt>
</event>
<event>
 5    0  0.3040647E+000  0.8408273E+03  0.7546771E-02  0.9502732E-01
         21   -1    0    0  503  502  0.00000000000E+00  0.00000000000E+00  0.19211753860E+04  0.19211753860E+04  0.00000000000E+00 0. -1.
          2   -1    0    0  502    0 -0.00000000000E+00 -0.00000000000E+00 -0.31015353286E+04  0.31015353286E+04  0.00000000000E+00 0.  1.
         25    1    1    2    0    0 -0.69666769060E+03  0.43424083454E+03  0.15561465048E+04  0.17638389717E+04  0.12500000000E+03 0.  0.
         21    1    1    2  503  501  0.11346474373E+02  0.37308508300E+02  0.20156477584E+03  0.20530227990E+03  0.00000000000E+00 0. -1.
          2    1    1    2  501    0  0.68532121623E+03 -0.47154934284E+03 -0.29380712233E+04  0.30535694630E+04  0.00000000000E+00 0.  1.
<mgrwt>
<rscale>  4 0.84082733E+03</rscale>
<asrwt>0</asrwt>
<pdfrwt beam="1">  1       21 0.29556544E+00 0.84082733E+03</pdfrwt>
<pdfrwt beam="2">  1        2 0.47715928E+00 0.84082733E+03</pdfrwt>
<totfact> 0.50157789E-01</totfact>
</mgrwt>
</event>
<event>
 5    0  0.3040647E+000  0.2186761E+03  0.7546771E-02  0.1134874E+00
         21   -1    0    0  503  502  0.00000000000E+00  0.00000000000E+00  0.22817350120E+03  0.22817350120E+03  0.00000000000E+00 0.  1.
          1   -1    0    0  502    0 -0.00000000000E+00 -0.00000000000E+00 -0.79811001329E+03  0.79811001329E+03  0.00000000000E+00 0.  1.
         25    1    1    2    0    0  0.89864130914E+02  0.21524523074E+03  0.98383747718E+02  0.28233036180E+03  0.12500000000E+03 0.  0.
         21    1    1    2  503  501 -0.42794393842E+02 -0.45398485888E+02 -0.10920746272E+02  0.63337550982E+02  0.00000000000E+00 0. -1.
          1    1    1    2  501    0 -0.47069737072E+02 -0.16984674485E+03 -0.65739951354E+03  0.68061560170E+03  0.00000000000E+00 0.  1.
<mgrwt>
<rscale>  4 0.21867612E+03</rscale>
<asrwt>0</asrwt>
<pdfrwt beam="1">  1       21 0.35103615E-01 0.21867612E+03</pdfrwt>
<pdfrwt beam="2">  1        1 0.12278616E+00 0.21867612E+03</pdfrwt>
<totfact> 0.19981748E+03</totfact>
</mgrwt>
</event>
<event>
 5    0  0.3040647E+000  0.2646061E+03  0.7546771E-02  0.1104407E+00
          2   -1    0    0  502    0 -0.00000000000E+00  0.00000000000E+00  0.73873343510E+03  0.73873343510E+03  0.00000000000E+00 0. -1.
         21   -1    0    0  503  502  0.00000000000E+00 -0.00000000000E+00 -0.12068805715E+03  0.12068805715E+03  0.00000000000E+00 0. -1.
         25    1    1    2    0    0  0.95197702519E+02 -0.18061902017E+03  0.46637122403E+03  0.52422605011E+03  0.12500000000E+03 0.  0.
         21    1    1    2  503  501 -0.14187440595E+03  0.19919652814E+03  0.10337913337E+03  0.26550866107E+03  0.00000000000E+00 0. -1.
          2    1    1    2  501    0  0.46676703433E+02 -0.18577507973E+02  0.48295020555E+02  0.69686781073E+02  0.00000000000E+00 0. -1.
<mgrwt>
<rscale>  4 0.26460607E+03</rscale>
<asrwt>0</asrwt>
<pdfrwt beam="1">  1       21 0.18567394E-01 0.26460607E+03</pdfrwt>
<pdfrwt beam="2">  1        2 0.11365130E+00 0.26460607E+03</pdfrwt>
<totfact> 0.12926139E+04</totfact>
</mgrwt>
</event>
<event>
 5    0  0.3040647E+000  0.2337067E+03  0.7546771E-02  0.1124058E+00
          1   -1    0    0  502    0 -0.00000000000E+00  0.00000000000E+00  0.96681237648E+03  0.96681237648E+03  0.00000000000E+00 0.  1.
         21   -1    0    0  503  502  0.00000000000E+00 -0.00000000000E+00 -0.10585235794E+03  0.10585235794E+03  0.00000000000E+00 0.  1.
         25    1    1    2    0    0  0.21540524749E+03 -0.21945713578E+02  0.12291423146E+03  0.27859279116E+03  0.12500000000E+03 0.  0.
         21    1    1    2  503  501 -0.16972859248E+03  0.25636623139E+02  0.24640796169E+03  0.30030303884E+03  0.00000000000E+00 0.  1.
          1    1    1    2  501    0 -0.45676655008E+02 -0.36909095613E+01  0.49163782538E+03  0.49376890442E+03  0.00000000000E+00 0.  1.
<mgrwt>
<rscale>  4 0.23370673E+03</rscale>
<asrwt>0</asrwt>
<pdfrwt beam="1">  1       21 0.16284979E-01 0.23370673E+03</pdfrwt>
<pdfrwt beam="2">  1        1 0.14874036E+00 0.23370673E+03</pdfrwt>
<totfact> 0.63385072E+03</totfact>
</mgrwt>
</event>
<event>
 5    0  0.3040647E+000  0.2508532E+03  0.7546771E-02  0.1112767E+00
         21   -1    0    0  503  502  0.00000000000E+00  0.00000000000E+00  0.18771313770E+03  0.18771313770E+03  0.00000000000E+00 0.  1.
          1   -1    0    0  502    0 -0.00000000000E+00 -0.00000000000E+00 -0.31449717051E+03  0.31449717051E+03  0.00000000000E+00 0.  1.
         25    1    1    2    0    0  0.21244601293E+03  0.46572965105E+02 -0.12542735766E+03  0.28046278103E+03  0.12500000000E+03 0.  0.
         21    1    1    2  503  501 -0.26519461386E+02 -0.17673376331E+02  0.95599607770E+01  0.33271953853E+02  0.00000000000E+00 0.  1.
          1    1    1    2  501    0 -0.18592655155E+03 -0.28899588773E+02 -0.10916635926E+02  0.18847557333E+03  0.00000000000E+00 0.  1.
<mgrwt>
<rscale>  4 0.25085324E+03</rscale>
<asrwt>0</asrwt>
<pdfrwt beam="1">  1       21 0.28878945E-01 0.25085324E+03</pdfrwt>
<pdfrwt beam="2">  1        1 0.48384180E-01 0.25085324E+03</pdfrwt>
<totfact> 0.10244266E+04</totfact>
</mgrwt>
</event>
<event>
 5    0  0.3040647E+000  0.2416924E+03  0.7546771E-02  0.1118671E+00
         -2   -1    0    0    0  501 -0.00000000000E+00  0.00000000000E+00  0.58242529597E+03  0.58242529597E+03  0.00000000000E+00 0. -1.
         21   -1    0    0  501  502  0.00000000000E+00 -0.00000000000E+00 -0.13831104061E+03  0.13831104061E+03  0.00000000000E+00 0. -1.
         25    1    1    2    0    0 -0.16821853282E+03  0.13515420506E+03  0.38892147323E+03  0.46200546129E+03  0.12500000000E+03 0.  0.
         21    1    1    2  503  502  0.16114365062E+02 -0.17684789681E+02 -0.38185993322E+02  0.45062119717E+02  0.00000000000E+00 0. -1.
         -2    1    1    2    0  503  0.15210416776E+03 -0.11746941538E+03  0.93378775463E+02  0.21366875557E+03  0.00000000000E+00 0. -1.
<mgrwt>
<rscale>  4 0.24169239E+03</rscale>
<asrwt>0</asrwt>
<pdfrwt beam="1">  1       21 0.21278622E-01 0.24169239E+03</pdfrwt>
<pdfrwt beam="2">  1       -2 0.89603890E-01 0.24169239E+03</pdfrwt>
<totfact> 0.18396954E+03</totfact>
</mgrwt>
</event>
<event>
 5    0  0.3040647E+000  0.2621670E+03  0.7546771E-02  0.1105848E+00
          2   -1    0    0  502    0 -0.00000000000E+00  0.00000000000E+00  0.33045032605E+04  0.33045032605E+04  0.00000000000E+00 0.  1.
         21   -1    0    0  503  502  0.00000000000E+00 -0.00000000000E+00 -0.50332709422E+02  0.50332709422E+02  0.00000000000E+00 0.  1.
         25    1    1    2    0    0  0.64038582368E+02  0.25864118828E+03  0.60655777358E+03  0.67419102412E+03  0.12500000000E+03 0.  0.
         21    1    1    2  503  501  0.17064134592E+02 -0.48214485701E+02  0.44536526932E+02  0.67818312806E+02  0.00000000000E+00 0.  1.
          2    1    1    2  501    0 -0.81102716960E+02 -0.21042670258E+03  0.26030762506E+04  0.26128266330E+04  0.00000000000E+00 0.  1.
<mgrwt>
<rscale>  4 0.26216698E+03</rscale>
<asrwt>0</asrwt>
<pdfrwt beam="1">  1       21 0.77434963E-02 0.26216698E+03</pdfrwt>
<pdfrwt beam="2">  1        2 0.50838495E+00 0.26216698E+03</pdfrwt>
<totfact> 0.21855565E+03</totfact>
</mgrwt>
</event>
<event>
 5    0  0.3040647E+000  0.3121210E+03  0.7546771E-02  0.1079334E+00
         -4   -1    0    0    0  501 -0.00000000000E+00  0.00000000000E+00  0.41677484296E+03  0.41677484296E+03  0.00000000000E+00 0.  1.
         21   -1    0    0  501  502  0.00000000000E+00 -0.00000000000E+00 -0.41569911224E+03  0.41569911224E+03  0.00000000000E+00 0. -1.
         25    1    1    2    0    0  0.26261649491E+03  0.18138231284E+03  0.32983439699E+02  0.34435428573E+03  0.12500000000E+03 0.  0.
         21    1    1    2  503  502 -0.37255283727E+02 -0.34717973099E+02 -0.17588966342E+03  0.18311326419E+03  0.00000000000E+00 0. -1.
         -4    1    1    2    0  503 -0.22536121118E+03 -0.14666433974E+03  0.14398195445E+03  0.30500640528E+03  0.00000000000E+00 0.  1.
<mgrwt>
<rscale>  4 0.31212102E+03</rscale>
<asrwt>0</asrwt>
<pdfrwt beam="1">  1       21 0.63953710E-01 0.31212102E+03</pdfrwt>
<pdfrwt beam="2">  1       -4 0.64119206E-01 0.31212102E+03</pdfrwt>
<totfact> 0.21472728E+02</totfact>
</mgrwt>
</event>
<event>
 5    0  0.3040647E+000  0.2681744E+03  0.7546771E-02  0.1102329E+00
         21   -1    0    0  501  502  0.00000000000E+00  0.00000000000E+00  0.66779092907E+03  0.66779092907E+03  0.00000000000E+00 0. -1.
         -2   -1    0    0    0  501 -0.00000000000E+00 -0.00000000000E+00 -0.13482789707E+03  0.13482789707E+03  0.00000000000E+00 0. -1.
         25    1    1    2    0    0 -0.12832000589E+03 -0.17501659817E+03  0.38474160153E+03  0.45907290652E+03  0.12500000000E+03 0.  0.
         21    1    1    2  503  502 -0.24748604812E+02 -0.16116009370E+02  0.85948356008E+02  0.90880906128E+02  0.00000000000E+00 0. -1.
         -2    1    1    2    0  503  0.15306861070E+03  0.19113260754E+03  0.62273074457E+02  0.25266501350E+03  0.00000000000E+00 0. -1.
<mgrwt>
<rscale>  4 0.26817438E+03</rscale>
<asrwt>0</asrwt>
<pdfrwt beam="1">  1       21 0.10273706E+00 0.26817438E+03</pdfrwt>
<pdfrwt beam="2">  1       -2 0.20742754E-01 0.26817438E+03</pdfrwt>
<totfact> 0.11776434E+03</totfact>
</mgrwt>
</event>
<event>
 5    0  0.3040647E+000  0.2480856E+03  0.7546771E-02  0.1114521E+00
         21   -1    0    0  501  502  0.00000000000E+00  0.00000000000E+00  0.52511091153E+03  0.52511091153E+03  0.00000000000E+00 0. -1.
         -1   -1    0    0    0  501 -0.00000000000E+00 -0.00000000000E+00 -0.55662105486E+03  0.55662105486E+03  0.00000000000E+00 0.  1.
         25    1    1    2    0    0 -0.33908703739E+02 -0.20326224757E+03  0.29331529203E+03  0.37963693447E+03  0.12500000000E+03 0.  0.
         21    1    1    2  503  502  0.29306537953E+02 -0.11667110883E+02  0.16456894285E+03  0.16756470867E+03  0.00000000000E+00 0.  1.
         -1    1    1    2    0  503  0.46021657864E+01  0.21492935845E+03 -0.48939437820E+03  0.53453032325E+03  0.00000000000E+00 0.  1.
<mgrwt>
<rscale>  4 0.24808559E+03</rscale>
<asrwt>0</asrwt>
<pdfrwt beam="1">  1       21 0.80786294E-01 0.24808559E+03</pdfrwt>
<pdfrwt beam="2">  1       -1 0.85634008E-01 0.24808559E+03</pdfrwt>
<totfact> 0.17234579E+02</totfact>
</mgrwt>
</event>
<event>
 5    0  0.3040647E+000  0.1901441E+03  0.7546771E-02  0.1158331E+00
         21   -1    0    0  503  502  0.00000000000E+00  0.00000000000E+00  0.24175591281E+04  0.24175591281E+04  0.00000000000E+00 0.  1.
          2   -1    0    0  502    0 -0.00000000000E+00 -0.00000000000E+00 -0.29660103004E+03  0.29660103004E+03  0.00000000000E+00 0.  1.
         25    1    1    2    0    0 -0.52611712725E+01  0.20298162580E+03 -0.27169006745E+01  0.23845670861E+03  0.12500000000E+03 0.  0.
         21    1    1    2  503  501  0.26917956450E+01 -0.14216491207E+03  0.22921567485E+04  0.22965627942E+04  0.00000000000E+00 0.  1.
          2    1    1    2  501    0  0.25693756275E+01 -0.60816713729E+02 -0.16848174980E+03  0.17914065528E+03  0.00000000000E+00 0.  1.
<mgrwt>
<rscale>  4 0.19014413E+03</rscale>
<asrwt>0</asrwt>
<pdfrwt beam="1">  1       21 0.37193216E+00 0.19014413E+03</pdfrwt>
<pdfrwt beam="2">  1        2 0.45630929E-01 0.19014413E+03</pdfrwt>
<totfact> 0.17834331E+01</totfact>
</mgrwt>
</event>
<event>
 5    0  0.3040647E+000  0.2619948E+03  0.7546771E-02  0.1105951E+00
         21   -1    0    0  503  502  0.00000000000E+00  0.00000000000E+00  0.19924820080E+03  0.19924820080E+03  0.00000000000E+00 0. -1.
          1   -1    0    0  502    0 -0.00000000000E+00 -0.00000000000E+00 -0.98126518692E+03  0.98126518692E+03  0.00000000000E+00 0.  1.
         25    1    1    2    0    0  0.21868713725E+03 -0.30277434098E+02  0.49251246143E+02  0.25844046173E+03  0.12500000000E+03 0.  0.
         21    1    1    2  503  501  0.80960001947E+02  0.35561081509E+01 -0.84953238084E+02  0.11740621994E+03  0.00000000000E+00 0. -1.
          1    1    1    2  501    0 -0.29964713920E+03  0.26721325947E+02 -0.74631499417E+03  0.80466670605E+03  0.00000000000E+00 0.  1.
<mgrwt>
<rscale>  4 0.26199478E+03</rscale>
<asrwt>0</asrwt>
<pdfrwt beam="1">  1       21 0.30653569E-01 0.26199478E+03</pdfrwt>
<pdfrwt beam="2">  1        1 0.15096388E+00 0.26199478E+03</pdfrwt>
<totfact> 0.18396463E+03</totfact>
</mgrwt>
</event>
<event>
 5    0  0.3040647E+000  0.2852299E+03  0.7546771E-02  0.1092866E+00
          2   -1    0    0  502    0 -0.00000000000E+00  0.00000000000E+00  0.24666729258E+04  0.24666729258E+04  0.00000000000E+00 0.  1.
         21   -1    0    0  503  502  0.00000000000E+00 -0.00000000000E+00 -0.20767925333E+03  0.20767925333E+03  0.00000000000E+00 0. -1.
         25    1    1    2    0    0 -0.74567990267E+00 -0.21542178944E+03 -0.10508165904E+03  0.27032250826E+03  0.12500000000E+03 0.  0.
         21    1    1    2  503  501  0.19476407552E+02 -0.41850408686E+02  0.28493804116E+02  0.54246511697E+02  0.00000000000E+00 0. -1.
          2    1    1    2  501    0 -0.18730727649E+02  0.25727219812E+03  0.23355815274E+04  0.23497831592E+04  0.00000000000E+00 0.  1.
<mgrwt>
<rscale>  4 0.28522995E+03</rscale>
<asrwt>0</asrwt>
<pdfrwt beam="1">  1       21 0.31950656E-01 0.28522995E+03</pdfrwt>
<pdfrwt beam="2">  1        2 0.37948812E+00 0.28522995E+03</pdfrwt>
<totfact> 0.48302728E+02</totfact>
</mgrwt>
</event>
<event>
 5    0  0.3040647E+000  0.2104855E+03  0.7546771E-02  0.1141182E+00
          1   -1    0    0  502    0 -0.00000000000E+00  0.00000000000E+00  0.15934706620E+04  0.15934706620E+04  0.00000000000E+00 0. -1.
         21   -1    0    0  503  502  0.00000000000E+00 -0.00000000000E+00 -0.73187000441E+03  0.73187000441E+03  0.00000000000E+00 0.  1.
         25    1    1    2    0    0 -0.17804609954E+03  0.91931441888E+02 -0.22484162514E+03  0.32608367019E+03  0.12500000000E+03 0.  0.
         21    1    1    2  503  501  0.33968210505E+02 -0.39114122241E+01 -0.45113942155E+03  0.45243332785E+03  0.00000000000E+00 0.  1.
          1    1    1    2  501    0  0.14407788903E+03 -0.88020029664E+02  0.15375817043E+04  0.15468236684E+04  0.00000000000E+00 0. -1.
<mgrwt>
<rscale>  4 0.21048547E+03</rscale>
<asrwt>0</asrwt>
<pdfrwt beam="1">  1       21 0.11259539E+00 0.21048547E+03</pdfrwt>
<pdfrwt beam="2">  1        1 0.24514933E+00 0.21048547E+03</pdfrwt>
<totfact> 0.42800618E+01</totfact>
</mgrwt>
</event>
<event>
 5    0  0.3040647E+000  0.2985665E+03  0.7546771E-02  0.1085959E+00
         21   -1    0    0  503  502  0.00000000000E+00  0.00000000000E+00  0.23532000882E+03  0.23532000882E+03  0.00000000000E+00 0.  1.
          2   -1    0    0  502    0 -0.00000000000E+00 -0.00000000000E+00 -0.39317504137E+04  0.39317504137E+04  0.00000000000E+00 0.  1.
         25    1    1    2    0    0  0.10454433968E+03 -0.27455097539E+03 -0.31948586355E+04  0.32107716297E+04  0.12500000000E+03 0.  0.
         21    1    1    2  503  501 -0.81087045006E+02  0.25814721678E+03  0.14643109793E+03  0.30766403891E+03  0.00000000000E+00 0.  1.
          2    1    1    2  501    0 -0.23457294671E+02  0.16403758614E+02 -0.64800286723E+03  0.64863475385E+03  0.00000000000E+00 0.  1.
<mgrwt>
<rscale>  4 0.29856646E+03</rscale>
<asrwt>0</asrwt>
<pdfrwt beam="1">  1       21 0.36203080E-01 0.29856646E+03</pdfrwt>
<pdfrwt beam="2">  1        2 0.60488465E+00 0.29856646E+03</pdfrwt>
<totfact> 0.44735593E+01</totfact>
</mgrwt>
</event>
<event>
 5    0  0.3040647E+000  0.2036166E+03  0.7546771E-02  0.1146723E+00
         21   -1    0    0  503  502  0.00000000000E+00  0.00000000000E+00  0.15417858641E+03  0.15417858641E+03  0.00000000000E+00 0. -1.
          1   -1    0    0  502    0 -0.00000000000E+00 -0.00000000000E+00 -0.12385021761E+04  0.12385021761E+04  0.00000000000E+00 0. -1.
         25    1    1    2    0    0 -0.60583306381E+02 -0.20924019568E+03 -0.55441888160E+03  0.60865186501E+03  0.12500000000E+03 0.  0.
         21    1    1    2  503  501  0.24911691856E+02  0.69862550544E+02  0.10749135245E+03  0.13059769987E+03  0.00000000000E+00 0. -1.
          1    1    1    2  501    0  0.35671614525E+02  0.13937764514E+03 -0.63739606055E+03  0.65343119764E+03  0.00000000000E+00 0. -1.
<mgrwt>
<rscale>  4 0.20361662E+03</rscale>
<asrwt>0</asrwt>
<pdfrwt beam="1">  1       21 0.23719782E-01 0.20361662E+03</pdfrwt>
<pdfrwt beam="2">  1        1 0.19053880E+00 0.20361662E+03</pdfrwt>
<totfact> 0.20250138E+03</totfact>
</mgrwt>
</event>
<event>
 5    0  0.3040647E+000  0.2158599E+03  0.7546771E-02  0.1137008E+00
          1   -1    0    0  502    0 -0.00000000000E+00  0.00000000000E+00  0.15372025250E+04  0.15372025250E+04  0.00000000000E+00 0. -1.
         21   -1    0    0  503  502  0.00000000000E+00 -0.00000000000E+00 -0.99653342358E+02  0.99653342358E+02  0.00000000000E+00 0. -1.
         25    1    1    2    0    0  0.12155237423E+03 -0.25997163296E+03  0.44003761039E+03  0.54001697027E+03  0.12500000000E+03 0.  0.
         21    1    1    2  503  501 -0.45492181376E+02  0.11812389338E+03  0.50558495509E+02  0.13630463757E+03  0.00000000000E+00 0. -1.
          1    1    1    2  501    0 -0.76060192850E+02  0.14184773958E+03  0.94695307679E+03  0.96053425956E+03  0.00000000000E+00 0. -1.
<mgrwt>
<rscale>  4 0.21585986E+03</rscale>
<asrwt>0</asrwt>
<pdfrwt beam="1">  1       21 0.15331285E-01 0.21585986E+03</pdfrwt>
<pdfrwt beam="2">  1        1 0.23649268E+00 0.21585986E+03</pdfrwt>
<totfact> 0.28647848E+03</totfact>
</mgrwt>
</event>
<event>
 5    0  0.3040647E+000  0.2242453E+03  0.7546771E-02  0.1130757E+00
          2   -1    0    0  502    0 -0.00000000000E+00  0.00000000000E+00  0.14250747308E+04  0.14250747308E+04  0.00000000000E+00 0. -1.
         21   -1    0    0  503  502  0.00000000000E+00 -0.00000000000E+00 -0.10459404460E+03  0.10459404460E+03  0.00000000000E+00 0.  1.
         25    1    1    2    0    0 -0.21907711749E+03 -0.38214682643E+02  0.22652083564E+03  0.34116247501E+03  0.12500000000E+03 0.  0.
         21    1    1    2  503  501  0.38291998943E+02  0.64350144342E+02 -0.44481797798E+01  0.75013362565E+02  0.00000000000E+00 0. -1.
          2    1    1    2  501    0  0.18078511855E+03 -0.26135461700E+02  0.10984080303E+04  0.11134929378E+04  0.00000000000E+00 0. -1.
<mgrwt>
<rscale>  4 0.22424532E+03</rscale>
<asrwt>0</asrwt>
<pdfrwt beam="1">  1       21 0.16091393E-01 0.22424532E+03</pdfrwt>
<pdfrwt beam="2">  1        2 0.21924225E+00 0.22424532E+03</pdfrwt>
<totfact> 0.65551061E+03</totfact>
</mgrwt>
</event>
<event>
 5    0  0.3040647E+000  0.3130223E+03  0.7546771E-02  0.1078906E+00
          2   -1    0    0  502    0 -0.00000000000E+00  0.00000000000E+00  0.58718187578E+03  0.58718187578E+03  0.00000000000E+00 0. -1.
         21   -1    0    0  503  502  0.00000000000E+00 -0.00000000000E+00 -0.30712282521E+03  0.30712282521E+03  0.00000000000E+00 0.  1.
         25    1    1    2    0    0 -0.26877600417E+03  0.10770816044E+03  0.41699064029E+03  0.52282672304E+03  0.12500000000E+03 0.  0.
         21    1    1    2  503  501 -0.84489341710E+01 -0.55868231444E+02 -0.52377080952E+02  0.77045456597E+02  0.00000000000E+00 0.  1.
          2    1    1    2  501    0  0.27722493834E+03 -0.51839928993E+02 -0.84554508764E+02  0.29443252135E+03  0.00000000000E+00 0. -1.
<mgrwt>
<rscale>  4 0.31302233E+03</rscale>
<asrwt>0</asrwt>
<pdfrwt beam="1">  1       21 0.47249665E-01 0.31302233E+03</pdfrwt>
<pdfrwt beam="2">  1        2 0.90335673E-01 0.31302233E+03</pdfrwt>
<totfact> 0.26755437E+03</totfact>
</mgrwt>
</event>
<event>
 5    0  0.3040647E+000  0.2572414E+03  0.7546771E-02  0.1108812E+00
         -1   -1    0    0    0  501 -0.00000000000E+00  0.00000000000E+00  0.20190160271E+03  0.20190160271E+03  0.00000000000E+00 0. -1.
         21   -1    0    0  501  502  0.00000000000E+00 -0.00000000000E+00 -0.65889425590E+03  0.65889425590E+03  0.00000000000E+00 0. -1.
         25    1    1    2    0    0 -0.80914530805E+02  0.23305258642E+03 -0.43116509019E+03  0.51223920617E+03  0.12500000000E+03 0.  0.
         21    1    1    2  503  502 -0.41485243238E+01 -0.28721313485E+02 -0.10848229895E+03  0.11229663080E+03  0.00000000000E+00 0. -1.
         -1    1    1    2    0  503  0.85063055129E+02 -0.20433127294E+03  0.82654735960E+02  0.23626002164E+03  0.00000000000E+00 0. -1.
<mgrwt>
<rscale>  4 0.25724145E+03</rscale>
<asrwt>0</asrwt>
<pdfrwt beam="1">  1       21 0.10136835E+00 0.25724145E+03</pdfrwt>
<pdfrwt beam="2">  1       -1 0.31061784E-01 0.25724145E+03</pdfrwt>
<totfact> 0.68067971E+02</totfact>
</mgrwt>
</event>
<event>
 5    0  0.3040647E+000  0.2897875E+03  0.7546771E-02  0.1090460E+00
         21   -1    0    0  503  502  0.00000000000E+00  0.00000000000E+00  0.33410345584E+03  0.33410345584E+03  0.00000000000E+00 0. -1.
          2   -1    0    0  502    0 -0.00000000000E+00 -0.00000000000E+00 -0.13549599874E+04  0.13549599874E+04  0.00000000000E+00 0. -1.
         25    1    1    2    0    0 -0.51721638152E+02 -0.21364828717E+03 -0.83407953991E+03  0.87157007599E+03  0.12500000000E+03 0.  0.
         21    1    1    2  503  501  0.36721674791E+02  0.26165603222E+03  0.25834851348E+03  0.36953526897E+03  0.00000000000E+00 0. -1.
          2    1    1    2  501    0  0.14999963361E+02 -0.48007745048E+02 -0.44512550515E+03  0.44795809829E+03  0.00000000000E+00 0. -1.
<mgrwt>
<rscale>  4 0.28978746E+03</rscale>
<asrwt>0</asrwt>
<pdfrwt beam="1">  1       21 0.51400532E-01 0.28978746E+03</pdfrwt>
<pdfrwt beam="2">  1        2 0.20845538E+00 0.28978746E+03</pdfrwt>
<totfact> 0.71472897E+02</totfact>
</mgrwt>
</event>
<event>
 5    0  0.3040647E+000  0.2490802E+03  0.7546771E-02  0.1113888E+00
          2   -1    0    0  502    0 -0.00000000000E+00  0.00000000000E+00  0.10203802392E+04  0.10203802392E+04  0.00000000000E+00 0.  1.
         21   -1    0    0  503  502  0.00000000000E+00 -0.00000000000E+00 -0.90235261905E+02  0.90235261905E+02  0.00000000000E+00 0. -1.
         25    1    1    2    0    0 -0.15424138941E+03 -0.17213215231E+03  0.20793514936E+03  0.33508493014E+03  0.12500000000E+03 0.  0.
         21    1    1    2  503  501 -0.30320225568E+01  0.30137321570E+02  0.91305029098E+01  0.31635698120E+02  0.00000000000E+00 0. -1.
          2    1    1    2  501    0  0.15727341197E+03  0.14199483074E+03  0.71307932502E+03  0.74389487284E+03  0.00000000000E+00 0.  1.
<mgrwt>
<rscale>  4 0.24908018E+03</rscale>
<asrwt>0</asrwt>
<pdfrwt beam="1">  1       21 0.13882349E-01 0.24908018E+03</pdfrwt>
<pdfrwt beam="2">  1        2 0.15698157E+00 0.24908018E+03</pdfrwt>
<totfact> 0.14449957E+04</totfact>
</mgrwt>
</event>
<event>
 5    0  0.3040647E+000  0.2559984E+03  0.7546771E-02  0.1109572E+00
          1   -1    0    0  502    0 -0.00000000000E+00  0.00000000000E+00  0.84556715236E+03  0.84556715236E+03  0.00000000000E+00 0.  1.
         21   -1    0    0  503  502  0.00000000000E+00 -0.00000000000E+00 -0.72084094606E+02  0.72084094606E+02  0.00000000000E+00 0.  1.
         25    1    1    2    0    0 -0.19467884203E+03  0.10959158601E+03  0.45785509739E+03  0.52456311104E+03  0.12500000000E+03 0.  0.
         21    1    1    2  503  501  0.11397648638E+03 -0.24876210333E+02  0.14307064854E+03  0.18460410548E+03  0.00000000000E+00 0.  1.
          1    1    1    2  501    0  0.80702355647E+02 -0.84715375680E+02  0.17255731182E+03  0.20848403044E+03  0.00000000000E+00 0.  1.
<mgrwt>
<rscale>  4 0.25599837E+03</rscale>
<asrwt>0</asrwt>
<pdfrwt beam="1">  1       21 0.11089861E-01 0.25599837E+03</pdfrwt>
<pdfrwt beam="2">  1        1 0.13008725E+00 0.25599837E+03</pdfrwt>
<totfact> 0.15760014E+04</totfact>
</mgrwt>
</event>
<event>
 5    0  0.3040647E+000  0.2257427E+03  0.7546771E-02  0.1129673E+00
         21   -1    0    0  503  502  0.00000000000E+00  0.00000000000E+00  0.99771848631E+03  0.99771848631E+03  0.00000000000E+00 0.  1.
          1   -1    0    0  502    0 -0.00000000000E+00 -0.00000000000E+00 -0.73087757630E+03  0.73087757630E+03  0.00000000000E+00 0. -1.
         25    1    1    2    0    0  0.26866479961E+02 -0.22579875196E+03  0.92306545313E+03  0.95884394711E+03  0.12500000000E+03 0.  0.
         21    1    1    2  503  501  0.14299964206E+02  0.42908041191E+02  0.32677896873E+02  0.55798153367E+02  0.00000000000E+00 0.  1.
          1    1    1    2  501    0 -0.41166444167E+02  0.18289071077E+03 -0.68890244000E+03  0.71395396214E+03  0.00000000000E+00 0. -1.
<mgrwt>
<rscale>  4 0.22574268E+03</rscale>
<asrwt>0</asrwt>
<pdfrwt beam="1">  1       21 0.15349515E+00 0.22574268E+03</pdfrwt>
<pdfrwt beam="2">  1        1 0.11244270E+00 0.22574268E+03</pdfrwt>
<totfact> 0.80541484E+01</totfact>
</mgrwt>
</event>
<event>
 5    0  0.3040647E+000  0.2326066E+03  0.7546771E-02  0.1124818E+00
         -2   -1    0    0    0  501 -0.00000000000E+00  0.00000000000E+00  0.26599161119E+03  0.26599161119E+03  0.00000000000E+00 0.  1.
         21   -1    0    0  501  502  0.00000000000E+00 -0.00000000000E+00 -0.35722160712E+03  0.35722160712E+03  0.00000000000E+00 0.  1.
         25    1    1    2    0    0 -0.98533349261E+02 -0.17841474868E+03 -0.21697529858E+03  0.32286827602E+03  0.12500000000E+03 0.  0.
         21    1    1    2  503  502  0.41685654317E+02 -0.86219419895E+01 -0.28591087481E+02  0.51278474459E+02  0.00000000000E+00 0.  1.
         -2    1    1    2    0  503  0.56847694944E+02  0.18703669067E+03  0.15433639014E+03  0.24906646783E+03  0.00000000000E+00 0.  1.
<mgrwt>
<rscale>  4 0.23260656E+03</rscale>
<asrwt>0</asrwt>
<pdfrwt beam="1">  1       21 0.54957171E-01 0.23260656E+03</pdfrwt>
<pdfrwt beam="2">  1       -2 0.40921786E-01 0.23260656E+03</pdfrwt>
<totfact> 0.14209732E+03</totfact>
</mgrwt>
</event>
<event>
 5    0  0.3040647E+000  0.1902757E+03  0.7546771E-02  0.1158213E+00
         21   -1    0    0  503  502  0.00000000000E+00  0.00000000000E+00  0.78794407116E+02  0.78794407116E+02  0.00000000000E+00 0.  1.
          1   -1    0    0  502    0 -0.00000000000E+00 -0.00000000000E+00 -0.22938323286E+04  0.22938323286E+04  0.00000000000E+00 0.  1.
         25    1    1    2    0    0  0.16142253271E+03  0.12457289730E+03 -0.36493496510E+03  0.43632346896E+03  0.12500000000E+03 0.  0.
         21    1    1    2  503  501 -0.33719762059E+02 -0.68610815681E+02  0.43913150352E+01  0.76575126703E+02  0.00000000000E+00 0.  1.
          1    1    1    2  501    0 -0.12770277065E+03 -0.55962081614E+02 -0.18544942715E+04  0.18597281401E+04  0.00000000000E+00 0.  1.
<mgrwt>
<rscale>  4 0.19027571E+03</rscale>
<asrwt>0</asrwt>
<pdfrwt beam="1">  1       21 0.12122216E-01 0.19027571E+03</pdfrwt>
<pdfrwt beam="2">  1        1 0.35289728E+00 0.19027571E+03</pdfrwt>
<totfact> 0.14400464E+03</totfact>
</mgrwt>
</event>
<event>
 5    0  0.3040647E+000  0.3232011E+03  0.7546771E-02  0.1074185E+00
          1   -1    0    0  502    0 -0.00000000000E+00  0.00000000000E+00  0.10952315217E+04  0.10952315217E+04  0.00000000000E+00 0.  1.
         21   -1    0    0  503  502  0.00000000000E+00 -0.00000000000E+00 -0.30788847656E+03  0.30788847656E+03  0.00000000000E+00 0.  1.
         25    1    1    2    0    0  0.78686672579E+02  0.27038636266E+03  0.65433139613E+02  0.31497122617E+03  0.12500000000E+03 0.  0.
         21    1    1    2  503  501  0.16882685075E+02  0.15458651296E+02 -0.15717398395E+03  0.15883216358E+03  0.00000000000E+00 0.  1.
          1    1    1    2  501    0 -0.95569357654E+02 -0.28584501396E+03  0.87908388946E+03  0.92931660850E+03  0.00000000000E+00 0.  1.
<mgrwt>
<rscale>  4 0.32320108E+03</rscale>
<asrwt>0</asrwt>
<pdfrwt beam="1">  1       21 0.47367459E-01 0.32320108E+03</pdfrwt>
<pdfrwt beam="2">  1        1 0.16849716E+00 0.32320108E+03</pdfrwt>
<totfact> 0.61192698E+02</totfact>
</mgrwt>
</event>
<event>
 5    0  0.3040647E+000  0.2552465E+03  0.7546771E-02  0.1110033E+00
         21   -1    0    0  503  502  0.00000000000E+00  0.00000000000E+00  0.31466695090E+03  0.31466695090E+03  0.00000000000E+00 0.  1.
          2   -1    0    0  502    0 -0.00000000000E+00 -0.00000000000E+00 -0.53535862291E+03  0.53535862291E+03  0.00000000000E+00 0.  1.
         25    1    1    2    0    0 -0.21174635657E+03  0.16601832413E+03 -0.34788781503E+03  0.45721935142E+03  0.12500000000E+03 0.  0.
         21    1    1    2  503  501  0.52564984737E+02 -0.99849860565E+02  0.18006026116E+03  0.21249651744E+03  0.00000000000E+00 0.  1.
          2    1    1    2  501    0  0.15918137183E+03 -0.66168463567E+02 -0.52864118143E+02  0.18030970494E+03  0.00000000000E+00 0.  1.
<mgrwt>
<rscale>  4 0.25524650E+03</rscale>
<asrwt>0</asrwt>
<pdfrwt beam="1">  1       21 0.48410301E-01 0.25524650E+03</pdfrwt>
<pdfrwt beam="2">  1        2 0.82362864E-01 0.25524650E+03</pdfrwt>
<totfact> 0.28767151E+03</totfact>
</mgrwt>
</event>
<event>
 5    0  0.3040647E+000  0.2020946E+03  0.7546771E-02  0.1147984E+00
          2   -1    0    0  502    0 -0.00000000000E+00  0.00000000000E+00  0.10571022513E+04  0.10571022513E+04  0.00000000000E+00 0.  1.
         21   -1    0    0  503  502  0.00000000000E+00 -0.00000000000E+00 -0.53610865890E+03  0.53610865890E+03  0.00000000000E+00 0.  1.
         25    1    1    2    0    0 -0.27101417718E+02  0.29973799404E+03 -0.47615445132E+02  0.32934720665E+03  0.12500000000E+03 0.  0.
         21    1    1    2  503  501  0.84517540298E+01 -0.14702550429E+03 -0.32515743433E+03  0.35695278141E+03  0.00000000000E+00 0.  1.
          2    1    1    2  501    0  0.18649663688E+02 -0.15271248975E+03  0.89376647190E+03  0.90691092218E+03  0.00000000000E+00 0.  1.
<mgrwt>
<rscale>  4 0.20209458E+03</rscale>
<asrwt>0</asrwt>
<pdfrwt beam="1">  1       21 0.82478255E-01 0.20209458E+03</pdfrwt>
<pdfrwt beam="2">  1        2 0.16263112E+00 0.20209458E+03</pdfrwt>
<totfact> 0.39340394E+02</totfact>
</mgrwt>
</event>
<event>
 5    0  0.3040647E+000  0.1941722E+03  0.7546771E-02  0.1154751E+00
          1   -1    0    0  502    0 -0.00000000000E+00  0.00000000000E+00  0.91055618058E+03  0.91055618058E+03  0.00000000000E+00 0. -1.
         21   -1    0    0  503  502  0.00000000000E+00 -0.00000000000E+00 -0.27884305198E+03  0.27884305198E+03  0.00000000000E+00 0.  1.
         25    1    1    2    0    0  0.30387830220E+02  0.22946561638E+03 -0.11317861708E+03  0.28637787745E+03  0.12500000000E+03 0.  0.
         21    1    1    2  503  501  0.43782439773E+02 -0.10331914092E+03 -0.28606903420E+02  0.11580199409E+03  0.00000000000E+00 0. -1.
          1    1    1    2  501    0 -0.74170269993E+02 -0.12614647547E+03  0.77349864909E+03  0.78721936103E+03  0.00000000000E+00 0. -1.
<mgrwt>
<rscale>  4 0.19417216E+03</rscale>
<asrwt>0</asrwt>
<pdfrwt beam="1">  1       21 0.42898931E-01 0.19417216E+03</pdfrwt>
<pdfrwt beam="2">  1        1 0.14008557E+00 0.19417216E+03</pdfrwt>
<totfact> 0.10968995E+03</totfact>
</mgrwt>
</event>
<event>
 5    0  0.3040647E+000  0.3761109E+03  0.7546771E-02  0.1052381E+00
          2   -1    0    0  502    0 -0.00000000000E+00  0.00000000000E+00  0.18652070028E+04  0.18652070028E+04  0.00000000000E+00 0.  1.
         21   -1    0    0  503  502  0.00000000000E+00 -0.00000000000E+00 -0.73622377202E+02  0.73622377202E+02  0.00000000000E+00 0.  1.
         25    1    1    2    0    0 -0.22184050502E+03  0.27680537644E+03  0.79532466655E+03  0.87977312491E+03  0.12500000000E+03 0.  0.
         21    1    1    2  503  501  0.96303139430E+01 -0.32630556258E+02  0.67924178007E+02  0.75968349372E+02  0.00000000000E+00 0. -1.
          2    1    1    2  501    0  0.21221019108E+03 -0.24417482018E+03  0.92833578106E+03  0.98308790573E+03  0.00000000000E+00 0.  1.
<mgrwt>
<rscale>  4 0.37611092E+03</rscale>
<asrwt>0</asrwt>
<pdfrwt beam="1">  1       21 0.11326521E-01 0.37611092E+03</pdfrwt>
<pdfrwt beam="2">  1        2 0.28695489E+00 0.37611092E+03</pdfrwt>
<totfact> 0.69323742E+03</totfact>
</mgrwt>
</event>
<event>
 5    0  0.3040647E+000  0.4481850E+03  0.7546771E-02  0.1028265E+00
          1   -1    0    0  502    0 -0.00000000000E+00  0.00000000000E+00  0.18457914477E+04  0.18457914477E+04  0.00000000000E+00 0. -1.
         21   -1    0    0  503  502  0.00000000000E+00 -0.00000000000E+00 -0.19743572081E+03  0.19743572081E+03  0.00000000000E+00 0. -1.
         25    1    1    2    0    0 -0.36951601980E+03  0.14794471016E+03  0.11513358303E+03  0.43279379397E+03  0.12500000000E+03 0.  0.
         21    1    1    2  503  501 -0.39082794442E+02  0.65228064839E+01  0.47659001309E+02  0.61978966042E+02  0.00000000000E+00 0. -1.
          1    1    1    2  501    0  0.40859881425E+03 -0.15446751664E+03  0.14855631425E+04  0.15484544085E+04  0.00000000000E+00 0. -1.
<mgrwt>
<rscale>  4 0.44818502E+03</rscale>
<asrwt>0</asrwt>
<pdfrwt beam="1">  1       21 0.30374728E-01 0.44818502E+03</pdfrwt>
<pdfrwt beam="2">  1        1 0.28396790E+00 0.44818502E+03</pdfrwt>
<totfact> 0.44756270E+02</totfact>
</mgrwt>
</event>
<event>
 5    0  0.3040647E+000  0.2561311E+03  0.7546771E-02  0.1109490E+00
         21   -1    0    0  503  502  0.00000000000E+00  0.00000000000E+00  0.35155449389E+04  0.35155449389E+04  0.00000000000E+00 0.  1.
          2   -1    0    0  502    0 -0.00000000000E+00 -0.00000000000E+00 -0.12007296319E+03  0.12007296319E+03  0.00000000000E+00 0.  1.
         25    1    1    2    0    0  0.45874167315E+02  0.20196333863E+03  0.24585371220E+04  0.24704095632E+04  0.12500000000E+03 0.  0.
         21    1    1    2  503  501  0.41821217727E+02  0.46336401995E+01  0.93980962374E+03  0.94075109022E+03  0.00000000000E+00 0.  1.
          2    1    1    2  501    0 -0.87695385043E+02 -0.20659697883E+03 -0.28747700033E+01  0.22445724876E+03  0.00000000000E+00 0.  1.
<mgrwt>
<rscale>  4 0.25613109E+03</rscale>
<asrwt>0</asrwt>
<pdfrwt beam="1">  1       21 0.54085299E+00 0.25613109E+03</pdfrwt>
<pdfrwt beam="2">  1        2 0.18472766E-01 0.25613109E+03</pdfrwt>
<totfact> 0.32479931E+00</totfact>
</mgrwt>
</event>
<event>
 5    0  0.3040647E+000  0.3033862E+03  0.7546771E-02  0.1083560E+00
          2   -1    0    0  502    0 -0.00000000000E+00  0.00000000000E+00  0.21097031132E+04  0.21097031132E+04  0.00000000000E+00 0.  1.
         21   -1    0    0  503  502  0.00000000000E+00 -0.00000000000E+00 -0.76253734042E+02  0.76253734042E+02  0.00000000000E+00 0. -1.
         25    1    1    2    0    0  0.74285452454E+02 -0.25122484555E+03  0.38172128936E+03  0.47955019989E+03  0.12500000000E+03 0.  0.
         21    1    1    2  503  501 -0.58083104933E+02 -0.29797632616E+02  0.55903658434E+02  0.85946291453E+02  0.00000000000E+00 0.  1.
          2    1    1    2  501    0 -0.16202347521E+02  0.28102247816E+03  0.15958244314E+04  0.16204603559E+04  0.00000000000E+00 0.  1.
<mgrwt>
<rscale>  4 0.30338616E+03</rscale>
<asrwt>0</asrwt>
<pdfrwt beam="1">  1       21 0.11731345E-01 0.30338616E+03</pdfrwt>
<pdfrwt beam="2">  1        2 0.32456966E+00 0.30338616E+03</pdfrwt>
<totfact> 0.49264218E+03</totfact>
</mgrwt>
</event>
<event>
 5    0  0.3040647E+000  0.2678971E+03  0.7546771E-02  0.1102489E+00
         21   -1    0    0  503  502  0.00000000000E+00  0.00000000000E+00  0.10707801281E+03  0.10707801281E+03  0.00000000000E+00 0.  1.
          1   -1    0    0  502    0 -0.00000000000E+00 -0.00000000000E+00 -0.31823432143E+04  0.31823432143E+04  0.00000000000E+00 0. -1.
         25    1    1    2    0    0 -0.18990600230E+03 -0.86123874323E+02 -0.13669817220E+03  0.27891396831E+03  0.12500000000E+03 0.  0.
         21    1    1    2  503  501 -0.11330318094E+02 -0.42841883159E+02  0.15378740718E+02  0.46907448521E+02  0.00000000000E+00 0.  1.
          1    1    1    2  501    0  0.20123632039E+03  0.12896575748E+03 -0.29539457700E+04  0.29635998103E+04  0.00000000000E+00 0. -1.
<mgrwt>
<rscale>  4 0.26789707E+03</rscale>
<asrwt>0</asrwt>
<pdfrwt beam="1">  1       21 0.16473540E-01 0.26789707E+03</pdfrwt>
<pdfrwt beam="2">  1        1 0.48959127E+00 0.26789707E+03</pdfrwt>
<totfact> 0.19532857E+02</totfact>
</mgrwt>
</event>
<event>
 5    0  0.3040647E+000  0.2442534E+03  0.7546771E-02  0.1116991E+00
          2   -1    0    0  502    0 -0.00000000000E+00  0.00000000000E+00  0.67011519170E+03  0.67011519170E+03  0.00000000000E+00 0. -1.
         21   -1    0    0  503  502  0.00000000000E+00 -0.00000000000E+00 -0.19631912927E+04  0.19631912927E+04  0.00000000000E+00 0. -1.
         25    1    1    2    0    0  0.23309980081E+03  0.86319547432E+02 -0.12382542023E+04  0.12691276733E+04  0.12500000000E+03 0.  0.
         21    1    1    2  503  501 -0.29800002484E+02 -0.36361367017E+02 -0.69194638245E+03  0.69354162481E+03  0.00000000000E+00 0.  1.
          2    1    1    2  501    0 -0.20329979832E+03 -0.49958180415E+02  0.63712448381E+03  0.67063718631E+03  0.00000000000E+00 0. -1.
<mgrwt>
<rscale>  4 0.24425344E+03</rscale>
<asrwt>0</asrwt>
<pdfrwt beam="1">  1       21 0.30202942E+00 0.24425344E+03</pdfrwt>
<pdfrwt beam="2">  1        2 0.10309465E+00 0.24425344E+03</pdfrwt>
<totfact> 0.17337704E+01</totfact>
</mgrwt>
</event>
<event>
 5    0  0.3040647E+000  0.2009121E+03  0.7546771E-02  0.1148972E+00
         21   -1    0    0  501  502  0.00000000000E+00  0.00000000000E+00  0.21829272608E+03  0.21829272608E+03  0.00000000000E+00 0. -1.
         -1   -1    0    0    0  501 -0.00000000000E+00 -0.00000000000E+00 -0.21374503022E+04  0.21374503022E+04  0.00000000000E+00 0. -1.
         25    1    1    2    0    0  0.20307682609E+03 -0.10070797845E+03 -0.18783012790E+02  0.25953823569E+03  0.12500000000E+03 0.  0.
         21    1    1    2  503  502 -0.82494462589E+02  0.22584021402E+01  0.76906579431E+02  0.11280540190E+03  0.00000000000E+00 0. -1.
         -1    1    1    2    0  503 -0.12058236350E+03  0.98449576309E+02 -0.19772811428E+04  0.19833993907E+04  0.00000000000E+00 0. -1.
<mgrwt>
<rscale>  4 0.20091212E+03</rscale>
<asrwt>0</asrwt>
<pdfrwt beam="1">  1       21 0.33583496E-01 0.20091212E+03</pdfrwt>
<pdfrwt beam="2">  1       -1 0.32883851E+00 0.20091212E+03</pdfrwt>
<totfact> 0.20879668E+01</totfact>
</mgrwt>
</event>
<event>
 5    0  0.3040647E+000  0.2551608E+03  0.7546771E-02  0.1110086E+00
         21   -1    0    0  503  502  0.00000000000E+00  0.00000000000E+00  0.50564648412E+03  0.50564648412E+03  0.00000000000E+00 0. -1.
          2   -1    0    0  502    0 -0.00000000000E+00 -0.00000000000E+00 -0.11886341588E+04  0.11886341588E+04  0.00000000000E+00 0.  1.
         25    1    1    2    0    0  0.14372630526E+03  0.21863248637E+03  0.40560158109E+03  0.49859307807E+03  0.12500000000E+03 0.  0.
         21    1    1    2  503  501 -0.43585676508E+02 -0.13445044774E+03 -0.51576158020E+02  0.15045509021E+03  0.00000000000E+00 0. -1.
          2    1    1    2  501    0 -0.10014062875E+03 -0.84182038634E+02 -0.10370130978E+04  0.10452324747E+04  0.00000000000E+00 0.  1.
<mgrwt>
<rscale>  4 0.25516075E+03</rscale>
<asrwt>0</asrwt>
<pdfrwt beam="1">  1       21 0.77791768E-01 0.25516075E+03</pdfrwt>
<pdfrwt beam="2">  1        2 0.18286679E+00 0.25516075E+03</pdfrwt>
<totfact> 0.36423918E+02</totfact>
</mgrwt>
</event>
<event>
 5    0  0.3040647E+000  0.1956506E+03  0.7546771E-02  0.1153461E+00
         21   -1    0    0  503  502  0.00000000000E+00  0.00000000000E+00  0.81926281350E+02  0.81926281350E+02  0.00000000000E+00 0.  1.
          1   -1    0    0  502    0 -0.00000000000E+00 -0.00000000000E+00 -0.37315677818E+04  0.37315677818E+04  0.00000000000E+00 0.  1.
         25    1    1    2    0    0  0.16057888366E+03 -0.18077243637E+03 -0.29305315410E+04  0.29431453183E+04  0.12500000000E+03 0.  0.
         21    1    1    2  503  501 -0.95277973655E+02  0.11346722580E+03 -0.30722806308E+01  0.14819629719E+03  0.00000000000E+00 0.  1.
          1    1    1    2  501    0 -0.65300910005E+02  0.67305210578E+02 -0.71603767874E+03  0.72215244761E+03  0.00000000000E+00 0.  1.
<mgrwt>
<rscale>  4 0.19565058E+03</rscale>
<asrwt>0</asrwt>
<pdfrwt beam="1">  1       21 0.12604045E-01 0.19565058E+03</pdfrwt>
<pdfrwt beam="2">  1        1 0.57408728E+00 0.19565058E+03</pdfrwt>
<totfact> 0.13069836E+02</totfact>
</mgrwt>
</event>
<event>
 5    0  0.3040647E+000  0.2831096E+03  0.7546771E-02  0.1094003E+00
         21   -1    0    0  503  502  0.00000000000E+00  0.00000000000E+00  0.13968876246E+03  0.13968876246E+03  0.00000000000E+00 0.  1.
          1   -1    0    0  502    0 -0.00000000000E+00 -0.00000000000E+00 -0.88693954176E+03  0.88693954176E+03  0.00000000000E+00 0.  1.
         25    1    1    2    0    0 -0.18654145617E+03  0.20226388620E+03 -0.10829898129E+03  0.32103280810E+03  0.12500000000E+03 0.  0.
         21    1    1    2  503  501  0.34648190006E+02 -0.44740745823E+01 -0.25093614121E+02  0.43013996370E+02  0.00000000000E+00 0.  1.
          1    1    1    2  501    0  0.15189326616E+03 -0.19778981162E+03 -0.61385818388E+03  0.66258149975E+03  0.00000000000E+00 0.  1.
<mgrwt>
<rscale>  4 0.28310963E+03</rscale>
<asrwt>0</asrwt>
<pdfrwt beam="1">  1       21 0.21490579E-01 0.28310963E+03</pdfrwt>
<pdfrwt beam="2">  1        1 0.13645224E+00 0.28310963E+03</pdfrwt>
<totfact> 0.42924846E+03</totfact>
</mgrwt>
</event>
<event>
 5    0  0.3040647E+000  0.2561437E+03  0.7546771E-02  0.1109483E+00
          1   -1    0    0  502    0 -0.00000000000E+00  0.00000000000E+00  0.18204482223E+03  0.18204482223E+03  0.00000000000E+00 0. -1.
         21   -1    0    0  503  502  0.00000000000E+00 -0.00000000000E+00 -0.78936401873E+03  0.78936401873E+03  0.00000000000E+00 0. -1.
         25    1    1    2    0    0 -0.20386563614E+03  0.77029347681E+02  0.39306010920E+02  0.25429250972E+03  0.12500000000E+03 0.  0.
         21    1    1    2  503  501  0.17138947059E+03 -0.14769167503E+03 -0.53694032258E+03  0.58265949878E+03  0.00000000000E+00 0. -1.
          1    1    1    2  501    0  0.32476165556E+02  0.70662327353E+02 -0.10968488483E+03  0.13445683247E+03  0.00000000000E+00 0. -1.
<mgrwt>
<rscale>  4 0.25614367E+03</rscale>
<asrwt>0</asrwt>
<pdfrwt beam="1">  1       21 0.12144062E+00 0.25614367E+03</pdfrwt>
<pdfrwt beam="2">  1        1 0.28006896E-01 0.25614367E+03</pdfrwt>
<totfact> 0.89062818E+02</totfact>
</mgrwt>
</event>
<event>
 5    0  0.3040647E+000  0.2279988E+03  0.7546771E-02  0.1128056E+00
         21   -1    0    0  503  502  0.00000000000E+00  0.00000000000E+00  0.40015813443E+03  0.40015813443E+03  0.00000000000E+00 0.  1.
          2   -1    0    0  502    0 -0.00000000000E+00 -0.00000000000E+00 -0.96295969170E+03  0.96295969170E+03  0.00000000000E+00 0.  1.
         25    1    1    2    0    0 -0.22764482907E+03  0.49973183954E+02  0.30846851355E+03  0.40632168435E+03  0.12500000000E+03 0.  0.
         21    1    1    2  503  501  0.45728957047E+02  0.31283673430E+01  0.16734710539E+02  0.48795232674E+02  0.00000000000E+00 0. -1.
          2    1    1    2  501    0  0.18191587203E+03 -0.53101551297E+02 -0.88800478135E+03  0.90800090911E+03  0.00000000000E+00 0.  1.
<mgrwt>
<rscale>  4 0.22799878E+03</rscale>
<asrwt>0</asrwt>
<pdfrwt beam="1">  1       21 0.61562790E-01 0.22799878E+03</pdfrwt>
<pdfrwt beam="2">  1        2 0.14814764E+00 0.22799878E+03</pdfrwt>
<totfact> 0.84498609E+02</totfact>
</mgrwt>
</event>
<event>
 5    0  0.3040647E+000  0.2695542E+03  0.7546771E-02  0.1101535E+00
         21   -1    0    0  503  502  0.00000000000E+00  0.00000000000E+00  0.36246755722E+03  0.36246755722E+03  0.00000000000E+00 0.  1.
          1   -1    0    0  502    0 -0.00000000000E+00 -0.00000000000E+00 -0.51143234371E+03  0.51143234371E+03  0.00000000000E+00 0. -1.
         25    1    1    2    0    0  0.66108764090E+02 -0.21545572748E+03  0.13271985582E+03  0.28988118139E+03  0.12500000000E+03 0.  0.
         21    1    1    2  503  501 -0.40860180599E+02 -0.24797391429E+02  0.11219856242E+03  0.12195483750E+03  0.00000000000E+00 0. -1.
          1    1    1    2  501    0 -0.25248583490E+02  0.24025311891E+03 -0.39388320473E+03  0.46206388204E+03  0.00000000000E+00 0. -1.
<mgrwt>
<rscale>  4 0.26955422E+03</rscale>
<asrwt>0</asrwt>
<pdfrwt beam="1">  1       21 0.55764240E-01 0.26955422E+03</pdfrwt>
<pdfrwt beam="2">  1        1 0.78681898E-01 0.26955422E+03</pdfrwt>
<totfact> 0.14211554E+03</totfact>
</mgrwt>
</event>
<event>
 5    0  0.3040647E+000  0.2294806E+03  0.7546771E-02  0.1127006E+00
         21   -1    0    0  501  502  0.00000000000E+00  0.00000000000E+00  0.65463319187E+02  0.65463319187E+02  0.00000000000E+00 0.  1.
         -2   -1    0    0    0  501 -0.00000000000E+00 -0.00000000000E+00 -0.13361923129E+04  0.13361923129E+04  0.00000000000E+00 0.  1.
         25    1    1    2    0    0  0.12544615349E+03  0.16974090831E+03 -0.78720543586E+03  0.82453993937E+03  0.12500000000E+03 0.  0.
         21    1    1    2  503  502 -0.11898871156E+03 -0.14566337294E+03 -0.14451907437E+03  0.23719589910E+03  0.00000000000E+00 0.  1.
         -2    1    1    2    0  503 -0.64574419276E+01 -0.24077535373E+02 -0.33900448345E+03  0.33991979357E+03  0.00000000000E+00 0.  1.
<mgrwt>
<rscale>  4 0.22948055E+03</rscale>
<asrwt>0</asrwt>
<pdfrwt beam="1">  1       21 0.10071280E-01 0.22948055E+03</pdfrwt>
<pdfrwt beam="2">  1       -2 0.20556804E+00 0.22948055E+03</pdfrwt>
<totfact> 0.87775021E+02</totfact>
</mgrwt>
</event>
<event>
 5    0  0.3040647E+000  0.2793599E+03  0.7546771E-02  0.1096039E+00
         21   -1    0    0  503  502  0.00000000000E+00  0.00000000000E+00  0.91164577627E+02  0.91164577627E+02  0.00000000000E+00 0.  1.
          1   -1    0    0  502    0 -0.00000000000E+00 -0.00000000000E+00 -0.36370224271E+04  0.36370224271E+04  0.00000000000E+00 0. -1.
         25    1    1    2    0    0 -0.66345586403E+02  0.23144916036E+03 -0.14306412620E+03  0.30669658438E+03  0.12500000000E+03 0.  0.
         21    1    1    2  503  501  0.20031661662E+02  0.14634276863E+02 -0.27956874332E+02  0.37376681911E+02  0.00000000000E+00 0. -1.
          1    1    1    2  501    0  0.46313924741E+02 -0.24608343722E+03 -0.33748368489E+04  0.33841137384E+04  0.00000000000E+00 0. -1.
<mgrwt>
<rscale>  4 0.27935986E+03</rscale>
<asrwt>0</asrwt>
<pdfrwt beam="1">  1       21 0.14025319E-01 0.27935986E+03</pdfrwt>
<pdfrwt beam="2">  1        1 0.55954195E+00 0.27935986E+03</pdfrwt>
<totfact> 0.11940770E+02</totfact>
</mgrwt>
</event>
<event>
 5    0  0.3270580E+000  0.2581117E+03  0.7546771E-02  0.1108283E+00
          1   -1    0    0  502    0 -0.00000000000E+00  0.00000000000E+00  0.59569531122E+03  0.59569531122E+03  0.00000000000E+00 0.  1.
         21   -1    0    0  503  502  0.00000000000E+00 -0.00000000000E+00 -0.22779370828E+03  0.22779370828E+03  0.00000000000E+00 0. -1.
         25    1    1    2    0    0 -0.23464924326E+03 -0.37741641604E+01 -0.10106834326E+03  0.28445442814E+03  0.12500000000E+03 0.  0.
         21    1    1    2  503  501  0.10936119971E+02 -0.17609513018E+02  0.20298664342E+01  0.20828202671E+02  0.00000000000E+00 0.  1.
          1    1    1    2  501    0  0.22371312329E+03  0.21383677179E+02  0.46694007977E+03  0.51820638869E+03  0.00000000000E+00 0.  1.
<mgrwt>
<rscale>  4 0.25811171E+03</rscale>
<asrwt>0</asrwt>
<pdfrwt beam="1">  1       21 0.35045186E-01 0.25811171E+03</pdfrwt>
<pdfrwt beam="2">  1        1 0.91645432E-01 0.25811171E+03</pdfrwt>
<totfact> 0.30241580E+03</totfact>
</mgrwt>
</event>
<event>
 5    0  0.3040647E+000  0.2245154E+03  0.7546771E-02  0.1130561E+00
         21   -1    0    0  503  502  0.00000000000E+00  0.00000000000E+00  0.21110994426E+03  0.21110994426E+03  0.00000000000E+00 0. -1.
          2   -1    0    0  502    0 -0.00000000000E+00 -0.00000000000E+00 -0.38528819957E+03  0.38528819957E+03  0.00000000000E+00 0. -1.
         25    1    1    2    0    0  0.13309569676E+03 -0.15616594762E+03  0.58859283763E+02  0.24736952718E+03  0.12500000000E+03 0.  0.
         21    1    1    2  503  501 -0.50211101195E+01  0.25460760751E+02  0.22757536919E+02  0.34516189991E+02  0.00000000000E+00 0. -1.
          2    1    1    2  501    0 -0.12807458664E+03  0.13070518687E+03 -0.25579507599E+03  0.31451242666E+03  0.00000000000E+00 0. -1.
<mgrwt>
<rscale>  4 0.22451541E+03</rscale>
<asrwt>0</asrwt>
<pdfrwt beam="1">  1       21 0.32478454E-01 0.22451541E+03</pdfrwt>
<pdfrwt beam="2">  1        2 0.59275107E-01 0.22451541E+03</pdfrwt>
<totfact> 0.93851113E+03</totfact>
</mgrwt>
</event>
<event>
 5    0  0.3040647E+000  0.4350006E+03  0.7546771E-02  0.1032292E+00
         21   -1    0    0  501  502  0.00000000000E+00  0.00000000000E+00  0.13099502391E+04  0.13099502391E+04  0.00000000000E+00 0. -1.
         -2   -1    0    0    0  501 -0.00000000000E+00 -0.00000000000E+00 -0.32381296564E+03  0.32381296564E+03  0.00000000000E+00 0. -1.
         25    1    1    2    0    0 -0.30698507904E+03  0.26658417261E+03 -0.22394670316E+02  0.42595009226E+03  0.12500000000E+03 0.  0.
         21    1    1    2  503  502 -0.10078657231E+02  0.40998656051E+02  0.61426017903E+03  0.61570937680E+03  0.00000000000E+00 0. -1.
         -2    1    1    2    0  503  0.31706373627E+03 -0.30758282866E+03  0.39427176477E+03  0.59210373570E+03  0.00000000000E+00 0. -1.
<mgrwt>
<rscale>  4 0.43500057E+03</rscale>
<asrwt>0</asrwt>
<pdfrwt beam="1">  1       21 0.20153080E+00 0.43500057E+03</pdfrwt>
<pdfrwt beam="2">  1       -2 0.49817380E-01 0.43500057E+03</pdfrwt>
<totfact> 0.35675281E+01</totfact>
</mgrwt>
</event>
<event>
 5    0  0.3040647E+000  0.3385684E+03  0.7546771E-02  0.1067407E+00
          2   -1    0    0  502    0 -0.00000000000E+00  0.00000000000E+00  0.36377004638E+04  0.36377004638E+04  0.00000000000E+00 0.  1.
         21   -1    0    0  503  502  0.00000000000E+00 -0.00000000000E+00 -0.74415138108E+03  0.74415138108E+03  0.00000000000E+00 0.  1.
         25    1    1    2    0    0  0.25275430434E+03 -0.14489140938E+03 -0.62850533528E+03  0.70393338843E+03  0.12500000000E+03 0.  0.
         21    1    1    2  503  501  0.99031953517E+01 -0.28804366728E+02 -0.67774735412E+02  0.74304640373E+02  0.00000000000E+00 0.  1.
          2    1    1    2  501    0 -0.26265749970E+03  0.17369577611E+03  0.35898291534E+04  0.36036138161E+04  0.00000000000E+00 0.  1.
<mgrwt>
<rscale>  4 0.33856839E+03</rscale>
<asrwt>0</asrwt>
<pdfrwt beam="1">  1       21 0.11448483E+00 0.33856839E+03</pdfrwt>
<pdfrwt beam="2">  1        2 0.55964621E+00 0.33856839E+03</pdfrwt>
<totfact> 0.54955423E+00</totfact>
</mgrwt>
</event>
<event>
 5    0  0.3040647E+000  0.1933662E+03  0.7546771E-02  0.1155460E+00
         21   -1    0    0  503  502  0.00000000000E+00  0.00000000000E+00  0.96780433182E+03  0.96780433182E+03  0.00000000000E+00 0. -1.
          3   -1    0    0  502    0 -0.00000000000E+00 -0.00000000000E+00 -0.31178531532E+03  0.31178531532E+03  0.00000000000E+00 0. -1.
         25    1    1    2    0    0  0.84987628576E+02 -0.19681151306E+03 -0.15488947697E+03  0.29252934684E+03  0.12500000000E+03 0.  0.
         21    1    1    2  503  501 -0.42362810456E+02  0.93428701843E+02  0.85916467366E+03  0.86526728038E+03  0.00000000000E+00 0. -1.
          3    1    1    2  501    0 -0.42624818120E+02  0.10338281122E+03 -0.48256180188E+02  0.12179301992E+03  0.00000000000E+00 0. -1.
<mgrwt>
<rscale>  4 0.19336620E+03</rscale>
<asrwt>0</asrwt>
<pdfrwt beam="1">  1       21 0.14889297E+00 0.19336620E+03</pdfrwt>
<pdfrwt beam="2">  1        3 0.47966972E-01 0.19336620E+03</pdfrwt>
<totfact> 0.65324288E+01</totfact>
</mgrwt>
</event>
<event>
 5    0  0.3040647E+000  0.3235768E+03  0.7546771E-02  0.1074015E+00
         21   -1    0    0  503  502  0.00000000000E+00  0.00000000000E+00  0.96237217009E+02  0.96237217009E+02  0.00000000000E+00 0.  1.
          1   -1    0    0  502    0 -0.00000000000E+00 -0.00000000000E+00 -0.19200594446E+04  0.19200594446E+04  0.00000000000E+00 0. -1.
         25    1    1    2    0    0  0.20392692418E+03  0.21453877149E+03 -0.33120367218E+03  0.46144766480E+03  0.12500000000E+03 0.  0.
         21    1    1    2  503  501  0.19354097415E+02 -0.15371132848E+02  0.69886748254E+01  0.25684516495E+02  0.00000000000E+00 0.  1.
          1    1    1    2  501    0 -0.22328102160E+03 -0.19916763864E+03 -0.14996072302E+04  0.15291644803E+04  0.00000000000E+00 0. -1.
<mgrwt>
<rscale>  4 0.32357683E+03</rscale>
<asrwt>0</asrwt>
<pdfrwt beam="1">  1       21 0.14805725E-01 0.32357683E+03</pdfrwt>
<pdfrwt beam="2">  1        1 0.29539378E+00 0.32357683E+03</pdfrwt>
<totfact> 0.16445634E+03</totfact>
</mgrwt>
</event>
<event>
 5    0  0.3040647E+000  0.4080291E+03  0.7546771E-02  0.1052468E+00
          3   -1    0    0  502    0 -0.00000000000E+00  0.00000000000E+00  0.26466331573E+04  0.26466331573E+04  0.00000000000E+00 0. -1.
         21   -1    0    0  503  502  0.00000000000E+00 -0.00000000000E+00 -0.13787189044E+03  0.13787189044E+03  0.00000000000E+00 0. -1.
         25    1    1    2    0    0 -0.24406937916E+03  0.10558026706E+03  0.37093297586E+03  0.47321594142E+03  0.12500000000E+03 0.  0.
         21    1    1    2  503  501  0.16773100070E+02  0.32129673778E+03  0.43459719616E+03  0.54072881697E+03  0.00000000000E+00 0. -1.
          3    1    1    2  501    0  0.22729627909E+03 -0.42687700484E+03  0.17032310948E+04  0.17705602893E+04  0.00000000000E+00 0. -1.
<mgrwt>
<rscale>  4 0.37587737E+03</rscale>
<asrwt>0</asrwt>
<pdfrwt beam="1">  1       21 0.21211062E-01 0.40802913E+03</pdfrwt>
<pdfrwt beam="2">  1        3 0.40717429E+00 0.40802913E+03</pdfrwt>
<totfact> 0.11638026E+01</totfact>
</mgrwt>
</event>
<event>
 5    0  0.3040647E+000  0.1699798E+03  0.7546771E-02  0.1177869E+00
          1   -1    0    0  502    0 -0.00000000000E+00  0.00000000000E+00  0.43869356924E+03  0.43869356924E+03  0.00000000000E+00 0.  1.
         21   -1    0    0  503  502  0.00000000000E+00 -0.00000000000E+00 -0.12005156870E+04  0.12005156870E+04  0.00000000000E+00 0. -1.
         25    1    1    2    0    0 -0.16883263964E+03  0.14006441050E+03  0.19096052268E+03  0.31656503363E+03  0.12500000000E+03 0.  0.
         21    1    1    2  503  501  0.10176642347E+03 -0.51504092033E+02 -0.11178626389E+04  0.11236663010E+04  0.00000000000E+00 0. -1.
          1    1    1    2  501    0  0.67066216167E+02 -0.88560318467E+02  0.16507999854E+03  0.19897792158E+03  0.00000000000E+00 0.  1.
<mgrwt>
<rscale>  4 0.16997976E+03</rscale>
<asrwt>0</asrwt>
<pdfrwt beam="1">  1       21 0.18469472E+00 0.16997976E+03</pdfrwt>
<pdfrwt beam="2">  1        1 0.67491320E-01 0.16997976E+03</pdfrwt>
<totfact> 0.10241038E+02</totfact>
</mgrwt>
</event>
<event>
 5    0  0.3040647E+000  0.3729112E+03  0.7546771E-02  0.1053585E+00
         21   -1    0    0  503  502  0.00000000000E+00  0.00000000000E+00  0.19018203122E+03  0.19018203122E+03  0.00000000000E+00 0.  1.
          2   -1    0    0  502    0 -0.00000000000E+00 -0.00000000000E+00 -0.96975933515E+03  0.96975933515E+03  0.00000000000E+00 0.  1.
         25    1    1    2    0    0  0.80909680316E+01 -0.33733417947E+03 -0.13549541154E+03  0.38450464100E+03  0.12500000000E+03 0.  0.
         21    1    1    2  503  501  0.36207074896E+02 -0.16873271238E+02 -0.10407886134E+01  0.39959264204E+02  0.00000000000E+00 0. -1.
          2    1    1    2  501    0 -0.44298042928E+02  0.35420745071E+03 -0.64304110377E+03  0.73547746116E+03  0.00000000000E+00 0.  1.
<mgrwt>
<rscale>  4 0.37291120E+03</rscale>
<asrwt>0</asrwt>
<pdfrwt beam="1">  1       21 0.29258775E-01 0.37291120E+03</pdfrwt>
<pdfrwt beam="2">  1        2 0.14919374E+00 0.37291120E+03</pdfrwt>
<totfact> 0.36859102E+03</totfact>
</mgrwt>
</event>
<event>
 5    0  0.3040647E+000  0.2415019E+03  0.7546771E-02  0.1118796E+00
          2   -1    0    0  502    0 -0.00000000000E+00  0.00000000000E+00  0.28674059900E+04  0.28674059900E+04  0.00000000000E+00 0. -1.
         21   -1    0    0  503  502  0.00000000000E+00 -0.00000000000E+00 -0.48664859033E+02  0.48664859033E+02  0.00000000000E+00 0. -1.
         25    1    1    2    0    0 -0.90548261528E+02  0.25787889179E+03  0.56511847864E+03  0.64006593832E+03  0.12500000000E+03 0.  0.
         21    1    1    2  503  501  0.75933497196E+02 -0.11981837818E+03  0.59897432597E+03  0.61554251106E+03  0.00000000000E+00 0. -1.
          2    1    1    2  501    0  0.14614764333E+02 -0.13806051361E+03  0.16546483264E+04  0.16604623997E+04  0.00000000000E+00 0. -1.
<mgrwt>
<rscale>  4 0.24150191E+03</rscale>
<asrwt>0</asrwt>
<pdfrwt beam="1">  1       21 0.74869037E-02 0.24150191E+03</pdfrwt>
<pdfrwt beam="2">  1        2 0.44113925E+00 0.24150191E+03</pdfrwt>
<totfact> 0.42949768E+03</totfact>
</mgrwt>
</event>
<event>
 5    0  0.3040647E+000  0.2543912E+03  0.7546771E-02  0.1110561E+00
          1   -1    0    0  502    0 -0.00000000000E+00  0.00000000000E+00  0.10794824560E+04  0.10794824560E+04  0.00000000000E+00 0. -1.
         21   -1    0    0  503  502  0.00000000000E+00 -0.00000000000E+00 -0.75399172896E+03  0.75399172896E+03  0.00000000000E+00 0. -1.
         25    1    1    2    0    0 -0.14746480315E+00 -0.20618449830E+03  0.54338206791E+03  0.59447551742E+03  0.12500000000E+03 0.  0.
         21    1    1    2  503  501  0.21449226074E+03 -0.47225913043E+01 -0.66579833087E+03  0.69951172268E+03  0.00000000000E+00 0. -1.
          1    1    1    2  501    0 -0.21434479594E+03  0.21090708961E+03  0.44790699003E+03  0.53948694489E+03  0.00000000000E+00 0. -1.
<mgrwt>
<rscale>  4 0.25439123E+03</rscale>
<asrwt>0</asrwt>
<pdfrwt beam="1">  1       21 0.11599873E+00 0.25439123E+03</pdfrwt>
<pdfrwt beam="2">  1        1 0.16607422E+00 0.25439123E+03</pdfrwt>
<totfact> 0.85850318E+01</totfact>
</mgrwt>
</event>
<event>
 5    0  0.3040647E+000  0.3563256E+03  0.7546771E-02  0.1060048E+00
         21   -1    0    0  503  502  0.00000000000E+00  0.00000000000E+00  0.37314568125E+03  0.37314568125E+03  0.00000000000E+00 0. -1.
          2   -1    0    0  502    0 -0.00000000000E+00 -0.00000000000E+00 -0.78118209144E+03  0.78118209144E+03  0.00000000000E+00 0. -1.
         25    1    1    2    0    0 -0.15601402111E+03  0.34010722545E+03 -0.36572245858E+03  0.53795094228E+03  0.12500000000E+03 0.  0.
         21    1    1    2  503  501  0.98825036664E+02 -0.31037982794E+03  0.18876582891E+03  0.37647651138E+03  0.00000000000E+00 0. -1.
          2    1    1    2  501    0  0.57188984448E+02 -0.29727397518E+02 -0.23107978052E+03  0.23990031903E+03  0.00000000000E+00 0. -1.
<mgrwt>
<rscale>  4 0.35632557E+03</rscale>
<asrwt>0</asrwt>
<pdfrwt beam="1">  1       21 0.57407029E-01 0.35632557E+03</pdfrwt>
<pdfrwt beam="2">  1        2 0.12018186E+00 0.35632557E+03</pdfrwt>
<totfact> 0.12335468E+03</totfact>
</mgrwt>
</event>
<event>
 5    0  0.3040647E+000  0.2021012E+03  0.7546771E-02  0.1147978E+00
         21   -1    0    0  503  502  0.00000000000E+00  0.00000000000E+00  0.64848794675E+02  0.64848794675E+02  0.00000000000E+00 0. -1.
          2   -1    0    0  502    0 -0.00000000000E+00 -0.00000000000E+00 -0.22069705280E+04  0.22069705280E+04  0.00000000000E+00 0. -1.
         25    1    1    2    0    0 -0.16817742752E+03 -0.13059066008E+03 -0.26092997705E+03  0.35923115198E+03  0.12500000000E+03 0.  0.
         21    1    1    2  503  501  0.33270118750E+02  0.53689589909E+02 -0.68189091635E+02  0.92947431833E+02  0.00000000000E+00 0. -1.
          2    1    1    2  501    0  0.13490730877E+03  0.76901070167E+02 -0.18130026646E+04  0.18196407389E+04  0.00000000000E+00 0. -1.
<mgrwt>
<rscale>  4 0.20210122E+03</rscale>
<asrwt>0</asrwt>
<pdfrwt beam="1">  1       21 0.99767392E-02 0.20210122E+03</pdfrwt>
<pdfrwt beam="2">  1        2 0.33953387E+00 0.20210122E+03</pdfrwt>
<totfact> 0.60925094E+03</totfact>
</mgrwt>
</event>
<event>
 5    0  0.3040647E+000  0.2798211E+03  0.7546771E-02  0.1095787E+00
          2   -1    0    0  502    0 -0.00000000000E+00  0.00000000000E+00  0.10094495485E+04  0.10094495485E+04  0.00000000000E+00 0.  1.
         21   -1    0    0  503  502  0.00000000000E+00 -0.00000000000E+00 -0.55424122345E+03  0.55424122345E+03  0.00000000000E+00 0.  1.
         25    1    1    2    0    0 -0.11118520553E+03  0.22114858675E+03 -0.45701238353E+03  0.53455978716E+03  0.12500000000E+03 0.  0.
         21    1    1    2  503  501  0.41920257695E+02  0.19667336977E+02 -0.29326480839E+02  0.54810169014E+02  0.00000000000E+00 0.  1.
          2    1    1    2  501    0  0.69264947837E+02 -0.24081592373E+03  0.94154718945E+03  0.97432081579E+03  0.00000000000E+00 0.  1.
<mgrwt>
<rscale>  4 0.27982114E+03</rscale>
<asrwt>0</asrwt>
<pdfrwt beam="1">  1       21 0.85267881E-01 0.27982114E+03</pdfrwt>
<pdfrwt beam="2">  1        2 0.15529993E+00 0.27982114E+03</pdfrwt>
<totfact> 0.37162762E+02</totfact>
</mgrwt>
</event>
<event>
 5    0  0.3040647E+000  0.1946367E+03  0.7546771E-02  0.1154345E+00
         21   -1    0    0  501  502  0.00000000000E+00  0.00000000000E+00  0.73432139346E+02  0.73432139346E+02  0.00000000000E+00 0. -1.
         -2   -1    0    0    0  501 -0.00000000000E+00 -0.00000000000E+00 -0.99458423224E+03  0.99458423224E+03  0.00000000000E+00 0.  1.
         25    1    1    2    0    0 -0.17396484039E+03  0.10616345941E+03 -0.60026877550E+03  0.64612850784E+03  0.12500000000E+03 0.  0.
         21    1    1    2  503  502  0.11918701857E+03 -0.73439042707E+02 -0.58277958896E+02  0.15164154735E+03  0.00000000000E+00 0. -1.
         -2    1    1    2    0  503  0.54777821822E+02 -0.32724416708E+02 -0.26260535850E+03  0.27024631640E+03  0.00000000000E+00 0.  1.
<mgrwt>
<rscale>  4 0.19463669E+03</rscale>
<asrwt>0</asrwt>
<pdfrwt beam="1">  1       21 0.11297253E-01 0.19463669E+03</pdfrwt>
<pdfrwt beam="2">  1       -2 0.15301295E+00 0.19463669E+03</pdfrwt>
<totfact> 0.16274736E+03</totfact>
</mgrwt>
</event>
<event>
 5    0  0.3040647E+000  0.2412431E+03  0.7546771E-02  0.1118967E+00
         -3   -1    0    0    0  501 -0.00000000000E+00  0.00000000000E+00  0.11793692552E+03  0.11793692552E+03  0.00000000000E+00 0. -1.
         21   -1    0    0  501  502  0.00000000000E+00 -0.00000000000E+00 -0.72831011148E+03  0.72831011148E+03  0.00000000000E+00 0.  1.
         25    1    1    2    0    0 -0.10152719100E+03  0.22451775236E+03 -0.20194296038E+03  0.34223084443E+03  0.12500000000E+03 0.  0.
         21    1    1    2  503  502 -0.10602953926E+00 -0.76416435218E+02 -0.26002001104E+03  0.27101639979E+03  0.00000000000E+00 0.  1.
         -3    1    1    2    0  503  0.10163322054E+03 -0.14810131714E+03 -0.14841021454E+03  0.23299979278E+03  0.00000000000E+00 0. -1.
<mgrwt>
<rscale>  4 0.24124308E+03</rscale>
<asrwt>0</asrwt>
<pdfrwt beam="1">  1       21 0.11204771E+00 0.24124308E+03</pdfrwt>
<pdfrwt beam="2">  1       -3 0.18144143E-01 0.24124308E+03</pdfrwt>
<totfact> 0.81250459E+02</totfact>
</mgrwt>
</event>
<event>
 5    0  0.3040647E+000  0.1955682E+03  0.7546771E-02  0.1153533E+00
         21   -1    0    0  503  502  0.00000000000E+00  0.00000000000E+00  0.13369254275E+03  0.13369254275E+03  0.00000000000E+00 0.  1.
          2   -1    0    0  502    0 -0.00000000000E+00 -0.00000000000E+00 -0.93132416028E+03  0.93132416028E+03  0.00000000000E+00 0.  1.
         25    1    1    2    0    0  0.18381259306E+03  0.79381575608E+02 -0.43980585499E+02  0.24009955397E+03  0.12500000000E+03 0.  0.
         21    1    1    2  503  501 -0.50169767448E+02 -0.18575138972E+02  0.35467130467E+01  0.53615487753E+02  0.00000000000E+00 0.  1.
          2    1    1    2  501    0 -0.13364282562E+03 -0.60806436636E+02 -0.75719774508E+03  0.77130166130E+03  0.00000000000E+00 0.  1.
<mgrwt>
<rscale>  4 0.19556821E+03</rscale>
<asrwt>0</asrwt>
<pdfrwt beam="1">  1       21 0.20568083E-01 0.19556821E+03</pdfrwt>
<pdfrwt beam="2">  1        2 0.14328064E+00 0.19556821E+03</pdfrwt>
<totfact> 0.80561160E+03</totfact>
</mgrwt>
</event>
<event>
 5    0  0.3040647E+000  0.2464387E+03  0.7546771E-02  0.1115576E+00
         21   -1    0    0  503  502  0.00000000000E+00  0.00000000000E+00  0.65502475525E+02  0.65502475525E+02  0.00000000000E+00 0.  1.
          2   -1    0    0  502    0 -0.00000000000E+00 -0.00000000000E+00 -0.10217341798E+04  0.10217341798E+04  0.00000000000E+00 0.  1.
         25    1    1    2    0    0  0.52355984759E+02 -0.20582973968E+03 -0.26953757337E+03  0.36521573670E+03  0.12500000000E+03 0.  0.
         21    1    1    2  503  501  0.44594268547E+01  0.32353152990E+02 -0.50371134056E+02  0.60032192550E+02  0.00000000000E+00 0.  1.
          2    1    1    2  501    0 -0.56815411614E+02  0.17347658669E+03 -0.63632299685E+03  0.66198872608E+03  0.00000000000E+00 0.  1.
<mgrwt>
<rscale>  4 0.24643870E+03</rscale>
<asrwt>0</asrwt>
<pdfrwt beam="1">  1       21 0.10077303E-01 0.24643870E+03</pdfrwt>
<pdfrwt beam="2">  1        2 0.15718988E+00 0.24643870E+03</pdfrwt>
<totfact> 0.25669382E+04</totfact>
</mgrwt>
</event>
<event>
 5    0  0.3040647E+000  0.2888385E+03  0.7546771E-02  0.1090957E+00
          2   -1    0    0  502    0 -0.00000000000E+00  0.00000000000E+00  0.16600744138E+04  0.16600744138E+04  0.00000000000E+00 0.  1.
         21   -1    0    0  503  502  0.00000000000E+00 -0.00000000000E+00 -0.96251587167E+03  0.96251587167E+03  0.00000000000E+00 0. -1.
         25    1    1    2    0    0 -0.67902297900E+02 -0.20253737085E+03  0.15338664959E+03  0.29117790596E+03  0.12500000000E+03 0.  0.
         21    1    1    2  503  501 -0.33485821365E+02 -0.46629262318E+02 -0.88009449172E+03  0.88196479674E+03  0.00000000000E+00 0. -1.
          2    1    1    2  501    0  0.10138811926E+03  0.24916663317E+03  0.14242663843E+04  0.14494475828E+04  0.00000000000E+00 0.  1.
<mgrwt>
<rscale>  4 0.28883854E+03</rscale>
<asrwt>0</asrwt>
<pdfrwt beam="1">  1       21 0.14807936E+00 0.28883854E+03</pdfrwt>
<pdfrwt beam="2">  1        2 0.25539606E+00 0.28883854E+03</pdfrwt>
<totfact> 0.40911406E+01</totfact>
</mgrwt>
</event>
<event>
 5    0  0.3040647E+000  0.8454842E+03  0.7546771E-02  0.9496418E-01
          2   -1    0    0  502    0 -0.00000000000E+00  0.00000000000E+00  0.12878675133E+04  0.12878675133E+04  0.00000000000E+00 0.  1.
         21   -1    0    0  503  502  0.00000000000E+00 -0.00000000000E+00 -0.56958787554E+03  0.56958787554E+03  0.00000000000E+00 0.  1.
         25    1    1    2    0    0  0.83654757876E+03 -0.22349070366E+02  0.43338403124E+03  0.95066190153E+03  0.12500000000E+03 0.  0.
         21    1    1    2  503  501 -0.21987432989E+01 -0.23717074463E+02 -0.37456559769E+00  0.23821721024E+02  0.00000000000E+00 0.  1.
          2    1    1    2  501    0 -0.83434883546E+03  0.46066144829E+02  0.28527017210E+03  0.88297176627E+03  0.00000000000E+00 0.  1.
<mgrwt>
<rscale>  4 0.84548423E+03</rscale>
<asrwt>0</asrwt>
<pdfrwt beam="1">  1       21 0.87628905E-01 0.84548423E+03</pdfrwt>
<pdfrwt beam="2">  1        2 0.19813346E+00 0.84548423E+03</pdfrwt>
<totfact> 0.20300618E+02</totfact>
</mgrwt>
</event>
<event>
 5    0  0.3040647E+000  0.1800587E+03  0.7546771E-02  0.1167746E+00
          2   -1    0    0  502    0 -0.00000000000E+00  0.00000000000E+00  0.28739798804E+04  0.28739798804E+04  0.00000000000E+00 0. -1.
         21   -1    0    0  503  502  0.00000000000E+00 -0.00000000000E+00 -0.22065886286E+02  0.22065886286E+02  0.00000000000E+00 0.  1.
         25    1    1    2    0    0  0.26888869758E+02  0.20510623208E+03  0.18956356638E+04  0.19109817235E+04  0.12500000000E+03 0.  0.
         21    1    1    2  503  501 -0.22433629267E+02 -0.11518068347E+03  0.29175713239E+03  0.31447111452E+03  0.00000000000E+00 0.  1.
          2    1    1    2  501    0 -0.44552404915E+01 -0.89925548617E+02  0.66452119797E+03  0.67059292870E+03  0.00000000000E+00 0. -1.
<mgrwt>
<rscale>  4 0.18005873E+03</rscale>
<asrwt>0</asrwt>
<pdfrwt beam="1">  1       21 0.33947540E-02 0.18005873E+03</pdfrwt>
<pdfrwt beam="2">  1        2 0.44215045E+00 0.18005873E+03</pdfrwt>
<totfact> 0.16845100E+04</totfact>
</mgrwt>
</event>
<event>
 5    0  0.3040647E+000  0.4768567E+03  0.7546771E-02  0.1020003E+00
         21   -1    0    0  503  502  0.00000000000E+00  0.00000000000E+00  0.33645983162E+03  0.33645983162E+03  0.00000000000E+00 0.  1.
          2   -1    0    0  502    0 -0.00000000000E+00 -0.00000000000E+00 -0.18293288217E+04  0.18293288217E+04  0.00000000000E+00 0. -1.
         25    1    1    2    0    0 -0.31803280345E+03 -0.22993358537E+03  0.42185370869E+02  0.41402768418E+03  0.12500000000E+03 0.  0.
         21    1    1    2  503  501 -0.76110544348E+02 -0.26780168043E+02  0.52319084711E+02  0.96162773392E+02  0.00000000000E+00 0. -1.
          2    1    1    2  501    0  0.39414334780E+03  0.25671375341E+03 -0.15873734457E+04  0.16555981958E+04  0.00000000000E+00 0. -1.
<mgrwt>
<rscale>  4 0.47685671E+03</rscale>
<asrwt>0</asrwt>
<pdfrwt beam="1">  1       21 0.51763052E-01 0.47685671E+03</pdfrwt>
<pdfrwt beam="2">  1        2 0.28143520E+00 0.47685671E+03</pdfrwt>
<totfact> 0.36397544E+02</totfact>
</mgrwt>
</event>
<event>
 5    0  0.3040647E+000  0.2882483E+03  0.7546771E-02  0.1091267E+00
         21   -1    0    0  503  502  0.00000000000E+00  0.00000000000E+00  0.11083570398E+03  0.11083570398E+03  0.00000000000E+00 0.  1.
          4   -1    0    0  502    0 -0.00000000000E+00 -0.00000000000E+00 -0.11049773766E+04  0.11049773766E+04  0.00000000000E+00 0.  1.
         25    1    1    2    0    0 -0.92286796251E+02  0.23791342868E+03 -0.50851346278E+03  0.58252089588E+03  0.12500000000E+03 0.  0.
         21    1    1    2  503  501  0.48458050026E+02  0.24774266471E+02  0.23058933914E+02  0.59107201970E+02  0.00000000000E+00 0.  1.
          4    1    1    2  501    0  0.43828746225E+02 -0.26268769515E+03 -0.50868714380E+03  0.57418498277E+03  0.00000000000E+00 0.  1.
<mgrwt>
<rscale>  4 0.28824828E+03</rscale>
<asrwt>0</asrwt>
<pdfrwt beam="1">  1       21 0.17051647E-01 0.28824828E+03</pdfrwt>
<pdfrwt beam="2">  1        4 0.16999652E+00 0.28824828E+03</pdfrwt>
<totfact> 0.29456620E+02</totfact>
</mgrwt>
</event>
<event>
 5    0  0.3040647E+000  0.2661498E+03  0.7546771E-02  0.1103504E+00
          1   -1    0    0  502    0 -0.00000000000E+00  0.00000000000E+00  0.82613512049E+03  0.82613512049E+03  0.00000000000E+00 0. -1.
         21   -1    0    0  503  502  0.00000000000E+00 -0.00000000000E+00 -0.99294220679E+03  0.99294220679E+03  0.00000000000E+00 0. -1.
         25    1    1    2    0    0 -0.26771736133E+02 -0.23523301850E+03 -0.43584860513E+03  0.51150787427E+03  0.12500000000E+03 0.  0.
         21    1    1    2  503  501 -0.85844377202E+02  0.28372838412E+02 -0.49750565791E+03  0.50565418490E+03  0.00000000000E+00 0. -1.
          1    1    1    2  501    0  0.11261611333E+03  0.20686018009E+03  0.76654717673E+03  0.80191526812E+03  0.00000000000E+00 0. -1.
<mgrwt>
<rscale>  4 0.26614980E+03</rscale>
<asrwt>0</asrwt>
<pdfrwt beam="1">  1       21 0.15276034E+00 0.26614980E+03</pdfrwt>
<pdfrwt beam="2">  1        1 0.12709771E+00 0.26614980E+03</pdfrwt>
<totfact> 0.65673497E+01</totfact>
</mgrwt>
</event>
<event>
 5    0  0.3040647E+000  0.2844878E+03  0.7546771E-02  0.1093263E+00
         21   -1    0    0  503  502  0.00000000000E+00  0.00000000000E+00  0.68928676854E+03  0.68928676854E+03  0.00000000000E+00 0. -1.
          2   -1    0    0  502    0 -0.00000000000E+00 -0.00000000000E+00 -0.15806338448E+04  0.15806338448E+04  0.00000000000E+00 0.  1.
         25    1    1    2    0    0  0.32021991692E+03  0.18102317062E+03  0.17885904049E+03  0.42769818782E+03  0.12500000000E+03 0.  0.
         21    1    1    2  503  501 -0.91268070074E+02 -0.76808883118E+02  0.36558876469E+03  0.38455768099E+03  0.00000000000E+00 0. -1.
          2    1    1    2  501    0 -0.22895184685E+03 -0.10421428750E+03 -0.14357948815E+04  0.14576647446E+04  0.00000000000E+00 0.  1.
<mgrwt>
<rscale>  4 0.28448785E+03</rscale>
<asrwt>0</asrwt>
<pdfrwt beam="1">  1       21 0.10604412E+00 0.28448785E+03</pdfrwt>
<pdfrwt beam="2">  1        2 0.24317443E+00 0.28448785E+03</pdfrwt>
<totfact> 0.10552330E+02</totfact>
</mgrwt>
</event>
<event>
 5    0  0.3040647E+000  0.2211576E+03  0.7546771E-02  0.1133023E+00
          2   -1    0    0  502    0 -0.00000000000E+00  0.00000000000E+00  0.16424679373E+04  0.16424679373E+04  0.00000000000E+00 0.  1.
         21   -1    0    0  503  502  0.00000000000E+00 -0.00000000000E+00 -0.19830832787E+03  0.19830832787E+03  0.00000000000E+00 0. -1.
         25    1    1    2    0    0  0.17412547312E+03  0.18952339478E+03  0.99221258669E+03  0.10326420555E+04  0.12500000000E+03 0.  0.
         21    1    1    2  503  501 -0.13452193047E+03 -0.11826786949E+03 -0.12948186861E+03  0.22101808304E+03  0.00000000000E+00 0. -1.
          2    1    1    2  501    0 -0.39603542653E+02 -0.71255525295E+02  0.58142889139E+03  0.58711612669E+03  0.00000000000E+00 0.  1.
<mgrwt>
<rscale>  4 0.22115761E+03</rscale>
<asrwt>0</asrwt>
<pdfrwt beam="1">  1       21 0.30508975E-01 0.22115761E+03</pdfrwt>
<pdfrwt beam="2">  1        2 0.25268737E+00 0.22115761E+03</pdfrwt>
<totfact> 0.14980122E+03</totfact>
</mgrwt>
</event>
<event>
 5    0  0.3040647E+000  0.3332580E+03  0.7546771E-02  0.1069704E+00
         21   -1    0    0  503  502  0.00000000000E+00  0.00000000000E+00  0.69861121759E+02  0.69861121759E+02  0.00000000000E+00 0. -1.
          2   -1    0    0  502    0 -0.00000000000E+00 -0.00000000000E+00 -0.20962104388E+04  0.20962104388E+04  0.00000000000E+00 0. -1.
         25    1    1    2    0    0  0.23793565776E+03  0.20611883191E+03 -0.14348645776E+04  0.14742997342E+04  0.12500000000E+03 0.  0.
         21    1    1    2  503  501 -0.31209711867E+02  0.10037186924E+02 -0.46514854019E+01  0.33112347434E+02  0.00000000000E+00 0.  1.
          2    1    1    2  501    0 -0.20672594589E+03 -0.21615601883E+03 -0.58683325406E+03  0.65865947898E+03  0.00000000000E+00 0. -1.
<mgrwt>
<rscale>  4 0.33325800E+03</rscale>
<asrwt>0</asrwt>
<pdfrwt beam="1">  1       21 0.10747865E-01 0.33325800E+03</pdfrwt>
<pdfrwt beam="2">  1        2 0.32249390E+00 0.33325800E+03</pdfrwt>
<totfact> 0.58083009E+03</totfact>
</mgrwt>
</event>
<event>
 5    0  0.3040647E+000  0.3539211E+03  0.7546771E-02  0.1061017E+00
         21   -1    0    0  503  502  0.00000000000E+00  0.00000000000E+00  0.65436852020E+03  0.65436852020E+03  0.00000000000E+00 0. -1.
          4   -1    0    0  502    0 -0.00000000000E+00 -0.00000000000E+00 -0.88966673520E+03  0.88966673520E+03  0.00000000000E+00 0. -1.
         25    1    1    2    0    0  0.31264245654E+03  0.18495266778E+03 -0.14381710925E+03  0.41019648446E+03  0.12500000000E+03 0.  0.
         21    1    1    2  503  501 -0.16833549221E+02 -0.58711370317E+02  0.47688728668E+03  0.48078256789E+03  0.00000000000E+00 0. -1.
          4    1    1    2  501    0 -0.29580890731E+03 -0.12624129747E+03 -0.56836839243E+03  0.65305620306E+03  0.00000000000E+00 0. -1.
<mgrwt>
<rscale>  4 0.35392112E+03</rscale>
<asrwt>0</asrwt>
<pdfrwt beam="1">  1       21 0.10067208E+00 0.35392112E+03</pdfrwt>
<pdfrwt beam="2">  1        4 0.13687180E+00 0.35392112E+03</pdfrwt>
<totfact> 0.12777626E+01</totfact>
</mgrwt>
</event>
<event>
 5    0  0.3040647E+000  0.2369247E+03  0.7546771E-02  0.1121859E+00
         -1   -1    0    0    0  501 -0.00000000000E+00  0.00000000000E+00  0.13374289468E+04  0.13374289468E+04  0.00000000000E+00 0.  1.
         21   -1    0    0  501  502  0.00000000000E+00 -0.00000000000E+00 -0.10678428340E+04  0.10678428340E+04  0.00000000000E+00 0.  1.
         25    1    1    2    0    0 -0.17032712589E+03 -0.16544881463E+03 -0.75606061202E+03  0.80227008490E+03  0.12500000000E+03 0.  0.
         21    1    1    2  503  502  0.18989025934E+03 -0.35400302012E+02 -0.24750343284E+03  0.31395770613E+03  0.00000000000E+00 0.  1.
         -1    1    1    2    0  503 -0.19563133447E+02  0.20084911665E+03  0.12731501576E+04  0.12890439898E+04  0.00000000000E+00 0.  1.
<mgrwt>
<rscale>  4 0.23692468E+03</rscale>
<asrwt>0</asrwt>
<pdfrwt beam="1">  1       21 0.16428351E+00 0.23692468E+03</pdfrwt>
<pdfrwt beam="2">  1       -1 0.20575830E+00 0.23692468E+03</pdfrwt>
<totfact> 0.32550829E+00</totfact>
</mgrwt>
</event>
<event>
 5    0  0.3040647E+000  0.2503405E+03  0.7546771E-02  0.1113090E+00
         21   -1    0    0  503  502  0.00000000000E+00  0.00000000000E+00  0.11939934086E+03  0.11939934086E+03  0.00000000000E+00 0.  1.
          2   -1    0    0  502    0 -0.00000000000E+00 -0.00000000000E+00 -0.64325690703E+03  0.64325690703E+03  0.00000000000E+00 0.  1.
         25    1    1    2    0    0 -0.13862914963E+03 -0.15370092822E+03 -0.37369390658E+03  0.44510015982E+03  0.12500000000E+03 0.  0.
         21    1    1    2  503  501 -0.15928681658E+02 -0.21554346608E+02  0.15645227576E+02  0.31033625359E+02  0.00000000000E+00 0.  1.
          2    1    1    2  501    0  0.15455783129E+03  0.17525527483E+03 -0.16580888717E+03  0.28652246270E+03  0.00000000000E+00 0.  1.
<mgrwt>
<rscale>  4 0.25034050E+03</rscale>
<asrwt>0</asrwt>
<pdfrwt beam="1">  1       21 0.18369130E-01 0.25034050E+03</pdfrwt>
<pdfrwt beam="2">  1        2 0.98962600E-01 0.25034050E+03</pdfrwt>
<totfact> 0.15637561E+04</totfact>
</mgrwt>
</event>
<event>
 5    0  0.3040647E+000  0.2683255E+03  0.7546771E-02  0.1102242E+00
         21   -1    0    0  503  502  0.00000000000E+00  0.00000000000E+00  0.18823744463E+03  0.18823744463E+03  0.00000000000E+00 0.  1.
          1   -1    0    0  502    0 -0.00000000000E+00 -0.00000000000E+00 -0.12596698772E+04  0.12596698772E+04  0.00000000000E+00 0.  1.
         25    1    1    2    0    0 -0.21293822101E+03 -0.16228326839E+03 -0.54078967241E+03  0.61624428188E+03  0.12500000000E+03 0.  0.
         21    1    1    2  503  501  0.39601810388E+02  0.22377170918E+02  0.12828052788E+03  0.13610633709E+03  0.00000000000E+00 0.  1.
          1    1    1    2  501    0  0.17333641062E+03  0.13990609747E+03 -0.65892328806E+03  0.69555670287E+03  0.00000000000E+00 0.  1.
<mgrwt>
<rscale>  4 0.26832555E+03</rscale>
<asrwt>0</asrwt>
<pdfrwt beam="1">  1       21 0.28959606E-01 0.26832555E+03</pdfrwt>
<pdfrwt beam="2">  1        1 0.19379537E+00 0.26832555E+03</pdfrwt>
<totfact> 0.12937139E+03</totfact>
</mgrwt>
</event>
<event>
 5    0  0.3040647E+000  0.2973547E+03  0.7546771E-02  0.1086570E+00
         21   -1    0    0  501  502  0.00000000000E+00  0.00000000000E+00  0.49863478324E+03  0.49863478324E+03  0.00000000000E+00 0.  1.
         -2   -1    0    0    0  501 -0.00000000000E+00 -0.00000000000E+00 -0.26531715480E+03  0.26531715480E+03  0.00000000000E+00 0. -1.
         25    1    1    2    0    0  0.22442932145E+03  0.17345863589E+03  0.30269418429E+03  0.43324956768E+03  0.12500000000E+03 0.  0.
         21    1    1    2  503  502 -0.55056616885E+01 -0.21511767261E+02  0.37500798740E+02  0.43581858009E+02  0.00000000000E+00 0.  1.
         -2    1    1    2    0  503 -0.21892365976E+03 -0.15194686863E+03 -0.10687735459E+03  0.28712051235E+03  0.00000000000E+00 0. -1.
<mgrwt>
<rscale>  4 0.29735475E+03</rscale>
<asrwt>0</asrwt>
<pdfrwt beam="1">  1       21 0.76713043E-01 0.29735475E+03</pdfrwt>
<pdfrwt beam="2">  1       -2 0.40818024E-01 0.29735475E+03</pdfrwt>
<totfact> 0.67402688E+02</totfact>
</mgrwt>
</event>
<event>
 5    0  0.3040647E+000  0.2129157E+03  0.7546771E-02  0.1139278E+00
         21   -1    0    0  503  502  0.00000000000E+00  0.00000000000E+00  0.12824824276E+03  0.12824824276E+03  0.00000000000E+00 0. -1.
          2   -1    0    0  502    0 -0.00000000000E+00 -0.00000000000E+00 -0.16180057648E+04  0.16180057648E+04  0.00000000000E+00 0. -1.
         25    1    1    2    0    0  0.15475016071E+03 -0.19458704568E+03 -0.11493073889E+04  0.11825160484E+04  0.12500000000E+03 0.  0.
         21    1    1    2  503  501 -0.70722095466E+02  0.98645172635E+02  0.65711476288E+02  0.13802348709E+03  0.00000000000E+00 0. -1.
          2    1    1    2  501    0 -0.84028065242E+02  0.95941873043E+02 -0.40616160946E+03  0.42571447209E+03  0.00000000000E+00 0. -1.
<mgrwt>
<rscale>  4 0.21291570E+03</rscale>
<asrwt>0</asrwt>
<pdfrwt beam="1">  1       21 0.19730500E-01 0.21291570E+03</pdfrwt>
<pdfrwt beam="2">  1        2 0.24892394E+00 0.21291570E+03</pdfrwt>
<totfact> 0.35659803E+03</totfact>
</mgrwt>
</event>
<event>
 5    0  0.3040647E+000  0.2147606E+03  0.7546771E-02  0.1137851E+00
          2   -1    0    0  502    0 -0.00000000000E+00  0.00000000000E+00  0.89363617498E+03  0.89363617498E+03  0.00000000000E+00 0. -1.
         21   -1    0    0  503  502  0.00000000000E+00 -0.00000000000E+00 -0.28965787347E+03  0.28965787347E+03  0.00000000000E+00 0.  1.
         25    1    1    2    0    0 -0.90029479373E+02  0.20123257156E+03 -0.52170051498E+02  0.25874035110E+03  0.12500000000E+03 0.  0.
         21    1    1    2  503  501  0.10996213382E+02 -0.48597795836E+02 -0.11982505071E+03  0.12977174287E+03  0.00000000000E+00 0. -1.
          2    1    1    2  501    0  0.79033265991E+02 -0.15263477573E+03  0.77597340371E+03  0.79478195448E+03  0.00000000000E+00 0. -1.
<mgrwt>
<rscale>  4 0.21476065E+03</rscale>
<asrwt>0</asrwt>
<pdfrwt beam="1">  1       21 0.44562750E-01 0.21476065E+03</pdfrwt>
<pdfrwt beam="2">  1        2 0.13748249E+00 0.21476065E+03</pdfrwt>
<totfact> 0.18602358E+03</totfact>
</mgrwt>
</event>
<event>
 5    0  0.3040647E+000  0.1851722E+03  0.7546771E-02  0.1162889E+00
         21   -1    0    0  503  502  0.00000000000E+00  0.00000000000E+00  0.26752120416E+04  0.26752120416E+04  0.00000000000E+00 0.  1.
          2   -1    0    0  502    0 -0.00000000000E+00 -0.00000000000E+00 -0.57967088892E+03  0.57967088892E+03  0.00000000000E+00 0. -1.
         25    1    1    2    0    0 -0.20454298865E+03  0.12053987081E+03  0.62544647494E+03  0.68057033999E+03  0.12500000000E+03 0.  0.
         21    1    1    2  503  501  0.11520726379E+03 -0.58242537045E+02  0.20147465686E+04  0.20188780653E+04  0.00000000000E+00 0.  1.
          2    1    1    2  501    0  0.89335724864E+02 -0.62297333763E+02 -0.54465189091E+03  0.55543452521E+03  0.00000000000E+00 0. -1.
<mgrwt>
<rscale>  4 0.18517220E+03</rscale>
<asrwt>0</asrwt>
<pdfrwt beam="1">  1       21 0.41157107E+00 0.18517220E+03</pdfrwt>
<pdfrwt beam="2">  1        2 0.89180139E-01 0.18517220E+03</pdfrwt>
<totfact> 0.49340652E+00</totfact>
</mgrwt>
</event>
<event>
 5    0  0.3040647E+000  0.2491168E+03  0.7546771E-02  0.1113864E+00
         21   -1    0    0  503  502  0.00000000000E+00  0.00000000000E+00  0.95640967045E+03  0.95640967045E+03  0.00000000000E+00 0.  1.
          4   -1    0    0  502    0 -0.00000000000E+00 -0.00000000000E+00 -0.97438986723E+02  0.97438986723E+02  0.00000000000E+00 0.  1.
         25    1    1    2    0    0 -0.93992890163E+02  0.19366678990E+03  0.63300709411E+03  0.68019443552E+03  0.12500000000E+03 0.  0.
         21    1    1    2  503  501  0.61585867424E+02  0.27539236682E+02  0.88226207236E+02  0.11106346054E+03  0.00000000000E+00 0.  1.
          4    1    1    2  501    0  0.32407022739E+02 -0.22120602659E+03  0.13773738238E+03  0.26259076112E+03  0.00000000000E+00 0.  1.
<mgrwt>
<rscale>  4 0.24911678E+03</rscale>
<asrwt>0</asrwt>
<pdfrwt beam="1">  1       21 0.14713994E+00 0.24911678E+03</pdfrwt>
<pdfrwt beam="2">  1        4 0.14990614E-01 0.24911678E+03</pdfrwt>
<totfact> 0.49365027E+02</totfact>
</mgrwt>
</event>
<event>
 5    0  0.3040647E+000  0.2677444E+03  0.7546771E-02  0.1102578E+00
          2   -1    0    0  502    0 -0.00000000000E+00  0.00000000000E+00  0.77127535341E+03  0.77127535341E+03  0.00000000000E+00 0. -1.
         21   -1    0    0  503  502  0.00000000000E+00 -0.00000000000E+00 -0.22764970108E+03  0.22764970108E+03  0.00000000000E+00 0. -1.
         25    1    1    2    0    0 -0.84574619692E+02  0.21098147564E+03  0.99729720306E+02  0.27791557436E+03  0.12500000000E+03 0.  0.
         21    1    1    2  503  501  0.12104936344E+02  0.17325935703E+02 -0.11290769057E+03  0.11486889971E+03  0.00000000000E+00 0. -1.
          2    1    1    2  501    0  0.72469683348E+02 -0.22830741135E+03  0.55680362260E+03  0.60614058041E+03  0.00000000000E+00 0. -1.
<mgrwt>
<rscale>  4 0.26774441E+03</rscale>
<asrwt>0</asrwt>
<pdfrwt beam="1">  1       21 0.35023031E-01 0.26774441E+03</pdfrwt>
<pdfrwt beam="2">  1        2 0.11865775E+00 0.26774441E+03</pdfrwt>
<totfact> 0.35947634E+03</totfact>
</mgrwt>
</event>
<event>
 5    0  0.3040647E+000  0.2921005E+03  0.7546771E-02  0.1089258E+00
          1   -1    0    0  502    0 -0.00000000000E+00  0.00000000000E+00  0.20402170484E+04  0.20402170484E+04  0.00000000000E+00 0. -1.
         21   -1    0    0  503  502  0.00000000000E+00 -0.00000000000E+00 -0.76891941831E+03  0.76891941831E+03  0.00000000000E+00 0.  1.
         25    1    1    2    0    0 -0.17079392070E+03 -0.20083017055E+03 -0.72442482670E+03  0.78097352727E+03  0.12500000000E+03 0.  0.
         21    1    1    2  503  501 -0.12570854483E+02 -0.23659414363E+02  0.26365918024E+02  0.37589305709E+02  0.00000000000E+00 0.  1.
          1    1    1    2  501    0  0.18336477518E+03  0.22448958491E+03  0.19693565387E+04  0.19905736337E+04  0.00000000000E+00 0. -1.
<mgrwt>
<rscale>  4 0.29210052E+03</rscale>
<asrwt>0</asrwt>
<pdfrwt beam="1">  1       21 0.11829530E+00 0.29210052E+03</pdfrwt>
<pdfrwt beam="2">  1        1 0.31387954E+00 0.29210052E+03</pdfrwt>
<totfact> 0.18090541E+01</totfact>
</mgrwt>
</event>
<event>
 5    0  0.3040647E+000  0.2593694E+03  0.7546771E-02  0.1107523E+00
          2   -1    0    0  502    0 -0.00000000000E+00  0.00000000000E+00  0.24712788148E+03  0.24712788148E+03  0.00000000000E+00 0.  1.
         21   -1    0    0  503  502  0.00000000000E+00 -0.00000000000E+00 -0.35786643409E+03  0.35786643409E+03  0.00000000000E+00 0. -1.
         25    1    1    2    0    0 -0.11479361588E+03  0.18174099032E+03 -0.14875964355E+03  0.28976161471E+03  0.12500000000E+03 0.  0.
         21    1    1    2  503  501  0.51583723270E+01  0.22400123961E+02 -0.59532695163E+02  0.63816268709E+02  0.00000000000E+00 0. -1.
          2    1    1    2  501    0  0.10963524356E+03 -0.20414111428E+03  0.97553786101E+02  0.25141643215E+03  0.00000000000E+00 0.  1.
<mgrwt>
<rscale>  4 0.25936940E+03</rscale>
<asrwt>0</asrwt>
<pdfrwt beam="1">  1       21 0.55056374E-01 0.25936940E+03</pdfrwt>
<pdfrwt beam="2">  1        2 0.38019674E-01 0.25936940E+03</pdfrwt>
<totfact> 0.51038008E+03</totfact>
</mgrwt>
</event>
<event>
 5    0  0.3040647E+000  0.3112609E+03  0.7546771E-02  0.1079743E+00
          1   -1    0    0  502    0 -0.00000000000E+00  0.00000000000E+00  0.11463372949E+04  0.11463372949E+04  0.00000000000E+00 0.  1.
         21   -1    0    0  503  502  0.00000000000E+00 -0.00000000000E+00 -0.96734416918E+02  0.96734416918E+02  0.00000000000E+00 0.  1.
         25    1    1    2    0    0 -0.29883549575E+03  0.51445769072E-02  0.43275298001E+03  0.54055785560E+03  0.12500000000E+03 0.  0.
         21    1    1    2  503  501  0.27243834533E+03  0.92082517342E+01  0.40111583747E+03  0.48497562720E+03  0.00000000000E+00 0.  1.
          1    1    1    2  501    0  0.26397150426E+02 -0.92133963111E+01  0.21573406048E+03  0.21753822899E+03  0.00000000000E+00 0.  1.
<mgrwt>
<rscale>  4 0.31126092E+03</rscale>
<asrwt>0</asrwt>
<pdfrwt beam="1">  1       21 0.14882219E-01 0.31126092E+03</pdfrwt>
<pdfrwt beam="2">  1        1 0.17635957E+00 0.31126092E+03</pdfrwt>
<totfact> 0.54063698E+03</totfact>
</mgrwt>
</event>
<event>
 5    0  0.3040647E+000  0.2624071E+03  0.7546771E-02  0.1105706E+00
         21   -1    0    0  503  502  0.00000000000E+00  0.00000000000E+00  0.74037123251E+03  0.74037123251E+03  0.00000000000E+00 0.  1.
          1   -1    0    0  502    0 -0.00000000000E+00 -0.00000000000E+00 -0.67467473291E+03  0.67467473291E+03  0.00000000000E+00 0. -1.
         25    1    1    2    0    0  0.19458283381E+03 -0.17620408429E+03  0.39486949370E+03  0.49036443140E+03  0.12500000000E+03 0.  0.
         21    1    1    2  503  501 -0.14402247417E+02  0.34475907661E+02  0.27549483428E+03  0.27801693591E+03  0.00000000000E+00 0. -1.
          1    1    1    2  501    0 -0.18018058639E+03  0.14172817663E+03 -0.60466782838E+03  0.64666459810E+03  0.00000000000E+00 0. -1.
<mgrwt>
<rscale>  4 0.26240707E+03</rscale>
<asrwt>0</asrwt>
<pdfrwt beam="1">  1       21 0.11390327E+00 0.26240707E+03</pdfrwt>
<pdfrwt beam="2">  1        1 0.10379611E+00 0.26240707E+03</pdfrwt>
<totfact> 0.18954297E+02</totfact>
</mgrwt>
</event>
<event>
 5    0  0.3040647E+000  0.2290979E+03  0.7546771E-02  0.1127276E+00
          4   -1    0    0  502    0 -0.00000000000E+00  0.00000000000E+00  0.90162919328E+03  0.90162919328E+03  0.00000000000E+00 0. -1.
         21   -1    0    0  503  502  0.00000000000E+00 -0.00000000000E+00 -0.15494315175E+03  0.15494315175E+03  0.00000000000E+00 0. -1.
         25    1    1    2    0    0 -0.55104518947E+02 -0.26791327976E+03  0.18913602791E+03  0.35526253748E+03  0.12500000000E+03 0.  0.
         21    1    1    2  503  501 -0.25586539911E+02  0.10752633280E+03 -0.51621765526E+01  0.11064913618E+03  0.00000000000E+00 0. -1.
          4    1    1    2  501    0  0.80691058858E+02  0.16038694696E+03  0.56271219017E+03  0.59066067137E+03  0.00000000000E+00 0. -1.
<mgrwt>
<rscale>  4 0.22909785E+03</rscale>
<asrwt>0</asrwt>
<pdfrwt beam="1">  1       21 0.23837408E-01 0.22909785E+03</pdfrwt>
<pdfrwt beam="2">  1        4 0.13871218E+00 0.22909785E+03</pdfrwt>
<totfact> 0.26911185E+02</totfact>
</mgrwt>
</event>
<event>
 5    0  0.3040647E+000  0.2414315E+03  0.7546771E-02  0.1118843E+00
         21   -1    0    0  501  502  0.00000000000E+00  0.00000000000E+00  0.18132472372E+03  0.18132472372E+03  0.00000000000E+00 0.  1.
         -2   -1    0    0    0  501 -0.00000000000E+00 -0.00000000000E+00 -0.48144960808E+03  0.48144960808E+03  0.00000000000E+00 0.  1.
         25    1    1    2    0    0 -0.10880052379E+03  0.18005311180E+03  0.33984572274E+02  0.24705592120E+03  0.12500000000E+03 0.  0.
         21    1    1    2  503  502 -0.23527112632E+02 -0.33884967834E+02 -0.22554887797E+02  0.47015306417E+02  0.00000000000E+00 0. -1.
         -2    1    1    2    0  503  0.13232763642E+03 -0.14616814397E+03 -0.31155456884E+03  0.36870310419E+03  0.00000000000E+00 0.  1.
<mgrwt>
<rscale>  4 0.24143151E+03</rscale>
<asrwt>0</asrwt>
<pdfrwt beam="1">  1       21 0.27896112E-01 0.24143151E+03</pdfrwt>
<pdfrwt beam="2">  1       -2 0.74069169E-01 0.24143151E+03</pdfrwt>
<totfact> 0.16710550E+03</totfact>
</mgrwt>
</event>
<event>
 5    0  0.3040647E+000  0.2581869E+03  0.7546771E-02  0.1108237E+00
          2   -1    0    0  502    0 -0.00000000000E+00  0.00000000000E+00  0.21021100901E+04  0.21021100901E+04  0.00000000000E+00 0.  1.
         21   -1    0    0  503  502  0.00000000000E+00 -0.00000000000E+00 -0.25293888216E+03  0.25293888216E+03  0.00000000000E+00 0. -1.
         25    1    1    2    0    0 -0.13092712417E+03 -0.22564347045E+03 -0.94614725781E+02  0.30435806862E+03  0.12500000000E+03 0.  0.
         21    1    1    2  503  501  0.78706799700E+02  0.66605372696E+01 -0.13815692712E+02  0.80187258595E+02  0.00000000000E+00 0. -1.
          2    1    1    2  501    0  0.52220324466E+02  0.21898293318E+03  0.19576016264E+04  0.19705036450E+04  0.00000000000E+00 0.  1.
<mgrwt>
<rscale>  4 0.25818692E+03</rscale>
<asrwt>0</asrwt>
<pdfrwt beam="1">  1       21 0.38913675E-01 0.25818692E+03</pdfrwt>
<pdfrwt beam="2">  1        2 0.32340154E+00 0.25818692E+03</pdfrwt>
<totfact> 0.51864280E+02</totfact>
</mgrwt>
</event>
<event>
 5    0  0.3040647E+000  0.3077547E+03  0.7546771E-02  0.1081427E+00
          2   -1    0    0  502    0 -0.00000000000E+00  0.00000000000E+00  0.61975119027E+03  0.61975119027E+03  0.00000000000E+00 0.  1.
         21   -1    0    0  503  502  0.00000000000E+00 -0.00000000000E+00 -0.53760976810E+03  0.53760976810E+03  0.00000000000E+00 0.  1.
         25    1    1    2    0    0  0.23025677980E+03 -0.14116497104E+03 -0.41390409423E+03  0.50979146022E+03  0.12500000000E+03 0.  0.
         21    1    1    2  503  501  0.21156825303E+02  0.13146118610E+02 -0.36919361266E+02  0.44536175495E+02  0.00000000000E+00 0.  1.
          2    1    1    2  501    0 -0.25141360510E+03  0.12801885243E+03  0.53296487767E+03  0.60303332266E+03  0.00000000000E+00 0.  1.
<mgrwt>
<rscale>  4 0.30775470E+03</rscale>
<asrwt>0</asrwt>
<pdfrwt beam="1">  1       21 0.82709195E-01 0.30775470E+03</pdfrwt>
<pdfrwt beam="2">  1        2 0.95346337E-01 0.30775470E+03</pdfrwt>
<totfact> 0.73763523E+02</totfact>
</mgrwt>
</event>
<event>
 5    0  0.3040647E+000  0.3010484E+03  0.7546771E-02  0.1084718E+00
          2   -1    0    0  502    0 -0.00000000000E+00  0.00000000000E+00  0.27685853499E+04  0.27685853499E+04  0.00000000000E+00 0. -1.
         21   -1    0    0  503  502  0.00000000000E+00 -0.00000000000E+00 -0.60107730995E+02  0.60107730995E+02  0.00000000000E+00 0. -1.
         25    1    1    2    0    0  0.69984745313E+02  0.23931405362E+03  0.11507506307E+04  0.11840697170E+04  0.12500000000E+03 0.  0.
         21    1    1    2  503  501  0.89892660814E+02  0.15094859305E+02  0.43731071486E+02  0.10109872333E+03  0.00000000000E+00 0. -1.
          2    1    1    2  501    0 -0.15987740613E+03 -0.25440891292E+03  0.15139959168E+04  0.15435246406E+04  0.00000000000E+00 0. -1.
<mgrwt>
<rscale>  4 0.30104838E+03</rscale>
<asrwt>0</asrwt>
<pdfrwt beam="1">  1       21 0.92473454E-02 0.30104838E+03</pdfrwt>
<pdfrwt beam="2">  1        2 0.42593611E+00 0.30104838E+03</pdfrwt>
<totfact> 0.32865248E+03</totfact>
</mgrwt>
</event>
<event>
 5    0  0.3040647E+000  0.2801713E+03  0.7546771E-02  0.1095595E+00
         21   -1    0    0  503  502  0.00000000000E+00  0.00000000000E+00  0.11592345261E+03  0.11592345261E+03  0.00000000000E+00 0. -1.
          2   -1    0    0  502    0 -0.00000000000E+00 -0.00000000000E+00 -0.11264759190E+04  0.11264759190E+04  0.00000000000E+00 0.  1.
         25    1    1    2    0    0  0.17160868986E+03  0.15790724233E+03 -0.27171238550E+03  0.37925830254E+03  0.12500000000E+03 0.  0.
         21    1    1    2  503  501  0.24550709938E+02  0.90316118343E+01  0.37196336770E+02  0.45473891848E+02  0.00000000000E+00 0. -1.
          2    1    1    2  501    0 -0.19615939980E+03 -0.16693885417E+03 -0.77603641765E+03  0.81766717721E+03  0.00000000000E+00 0.  1.
<mgrwt>
<rscale>  4 0.28017127E+03</rscale>
<asrwt>0</asrwt>
<pdfrwt beam="1">  1       21 0.17834377E-01 0.28017127E+03</pdfrwt>
<pdfrwt beam="2">  1        2 0.17330399E+00 0.28017127E+03</pdfrwt>
<totfact> 0.78182384E+03</totfact>
</mgrwt>
</event>
<event>
 5    0  0.3040647E+000  0.3408938E+03  0.7546771E-02  0.1066416E+00
         21   -1    0    0  503  502  0.00000000000E+00  0.00000000000E+00  0.45768118135E+03  0.45768118135E+03  0.00000000000E+00 0.  1.
          1   -1    0    0  502    0 -0.00000000000E+00 -0.00000000000E+00 -0.24869048691E+03  0.24869048691E+03  0.00000000000E+00 0.  1.
         25    1    1    2    0    0  0.16130141378E+03 -0.27306666865E+03  0.48897247254E+02  0.34438277019E+03  0.12500000000E+03 0.  0.
         21    1    1    2  503  501 -0.60504631244E+01  0.34931896056E+02  0.39833198983E+02  0.53324752294E+02  0.00000000000E+00 0. -1.
          1    1    1    2  501    0 -0.15525095065E+03  0.23813477259E+03  0.12026024820E+03  0.30866414578E+03  0.00000000000E+00 0.  1.
<mgrwt>
<rscale>  4 0.34089375E+03</rscale>
<asrwt>0</asrwt>
<pdfrwt beam="1">  1       21 0.70412489E-01 0.34089375E+03</pdfrwt>
<pdfrwt beam="2">  1        1 0.38260075E-01 0.34089375E+03</pdfrwt>
<totfact> 0.21157165E+03</totfact>
</mgrwt>
</event>
<event>
 5    0  0.3040647E+000  0.2668789E+03  0.7546771E-02  0.1103079E+00
         -1   -1    0    0    0  501 -0.00000000000E+00  0.00000000000E+00  0.81024386890E+03  0.81024386890E+03  0.00000000000E+00 0. -1.
         21   -1    0    0  501  502  0.00000000000E+00 -0.00000000000E+00 -0.12159413566E+03  0.12159413566E+03  0.00000000000E+00 0. -1.
         25    1    1    2    0    0 -0.18318360362E+03  0.14846919802E+03  0.88296305241E+02  0.28110598164E+03  0.12500000000E+03 0.  0.
         21    1    1    2  503  502  0.40539628130E+02  0.33229167000E+01  0.70302354815E+02  0.81221452319E+02  0.00000000000E+00 0.  1.
         -1    1    1    2    0  503  0.14264397549E+03 -0.15179211472E+03  0.53005107318E+03  0.56951057059E+03  0.00000000000E+00 0. -1.
<mgrwt>
<rscale>  4 0.26687888E+03</rscale>
<asrwt>0</asrwt>
<pdfrwt beam="1">  1       21 0.18706791E-01 0.26687888E+03</pdfrwt>
<pdfrwt beam="2">  1       -1 0.12465290E+00 0.26687888E+03</pdfrwt>
<totfact> 0.14533805E+03</totfact>
</mgrwt>
</event>
<event>
 5    0  0.3040647E+000  0.2444973E+03  0.7546771E-02  0.1116833E+00
          2   -1    0    0  502    0 -0.00000000000E+00  0.00000000000E+00  0.29839044819E+03  0.29839044819E+03  0.00000000000E+00 0. -1.
         21   -1    0    0  503  502  0.00000000000E+00 -0.00000000000E+00 -0.32764017897E+03  0.32764017897E+03  0.00000000000E+00 0. -1.
         25    1    1    2    0    0  0.85475489609E+02  0.19725089081E+03  0.75801307882E+02  0.25997078975E+03  0.12500000000E+03 0.  0.
         21    1    1    2  503  501 -0.49463680763E+02 -0.20351924187E+03 -0.18417310307E+03  0.27890225783E+03  0.00000000000E+00 0. -1.
          2    1    1    2  501    0 -0.36011808846E+02  0.62683510597E+01  0.79122064405E+02  0.87157579573E+02  0.00000000000E+00 0. -1.
<mgrwt>
<rscale>  4 0.24449727E+03</rscale>
<asrwt>0</asrwt>
<pdfrwt beam="1">  1       21 0.50406181E-01 0.24449727E+03</pdfrwt>
<pdfrwt beam="2">  1        2 0.45906223E-01 0.24449727E+03</pdfrwt>
<totfact> 0.50350732E+03</totfact>
</mgrwt>
</event>
<event>
 5    0  0.3040647E+000  0.2675781E+03  0.7546771E-02  0.1102674E+00
         21   -1    0    0  503  502  0.00000000000E+00  0.00000000000E+00  0.15564265566E+03  0.15564265566E+03  0.00000000000E+00 0. -1.
          3   -1    0    0  502    0 -0.00000000000E+00 -0.00000000000E+00 -0.26470519225E+04  0.26470519225E+04  0.00000000000E+00 0.  1.
         25    1    1    2    0    0 -0.47372829917E+02  0.28290347718E+03 -0.81159613484E+03  0.86982288341E+03  0.12500000000E+03 0.  0.
         21    1    1    2  503  501  0.37139278716E+02 -0.22728435080E+03  0.20875620507E+02  0.23124293216E+03  0.00000000000E+00 0. -1.
          3    1    1    2  501    0  0.10233551200E+02 -0.55619126378E+02 -0.17006887525E+04  0.17016287625E+04  0.00000000000E+00 0.  1.
<mgrwt>
<rscale>  4 0.26757807E+03</rscale>
<asrwt>0</asrwt>
<pdfrwt beam="1">  1       21 0.23945024E-01 0.26757807E+03</pdfrwt>
<pdfrwt beam="2">  1        3 0.40723876E+00 0.26757807E+03</pdfrwt>
<totfact> 0.98146082E+00</totfact>
</mgrwt>
</event>
<event>
 5    0  0.3040647E+000  0.2676447E+03  0.7546771E-02  0.1102635E+00
         21   -1    0    0  503  502  0.00000000000E+00  0.00000000000E+00  0.82730589698E+02  0.82730589698E+02  0.00000000000E+00 0.  1.
          2   -1    0    0  502    0 -0.00000000000E+00 -0.00000000000E+00 -0.14853922943E+04  0.14853922943E+04  0.00000000000E+00 0.  1.
         25    1    1    2    0    0 -0.15718079001E+03 -0.14930001438E+03 -0.20622215904E+03  0.32426667100E+03  0.12500000000E+03 0.  0.
         21    1    1    2  503  501 -0.34924628146E+02  0.37911059370E+01 -0.15188174648E+02  0.38272480773E+02  0.00000000000E+00 0. -1.
          2    1    1    2  501    0  0.19210541816E+03  0.14550890844E+03 -0.11812513709E+04  0.12055837322E+04  0.00000000000E+00 0.  1.
<mgrwt>
<rscale>  4 0.26764474E+03</rscale>
<asrwt>0</asrwt>
<pdfrwt beam="1">  1       21 0.12727784E-01 0.26764474E+03</pdfrwt>
<pdfrwt beam="2">  1        2 0.22852187E+00 0.26764474E+03</pdfrwt>
<totfact> 0.92007399E+03</totfact>
</mgrwt>
</event>
<event>
 5    0  0.3040647E+000  0.3787342E+03  0.7546771E-02  0.1051403E+00
         21   -1    0    0  503  502  0.00000000000E+00  0.00000000000E+00  0.81802074043E+03  0.81802074043E+03  0.00000000000E+00 0.  1.
          2   -1    0    0  502    0 -0.00000000000E+00 -0.00000000000E+00 -0.25098330420E+03  0.25098330420E+03  0.00000000000E+00 0.  1.
         25    1    1    2    0    0  0.32533561139E+03 -0.23339042780E+02  0.50986166779E+03  0.61803874574E+03  0.12500000000E+03 0.  0.
         21    1    1    2  503  501  0.41528328561E+02  0.48335499997E+01  0.72085595408E+02  0.83332456726E+02  0.00000000000E+00 0. -1.
          2    1    1    2  501    0 -0.36686393995E+03  0.18505492780E+02 -0.14909826961E+02  0.36763284216E+03  0.00000000000E+00 0.  1.
<mgrwt>
<rscale>  4 0.37873415E+03</rscale>
<asrwt>0</asrwt>
<pdfrwt beam="1">  1       21 0.12584934E+00 0.37873415E+03</pdfrwt>
<pdfrwt beam="2">  1        2 0.38612816E-01 0.37873415E+03</pdfrwt>
<totfact> 0.71298319E+02</totfact>
</mgrwt>
</event>
<event>
 5    0  0.3040647E+000  0.1969193E+03  0.7546771E-02  0.1152365E+00
         21   -1    0    0  503  502  0.00000000000E+00  0.00000000000E+00  0.21357162176E+03  0.21357162176E+03  0.00000000000E+00 0.  1.
          3   -1    0    0  502    0 -0.00000000000E+00 -0.00000000000E+00 -0.13272030722E+04  0.13272030722E+04  0.00000000000E+00 0. -1.
         25    1    1    2    0    0  0.31085549669E+02 -0.25811088220E+03 -0.45367562500E+03  0.53761892789E+03  0.12500000000E+03 0.  0.
         21    1    1    2  503  501 -0.34470967410E+01  0.14532125612E+03  0.13582671122E+03  0.19894483014E+03  0.00000000000E+00 0.  1.
          3    1    1    2  501    0 -0.27638452928E+02  0.11278962608E+03 -0.79578253664E+03  0.80421093592E+03  0.00000000000E+00 0. -1.
<mgrwt>
<rscale>  4 0.19691929E+03</rscale>
<asrwt>0</asrwt>
<pdfrwt beam="1">  1       21 0.32857173E-01 0.19691929E+03</pdfrwt>
<pdfrwt beam="2">  1        3 0.20418508E+00 0.19691929E+03</pdfrwt>
<totfact> 0.67007325E+01</totfact>
</mgrwt>
</event>
<event>
 5    0  0.3040647E+000  0.2356549E+03  0.7546771E-02  0.1122722E+00
         21   -1    0    0  501  502  0.00000000000E+00  0.00000000000E+00  0.25030589156E+03  0.25030589156E+03  0.00000000000E+00 0. -1.
         -2   -1    0    0    0  501 -0.00000000000E+00 -0.00000000000E+00 -0.29295074370E+03  0.29295074370E+03  0.00000000000E+00 0. -1.
         25    1    1    2    0    0 -0.17379277009E+03 -0.12369961165E+03 -0.14417195467E+03  0.28620984150E+03  0.12500000000E+03 0.  0.
         21    1    1    2  503  502  0.10854037464E+02  0.49297464067E+02  0.49077839214E+02  0.70403724295E+02  0.00000000000E+00 0. -1.
         -2    1    1    2    0  503  0.16293873263E+03  0.74402147588E+02  0.52449263323E+02  0.18664306947E+03  0.00000000000E+00 0. -1.
<mgrwt>
<rscale>  4 0.23565485E+03</rscale>
<asrwt>0</asrwt>
<pdfrwt beam="1">  1       21 0.38508599E-01 0.23565485E+03</pdfrwt>
<pdfrwt beam="2">  1       -2 0.45069345E-01 0.23565485E+03</pdfrwt>
<totfact> 0.24595776E+03</totfact>
</mgrwt>
</event>
<event>
 5    0  0.3040647E+000  0.2299745E+03  0.7546771E-02  0.1126658E+00
         21   -1    0    0  503  502  0.00000000000E+00  0.00000000000E+00  0.65267317428E+02  0.65267317428E+02  0.00000000000E+00 0. -1.
          2   -1    0    0  502    0 -0.00000000000E+00 -0.00000000000E+00 -0.11732443038E+04  0.11732443038E+04  0.00000000000E+00 0. -1.
         25    1    1    2    0    0 -0.18328680778E+03 -0.15683296152E+03 -0.56735698717E+03  0.62905451482E+03  0.12500000000E+03 0.  0.
         21    1    1    2  503  501  0.13960286243E+03  0.10303136618E+03 -0.21367620623E+03  0.27524887415E+03  0.00000000000E+00 0. -1.
          2    1    1    2  501    0  0.43683945356E+02  0.53801595336E+02 -0.32694379294E+03  0.33420823223E+03  0.00000000000E+00 0. -1.
<mgrwt>
<rscale>  4 0.22997446E+03</rscale>
<asrwt>0</asrwt>
<pdfrwt beam="1">  1       21 0.10041127E-01 0.22997446E+03</pdfrwt>
<pdfrwt beam="2">  1        2 0.18049911E+00 0.22997446E+03</pdfrwt>
<totfact> 0.21114591E+04</totfact>
</mgrwt>
</event>
<event>
 5    0  0.3590306E+000  0.1721380E+03  0.7546771E-02  0.1175636E+00
          1   -1    0    0  502    0 -0.00000000000E+00  0.00000000000E+00  0.13188405048E+04  0.13188405048E+04  0.00000000000E+00 0. -1.
         21   -1    0    0  503  502  0.00000000000E+00 -0.00000000000E+00 -0.10978783028E+04  0.10978783028E+04  0.00000000000E+00 0.  1.
         25    1    1    2    0    0 -0.58808580209E+02  0.20731678364E+03  0.46620158498E+02  0.25345046274E+03  0.12500000000E+03 0.  0.
         21    1    1    2  503  501  0.34491365319E+02 -0.11091042301E+03 -0.98894381619E+03  0.99574125545E+03  0.00000000000E+00 0.  1.
          1    1    1    2  501    0  0.24317214890E+02 -0.96406360637E+02  0.11632858596E+04  0.11675270894E+04  0.00000000000E+00 0. -1.
<mgrwt>
<rscale>  4 0.17213798E+03</rscale>
<asrwt>0</asrwt>
<pdfrwt beam="1">  1       21 0.16890435E+00 0.17213798E+03</pdfrwt>
<pdfrwt beam="2">  1        1 0.20289854E+00 0.17213798E+03</pdfrwt>
<totfact> 0.23910483E+01</totfact>
</mgrwt>
</event>
<event>
 5    0  0.3040647E+000  0.2700656E+03  0.7546771E-02  0.1101242E+00
          2   -1    0    0  502    0 -0.00000000000E+00  0.00000000000E+00  0.21210291265E+04  0.21210291265E+04  0.00000000000E+00 0. -1.
         21   -1    0    0  503  502  0.00000000000E+00 -0.00000000000E+00 -0.37389137432E+02  0.37389137432E+02  0.00000000000E+00 0. -1.
         25    1    1    2    0    0 -0.19349515837E+03 -0.14096125996E+03  0.68936584267E+03  0.74037876669E+03  0.12500000000E+03 0.  0.
         21    1    1    2  503  501  0.25347668139E+02  0.46373703416E+02  0.15319569179E+03  0.16205537520E+03  0.00000000000E+00 0. -1.
          2    1    1    2  501    0  0.16814749023E+03  0.94587556549E+02  0.12410784547E+04  0.12559841221E+04  0.00000000000E+00 0. -1.
<mgrwt>
<rscale>  4 0.27006565E+03</rscale>
<asrwt>0</asrwt>
<pdfrwt beam="1">  1       21 0.57521767E-02 0.27006565E+03</pdfrwt>
<pdfrwt beam="2">  1        2 0.32631208E+00 0.27006565E+03</pdfrwt>
<totfact> 0.17215378E+04</totfact>
</mgrwt>
</event>
<event>
 5    0  0.3040647E+000  0.2665941E+03  0.7546771E-02  0.1103245E+00
          1   -1    0    0  502    0 -0.00000000000E+00  0.00000000000E+00  0.11709719040E+04  0.11709719040E+04  0.00000000000E+00 0.  1.
         21   -1    0    0  503  502  0.00000000000E+00 -0.00000000000E+00 -0.21677820969E+03  0.21677820969E+03  0.00000000000E+00 0. -1.
         25    1    1    2    0    0  0.27348540876E+03 -0.56454419985E+02  0.81399170824E+03  0.86959120938E+03  0.12500000000E+03 0.  0.
         21    1    1    2  503  501 -0.81836022415E+02  0.55157967699E+02 -0.14448404241E+03  0.17497192483E+03  0.00000000000E+00 0. -1.
          1    1    1    2  501    0 -0.19164938635E+03  0.12964522860E+01  0.28468602851E+03  0.34318697951E+03  0.00000000000E+00 0.  1.
<mgrwt>
<rscale>  4 0.26659414E+03</rscale>
<asrwt>0</asrwt>
<pdfrwt beam="1">  1       21 0.33350495E-01 0.26659414E+03</pdfrwt>
<pdfrwt beam="2">  1        1 0.18014952E+00 0.26659414E+03</pdfrwt>
<totfact> 0.11302448E+03</totfact>
</mgrwt>
</event>
<event>
 5    0  0.3040647E+000  0.1928476E+03  0.7546771E-02  0.1155918E+00
         -1   -1    0    0    0  501 -0.00000000000E+00  0.00000000000E+00  0.46148271911E+03  0.46148271911E+03  0.00000000000E+00 0.  1.
         21   -1    0    0  501  502  0.00000000000E+00 -0.00000000000E+00 -0.93378402718E+03  0.93378402718E+03  0.00000000000E+00 0. -1.
         25    1    1    2    0    0 -0.26879905442E+03 -0.15537342649E+02 -0.68117795965E+02  0.30456423756E+03  0.12500000000E+03 0.  0.
         21    1    1    2  503  502  0.13208910083E+03  0.33615058574E+02 -0.72699954546E+03  0.73966603397E+03  0.00000000000E+00 0. -1.
         -1    1    1    2    0  503  0.13670995359E+03 -0.18077715925E+02  0.32281603335E+03  0.35103647476E+03  0.00000000000E+00 0.  1.
<mgrwt>
<rscale>  4 0.19284758E+03</rscale>
<asrwt>0</asrwt>
<pdfrwt beam="1">  1       21 0.14365908E+00 0.19284758E+03</pdfrwt>
<pdfrwt beam="2">  1       -1 0.70997343E-01 0.19284758E+03</pdfrwt>
<totfact> 0.64974836E+01</totfact>
</mgrwt>
</event>
<event>
 5    0  0.3040647E+000  0.2640161E+03  0.7546771E-02  0.1104754E+00
          2   -1    0    0  502    0 -0.00000000000E+00  0.00000000000E+00  0.23494348758E+04  0.23494348758E+04  0.00000000000E+00 0.  1.
         21   -1    0    0  503  502  0.00000000000E+00 -0.00000000000E+00 -0.56933422474E+02  0.56933422474E+02  0.00000000000E+00 0.  1.
         25    1    1    2    0    0  0.24039984877E+01  0.26166902774E+03  0.48841644561E+03  0.56802472097E+03  0.12500000000E+03 0.  0.
         21    1    1    2  503  501  0.45082941812E+02 -0.19553191166E+03  0.62437399337E+03  0.65582626031E+03  0.00000000000E+00 0.  1.
          2    1    1    2  501    0 -0.47486940299E+02 -0.66137116086E+02  0.11797110143E+04  0.11825173170E+04  0.00000000000E+00 0.  1.
<mgrwt>
<rscale>  4 0.26401613E+03</rscale>
<asrwt>0</asrwt>
<pdfrwt beam="1">  1       21 0.87589899E-02 0.26401613E+03</pdfrwt>
<pdfrwt beam="2">  1        2 0.36145144E+00 0.26401613E+03</pdfrwt>
<totfact> 0.62653975E+03</totfact>
</mgrwt>
</event>
<event>
 5    0  0.3040647E+000  0.2461396E+03  0.7546771E-02  0.1115769E+00
         21   -1    0    0  503  502  0.00000000000E+00  0.00000000000E+00  0.13261309074E+03  0.13261309074E+03  0.00000000000E+00 0.  1.
          2   -1    0    0  502    0 -0.00000000000E+00 -0.00000000000E+00 -0.14109604303E+04  0.14109604303E+04  0.00000000000E+00 0.  1.
         25    1    1    2    0    0 -0.27582499417E+03  0.90099545353E+02 -0.40133137884E+03  0.51077316993E+03  0.12500000000E+03 0.  0.
         21    1    1    2  503  501  0.83612641229E+02 -0.46233173010E+02  0.33452251245E+02  0.10123059406E+03  0.00000000000E+00 0.  1.
          2    1    1    2  501    0  0.19221235294E+03 -0.43866372343E+02 -0.91046821198E+03  0.93156975706E+03  0.00000000000E+00 0.  1.
<mgrwt>
<rscale>  4 0.24613960E+03</rscale>
<asrwt>0</asrwt>
<pdfrwt beam="1">  1       21 0.20402012E-01 0.24613960E+03</pdfrwt>
<pdfrwt beam="2">  1        2 0.21707085E+00 0.24613960E+03</pdfrwt>
<totfact> 0.42559051E+03</totfact>
</mgrwt>
</event>
<event>
 5    0  0.3040647E+000  0.2897201E+03  0.7546771E-02  0.1090495E+00
         21   -1    0    0  503  502  0.00000000000E+00  0.00000000000E+00  0.38523595404E+03  0.38523595404E+03  0.00000000000E+00 0.  1.
          1   -1    0    0  502    0 -0.00000000000E+00 -0.00000000000E+00 -0.44529088831E+03  0.44529088831E+03  0.00000000000E+00 0.  1.
         25    1    1    2    0    0 -0.21169109092E+03  0.21833536004E+03  0.60628890240E+02  0.33434160637E+03  0.12500000000E+03 0.  0.
         21    1    1    2  503  501  0.50454317782E+02 -0.26879123154E+02  0.12994931495E+03  0.14196812988E+03  0.00000000000E+00 0. -1.
          1    1    1    2  501    0  0.16123677314E+03 -0.19145623689E+03 -0.25063313947E+03  0.35421710610E+03  0.00000000000E+00 0.  1.
<mgrwt>
<rscale>  4 0.28972008E+03</rscale>
<asrwt>0</asrwt>
<pdfrwt beam="1">  1       21 0.59267070E-01 0.28972008E+03</pdfrwt>
<pdfrwt beam="2">  1        1 0.68506290E-01 0.28972008E+03</pdfrwt>
<totfact> 0.14874983E+03</totfact>
</mgrwt>
</event>
<event>
 5    0  0.3040647E+000  0.3099421E+03  0.7546771E-02  0.1080374E+00
          2   -1    0    0  502    0 -0.00000000000E+00  0.00000000000E+00  0.12455292664E+04  0.12455292664E+04  0.00000000000E+00 0. -1.
         21   -1    0    0  503  502  0.00000000000E+00 -0.00000000000E+00 -0.16607403860E+03  0.16607403860E+03  0.00000000000E+00 0. -1.
         25    1    1    2    0    0 -0.32202683481E+02 -0.32412840769E+03  0.11852016700E+03  0.36846745783E+03  0.12500000000E+03 0.  0.
         21    1    1    2  503  501 -0.34591017204E+01  0.49435934321E+02  0.73065787195E+01  0.50092545149E+02  0.00000000000E+00 0. -1.
          2    1    1    2  501    0  0.35661785201E+02  0.27469247337E+03  0.95362848212E+03  0.99304330206E+03  0.00000000000E+00 0. -1.
<mgrwt>
<rscale>  4 0.30994214E+03</rscale>
<asrwt>0</asrwt>
<pdfrwt beam="1">  1       21 0.25549853E-01 0.30994214E+03</pdfrwt>
<pdfrwt beam="2">  1        2 0.19161988E+00 0.30994214E+03</pdfrwt>
<totfact> 0.33471414E+03</totfact>
</mgrwt>
</event>
<event>
 5    0  0.3040647E+000  0.2485074E+03  0.7546771E-02  0.1114252E+00
          1   -1    0    0  502    0 -0.00000000000E+00  0.00000000000E+00  0.31796099215E+03  0.31796099215E+03  0.00000000000E+00 0.  1.
         21   -1    0    0  503  502  0.00000000000E+00 -0.00000000000E+00 -0.19499379249E+03  0.19499379249E+03  0.00000000000E+00 0.  1.
         25    1    1    2    0    0  0.11884757675E+03 -0.18626329080E+03  0.32172092808E+02  0.25588826381E+03  0.12500000000E+03 0.  0.
         21    1    1    2  503  501 -0.13521027520E+03  0.15969833945E+03  0.80741685426E+02  0.22428686521E+03  0.00000000000E+00 0.  1.
          1    1    1    2  501    0  0.16362698444E+02  0.26564951347E+02  0.10053421427E+02  0.32779655624E+02  0.00000000000E+00 0.  1.
<mgrwt>
<rscale>  4 0.24850737E+03</rscale>
<asrwt>0</asrwt>
<pdfrwt beam="1">  1       21 0.29999045E-01 0.24850737E+03</pdfrwt>
<pdfrwt beam="2">  1        1 0.48917076E-01 0.24850737E+03</pdfrwt>
<totfact> 0.93823872E+03</totfact>
</mgrwt>
</event>
<event>
 5    0  0.3040647E+000  0.2399496E+03  0.7546771E-02  0.1119826E+00
         -4   -1    0    0    0  501 -0.00000000000E+00  0.00000000000E+00  0.79997293178E+02  0.79997293178E+02  0.00000000000E+00 0.  1.
         21   -1    0    0  501  502  0.00000000000E+00 -0.00000000000E+00 -0.86863365380E+03  0.86863365380E+03  0.00000000000E+00 0. -1.
         25    1    1    2    0    0  0.55107277090E+02  0.21001715474E+03 -0.54526845975E+03  0.60007225437E+03  0.12500000000E+03 0.  0.
         21    1    1    2  503  502 -0.15624801309E+02 -0.13225462590E+02 -0.99564860806E+02  0.10164747308E+03  0.00000000000E+00 0.  1.
         -4    1    1    2    0  503 -0.39482475781E+02 -0.19679169215E+03 -0.14380304007E+03  0.24691121952E+03  0.00000000000E+00 0.  1.
<mgrwt>
<rscale>  4 0.23994962E+03</rscale>
<asrwt>0</asrwt>
<pdfrwt beam="1">  1       21 0.13363594E+00 0.23994962E+03</pdfrwt>
<pdfrwt beam="2">  1       -4 0.12307277E-01 0.23994962E+03</pdfrwt>
<totfact> 0.89705534E+02</totfact>
</mgrwt>
</event>
<event>
 5    0  0.3040647E+000  0.2636052E+03  0.7546771E-02  0.1104996E+00
          1   -1    0    0  502    0 -0.00000000000E+00  0.00000000000E+00  0.20442593452E+04  0.20442593452E+04  0.00000000000E+00 0.  1.
         21   -1    0    0  503  502  0.00000000000E+00 -0.00000000000E+00 -0.50190897295E+02  0.50190897295E+02  0.00000000000E+00 0.  1.
         25    1    1    2    0    0  0.16697769678E+03  0.11128801264E+03  0.41118032160E+03  0.47430035827E+03  0.12500000000E+03 0.  0.
         21    1    1    2  503  501 -0.88273912360E+01  0.75273927097E+02  0.16834419731E+03  0.18461813482E+03  0.00000000000E+00 0.  1.
          1    1    1    2  501    0 -0.15815030554E+03 -0.18656193974E+03  0.14145439290E+04  0.14355317494E+04  0.00000000000E+00 0.  1.
<mgrwt>
<rscale>  4 0.26360524E+03</rscale>
<asrwt>0</asrwt>
<pdfrwt beam="1">  1       21 0.77216781E-02 0.26360524E+03</pdfrwt>
<pdfrwt beam="2">  1        1 0.31450137E+00 0.26360524E+03</pdfrwt>
<totfact> 0.44802578E+03</totfact>
</mgrwt>
</event>
<event>
 5    0  0.3040647E+000  0.2754344E+03  0.7546771E-02  0.1098209E+00
         21   -1    0    0  503  502  0.00000000000E+00  0.00000000000E+00  0.44578080111E+03  0.44578080111E+03  0.00000000000E+00 0.  1.
          2   -1    0    0  502    0 -0.00000000000E+00 -0.00000000000E+00 -0.14948859843E+04  0.14948859843E+04  0.00000000000E+00 0.  1.
         25    1    1    2    0    0  0.15598981824E+03 -0.15619259267E+03  0.87186404746E+02  0.26824507185E+03  0.12500000000E+03 0.  0.
         21    1    1    2  503  501  0.54263430207E+00 -0.34885746347E+02  0.25601120583E+03  0.25837772207E+03  0.00000000000E+00 0.  1.
          2    1    1    2  501    0 -0.15653245255E+03  0.19107833901E+03 -0.13923027938E+04  0.14140439915E+04  0.00000000000E+00 0.  1.
<mgrwt>
<rscale>  4 0.27543441E+03</rscale>
<asrwt>0</asrwt>
<pdfrwt beam="1">  1       21 0.68581661E-01 0.27543441E+03</pdfrwt>
<pdfrwt beam="2">  1        2 0.22998246E+00 0.27543441E+03</pdfrwt>
<totfact> 0.32373778E+02</totfact>
</mgrwt>
</event>
<event>
 5    0  0.3040647E+000  0.5574857E+03  0.7546771E-02  0.9997760E-01
         21   -1    0    0  503  502  0.00000000000E+00  0.00000000000E+00  0.68223349104E+03  0.68223349104E+03  0.00000000000E+00 0. -1.
          1   -1    0    0  502    0 -0.00000000000E+00 -0.00000000000E+00 -0.71795167570E+03  0.71795167570E+03  0.00000000000E+00 0. -1.
         25    1    1    2    0    0 -0.48480162375E+03  0.34396086731E+03  0.24194431425E+03  0.65383770450E+03  0.12500000000E+03 0.  0.
         21    1    1    2  503  501  0.40620345328E+03 -0.25399168073E+03 -0.40486577105E+02  0.48078288474E+03  0.00000000000E+00 0. -1.
          1    1    1    2  501    0  0.78598170472E+02 -0.89969186580E+02 -0.23717592181E+03  0.26556457750E+03  0.00000000000E+00 0. -1.
<mgrwt>
<rscale>  4 0.55748572E+03</rscale>
<asrwt>0</asrwt>
<pdfrwt beam="1">  1       21 0.10495900E+00 0.55748572E+03</pdfrwt>
<pdfrwt beam="2">  1        1 0.11045410E+00 0.55748572E+03</pdfrwt>
<totfact> 0.18945215E+02</totfact>
</mgrwt>
</event>
<event>
 5    0  0.3040647E+000  0.4250418E+03  0.7546771E-02  0.1035438E+00
          2   -1    0    0  502    0 -0.00000000000E+00  0.00000000000E+00  0.92682337472E+03  0.92682337472E+03  0.00000000000E+00 0. -1.
         21   -1    0    0  503  502  0.00000000000E+00 -0.00000000000E+00 -0.26568165659E+03  0.26568165659E+03  0.00000000000E+00 0. -1.
         25    1    1    2    0    0  0.36751446765E+02 -0.40276156442E+03  0.19960333642E+03  0.46801072479E+03  0.12500000000E+03 0.  0.
         21    1    1    2  503  501 -0.15843880535E+03  0.38691140991E+03  0.27229801391E+03  0.49894839667E+03  0.00000000000E+00 0. -1.
          2    1    1    2  501    0  0.12168735859E+03  0.15850154506E+02  0.18924036781E+03  0.22554590984E+03  0.00000000000E+00 0. -1.
<mgrwt>
<rscale>  4 0.42504184E+03</rscale>
<asrwt>0</asrwt>
<pdfrwt beam="1">  1       21 0.40874101E-01 0.42504184E+03</pdfrwt>
<pdfrwt beam="2">  1        2 0.14258821E+00 0.42504184E+03</pdfrwt>
<totfact> 0.19775029E+03</totfact>
</mgrwt>
</event>
<event>
 5    0  0.3040647E+000  0.2861934E+03  0.7546771E-02  0.1092353E+00
         21   -1    0    0  503  502  0.00000000000E+00  0.00000000000E+00  0.87555277342E+02  0.87555277342E+02  0.00000000000E+00 0. -1.
          1   -1    0    0  502    0 -0.00000000000E+00 -0.00000000000E+00 -0.12323101617E+04  0.12323101617E+04  0.00000000000E+00 0. -1.
         25    1    1    2    0    0 -0.17380045182E+03 -0.16621187376E+03 -0.42073591758E+03  0.50047646935E+03  0.12500000000E+03 0.  0.
         21    1    1    2  503  501 -0.49988769561E+02  0.16445707066E+02 -0.65243460178E+01  0.53027402860E+02  0.00000000000E+00 0. -1.
          1    1    1    2  501    0  0.22378922138E+03  0.14976616669E+03 -0.71749462071E+03  0.76636156678E+03  0.00000000000E+00 0. -1.
<mgrwt>
<rscale>  4 0.28619344E+03</rscale>
<asrwt>0</asrwt>
<pdfrwt beam="1">  1       21 0.13470043E-01 0.28619344E+03</pdfrwt>
<pdfrwt beam="2">  1        1 0.18958617E+00 0.28619344E+03</pdfrwt>
<totfact> 0.56797364E+03</totfact>
</mgrwt>
</event>
<event>
 5    0  0.3040647E+000  0.2330702E+03  0.7546771E-02  0.1124497E+00
         -1   -1    0    0    0  501 -0.00000000000E+00  0.00000000000E+00  0.56868731876E+03  0.56868731876E+03  0.00000000000E+00 0. -1.
         21   -1    0    0  501  502  0.00000000000E+00 -0.00000000000E+00 -0.19969078655E+03  0.19969078655E+03  0.00000000000E+00 0. -1.
         25    1    1    2    0    0  0.54904238368E+02 -0.23978348399E+03  0.88061779511E+02  0.28963851884E+03  0.12500000000E+03 0.  0.
         21    1    1    2  503  502 -0.41929715652E+02  0.54564998978E+02 -0.59495429381E+02  0.90967831047E+02  0.00000000000E+00 0. -1.
         -1    1    1    2    0  503 -0.12974522715E+02  0.18521848501E+03  0.34043018209E+03  0.38777175543E+03  0.00000000000E+00 0. -1.
<mgrwt>
<rscale>  4 0.23307021E+03</rscale>
<asrwt>0</asrwt>
<pdfrwt beam="1">  1       21 0.30721660E-01 0.23307021E+03</pdfrwt>
<pdfrwt beam="2">  1       -1 0.87490356E-01 0.23307021E+03</pdfrwt>
<totfact> 0.12673599E+03</totfact>
</mgrwt>
</event>
<event>
 5    0  0.3040647E+000  0.2530738E+03  0.7546771E-02  0.1111378E+00
         21   -1    0    0  503  502  0.00000000000E+00  0.00000000000E+00  0.90560036603E+02  0.90560036603E+02  0.00000000000E+00 0. -1.
          2   -1    0    0  502    0 -0.00000000000E+00 -0.00000000000E+00 -0.90402334259E+03  0.90402334259E+03  0.00000000000E+00 0. -1.
         25    1    1    2    0    0  0.20834266793E+03 -0.60711914550E+02 -0.47574189558E+03  0.53763180250E+03  0.12500000000E+03 0.  0.
         21    1    1    2  503  501 -0.91919812814E+01 -0.45880525406E+02  0.43886721206E+01  0.46997612433E+02  0.00000000000E+00 0.  1.
          2    1    1    2  501    0 -0.19915068665E+03  0.10659243996E+03 -0.34211008253E+03  0.40995396426E+03  0.00000000000E+00 0. -1.
<mgrwt>
<rscale>  4 0.25307382E+03</rscale>
<asrwt>0</asrwt>
<pdfrwt beam="1">  1       21 0.13932314E-01 0.25307382E+03</pdfrwt>
<pdfrwt beam="2">  1        2 0.13908051E+00 0.25307382E+03</pdfrwt>
<totfact> 0.16959464E+04</totfact>
</mgrwt>
</event>
<event>
 5    0  0.3040647E+000  0.2601769E+03  0.7546771E-02  0.1107037E+00
         21   -1    0    0  501  502  0.00000000000E+00  0.00000000000E+00  0.89458453398E+03  0.89458453398E+03  0.00000000000E+00 0.  1.
         -3   -1    0    0    0  501 -0.00000000000E+00 -0.00000000000E+00 -0.25385551963E+03  0.25385551963E+03  0.00000000000E+00 0.  1.
         25    1    1    2    0    0  0.85787226411E+02  0.22313385022E+03 -0.72697987419E+02  0.27938890583E+03  0.12500000000E+03 0.  0.
         21    1    1    2  503  502 -0.10386239435E+03 -0.20216803867E+03  0.77173346113E+03  0.80450720808E+03  0.00000000000E+00 0.  1.
         -3    1    1    2    0  503  0.18075167938E+02 -0.20965811552E+02 -0.58306459358E+02  0.64543939707E+02  0.00000000000E+00 0.  1.
<mgrwt>
<rscale>  4 0.26017692E+03</rscale>
<asrwt>0</asrwt>
<pdfrwt beam="1">  1       21 0.13762839E+00 0.26017692E+03</pdfrwt>
<pdfrwt beam="2">  1       -3 0.39054696E-01 0.26017692E+03</pdfrwt>
<totfact> 0.11688520E+02</totfact>
</mgrwt>
</event>
<event>
 5    0  0.3040647E+000  0.1830518E+03  0.7546771E-02  0.1164882E+00
          2   -1    0    0  502    0 -0.00000000000E+00  0.00000000000E+00  0.72784999423E+02  0.72784999423E+02  0.00000000000E+00 0.  1.
         21   -1    0    0  503  502  0.00000000000E+00 -0.00000000000E+00 -0.27046826626E+04  0.27046826626E+04  0.00000000000E+00 0.  1.
         25    1    1    2    0    0  0.22558874046E+03  0.71799646797E+02 -0.36680449382E+03  0.45411012518E+03  0.12500000000E+03 0.  0.
         21    1    1    2  503  501 -0.12891863811E+03 -0.11352143119E+02 -0.21728537974E+04  0.21767045071E+04  0.00000000000E+00 0.  1.
          2    1    1    2  501    0 -0.96670102351E+02 -0.60447503678E+02 -0.92239371940E+02  0.14665302972E+03  0.00000000000E+00 0.  1.
<mgrwt>
<rscale>  4 0.18305182E+03</rscale>
<asrwt>0</asrwt>
<pdfrwt beam="1">  1       21 0.41610491E+00 0.18305182E+03</pdfrwt>
<pdfrwt beam="2">  1        2 0.11197695E-01 0.18305182E+03</pdfrwt>
<totfact> 0.47236401E+01</totfact>
</mgrwt>
</event>
<event>
 5    0  0.3040647E+000  0.2779589E+03  0.7546771E-02  0.1096809E+00
         21   -1    0    0  503  502  0.00000000000E+00  0.00000000000E+00  0.31391448418E+02  0.31391448418E+02  0.00000000000E+00 0. -1.
          2   -1    0    0  502    0 -0.00000000000E+00 -0.00000000000E+00 -0.25494413448E+04  0.25494413448E+04  0.00000000000E+00 0. -1.
         25    1    1    2    0    0  0.16498255602E+03  0.18551788329E+03 -0.17355070987E+04  0.17576251075E+04  0.12500000000E+03 0.  0.
         21    1    1    2  503  501 -0.18685142133E+02 -0.15099896717E+02 -0.33550016179E+02  0.41264330881E+02  0.00000000000E+00 0. -1.
          2    1    1    2  501    0 -0.14629741389E+03 -0.17041798658E+03 -0.74899278151E+03  0.78194335486E+03  0.00000000000E+00 0. -1.
<mgrwt>
<rscale>  4 0.27795886E+03</rscale>
<asrwt>0</asrwt>
<pdfrwt beam="1">  1       21 0.48294523E-02 0.27795886E+03</pdfrwt>
<pdfrwt beam="2">  1        2 0.39222185E+00 0.27795886E+03</pdfrwt>
<totfact> 0.13611411E+04</totfact>
</mgrwt>
</event>
<event>
 5    0  0.3040647E+000  0.4533306E+03  0.7546771E-02  0.1026733E+00
          2   -1    0    0  502    0 -0.00000000000E+00  0.00000000000E+00  0.21000193839E+04  0.21000193839E+04  0.00000000000E+00 0. -1.
         21   -1    0    0  503  502  0.00000000000E+00 -0.00000000000E+00 -0.52222515369E+03  0.52222515369E+03  0.00000000000E+00 0. -1.
         25    1    1    2    0    0 -0.39005499372E+03  0.94679208195E+02 -0.39268627912E+03  0.57526912346E+03  0.12500000000E+03 0.  0.
         21    1    1    2  503  501 -0.30241805534E+02  0.26765805092E+02  0.14884781171E+02  0.43041048253E+02  0.00000000000E+00 0. -1.
          2    1    1    2  501    0  0.42029679926E+03 -0.12144501329E+03  0.19555957282E+04  0.20039343659E+04  0.00000000000E+00 0. -1.
<mgrwt>
<rscale>  4 0.45333061E+03</rscale>
<asrwt>0</asrwt>
<pdfrwt beam="1">  1       21 0.80342333E-01 0.45333061E+03</pdfrwt>
<pdfrwt beam="2">  1        2 0.32307990E+00 0.45333061E+03</pdfrwt>
<totfact> 0.98870149E+01</totfact>
</mgrwt>
</event>
<event>
 5    0  0.3040647E+000  0.5959566E+03  0.7546771E-02  0.9913830E-01
          3   -1    0    0  502    0 -0.00000000000E+00  0.00000000000E+00  0.80075263034E+03  0.80075263034E+03  0.00000000000E+00 0.  1.
         21   -1    0    0  503  502  0.00000000000E+00 -0.00000000000E+00 -0.49408055493E+03  0.49408055493E+03  0.00000000000E+00 0. -1.
         25    1    1    2    0    0  0.42122795286E+03 -0.37749094086E+03  0.12326231508E+03  0.59224234653E+03  0.12500000000E+03 0.  0.
         21    1    1    2  503  501  0.64233652562E+02  0.24982231405E+02 -0.15289937190E+02  0.70596431827E+02  0.00000000000E+00 0.  1.
          3    1    1    2  501    0 -0.48546160542E+03  0.35250870946E+03  0.19869969752E+03  0.63199440692E+03  0.00000000000E+00 0.  1.
<mgrwt>
<rscale>  4 0.59595661E+03</rscale>
<asrwt>0</asrwt>
<pdfrwt beam="1">  1       21 0.76012393E-01 0.59595661E+03</pdfrwt>
<pdfrwt beam="2">  1        3 0.12319271E+00 0.59595661E+03</pdfrwt>
<totfact> 0.38049785E+01</totfact>
</mgrwt>
</event>
<event>
 5    0  0.3040647E+000  0.2351116E+03  0.7546771E-02  0.1123093E+00
          1   -1    0    0  502    0 -0.00000000000E+00  0.00000000000E+00  0.26025296538E+03  0.26025296538E+03  0.00000000000E+00 0.  1.
         21   -1    0    0  503  502  0.00000000000E+00 -0.00000000000E+00 -0.86035578097E+03  0.86035578097E+03  0.00000000000E+00 0.  1.
         25    1    1    2    0    0  0.19883591300E+03 -0.82063197801E+02  0.10618007899E+02  0.24901371614E+03  0.12500000000E+03 0.  0.
         21    1    1    2  503  501 -0.11014702815E+02  0.46090239493E+02 -0.66977509717E+03  0.67144941332E+03  0.00000000000E+00 0.  1.
          1    1    1    2  501    0 -0.18782121018E+03  0.35972958309E+02  0.59054273686E+02  0.20014561690E+03  0.00000000000E+00 0.  1.
<mgrwt>
<rscale>  4 0.23511165E+03</rscale>
<asrwt>0</asrwt>
<pdfrwt beam="1">  1       21 0.13236243E+00 0.23511165E+03</pdfrwt>
<pdfrwt beam="2">  1        1 0.40038918E-01 0.23511165E+03</pdfrwt>
<totfact> 0.46076720E+02</totfact>
</mgrwt>
</event>
<event>
 5    0  0.3040647E+000  0.2682095E+03  0.7546771E-02  0.1102309E+00
         21   -1    0    0  503  502  0.00000000000E+00  0.00000000000E+00  0.10554957568E+03  0.10554957568E+03  0.00000000000E+00 0. -1.
          3   -1    0    0  502    0 -0.00000000000E+00 -0.00000000000E+00 -0.12633524220E+04  0.12633524220E+04  0.00000000000E+00 0.  1.
         25    1    1    2    0    0 -0.23558953007E+03  0.52191659006E+02 -0.13986761614E+03  0.30563760566E+03  0.12500000000E+03 0.  0.
         21    1    1    2  503  501  0.35466439657E+02  0.59291502361E+02 -0.14268344093E+03  0.15853048574E+03  0.00000000000E+00 0.  1.
          3    1    1    2  501    0  0.20012309041E+03 -0.11148316137E+03 -0.87525178922E+03  0.90473390625E+03  0.00000000000E+00 0.  1.
<mgrwt>
<rscale>  4 0.26820954E+03</rscale>
<asrwt>0</asrwt>
<pdfrwt beam="1">  1       21 0.16238395E-01 0.26820954E+03</pdfrwt>
<pdfrwt beam="2">  1        3 0.19436193E+00 0.26820954E+03</pdfrwt>
<totfact> 0.28801149E+02</totfact>
</mgrwt>
</event>
<event>
 5    0  0.3040647E+000  0.2691005E+03  0.7546771E-02  0.1101796E+00
         21   -1    0    0  503  502  0.00000000000E+00  0.00000000000E+00  0.50219985492E+03  0.50219985492E+03  0.00000000000E+00 0.  1.
          2   -1    0    0  502    0 -0.00000000000E+00 -0.00000000000E+00 -0.82927292326E+03  0.82927292326E+03  0.00000000000E+00 0. -1.
         25    1    1    2    0    0 -0.12910035372E+03  0.25399806486E+03 -0.46232377528E+03  0.55727030378E+03  0.12500000000E+03 0.  0.
         21    1    1    2  503  501 -0.58479072968E+01 -0.96322458539E+02  0.41488901661E+03  0.42596374275E+03  0.00000000000E+00 0.  1.
          2    1    1    2  501    0  0.13494826102E+03 -0.15767560632E+03 -0.27963830967E+03  0.34823873164E+03  0.00000000000E+00 0. -1.
<mgrwt>
<rscale>  4 0.26910051E+03</rscale>
<asrwt>0</asrwt>
<pdfrwt beam="1">  1       21 0.77261516E-01 0.26910051E+03</pdfrwt>
<pdfrwt beam="2">  1        2 0.12758045E+00 0.26910051E+03</pdfrwt>
<totfact> 0.61135146E+02</totfact>
</mgrwt>
</event>
<event>
 5    0  0.3040647E+000  0.2825780E+03  0.7546771E-02  0.1094289E+00
          2   -1    0    0  502    0 -0.00000000000E+00  0.00000000000E+00  0.19208314944E+04  0.19208314944E+04  0.00000000000E+00 0.  1.
         21   -1    0    0  503  502  0.00000000000E+00 -0.00000000000E+00 -0.15961616528E+03  0.15961616528E+03  0.00000000000E+00 0. -1.
         25    1    1    2    0    0 -0.20524416831E+03 -0.10851838928E+03  0.13900654086E+03  0.29807587598E+03  0.12500000000E+03 0.  0.
         21    1    1    2  503  501 -0.26971255918E+02  0.66832770102E+00 -0.67855886644E+02  0.73022713315E+02  0.00000000000E+00 0. -1.
          2    1    1    2  501    0  0.23221542423E+03  0.10785006158E+03  0.16900646749E+04  0.17093490704E+04  0.00000000000E+00 0.  1.
<mgrwt>
<rscale>  4 0.28257802E+03</rscale>
<asrwt>0</asrwt>
<pdfrwt beam="1">  1       21 0.24556335E-01 0.28257802E+03</pdfrwt>
<pdfrwt beam="2">  1        2 0.29551252E+00 0.28257802E+03</pdfrwt>
<totfact> 0.15820104E+03</totfact>
</mgrwt>
</event>
<event>
 5    0  0.3040647E+000  0.2667376E+03  0.7546771E-02  0.1103161E+00
          2   -1    0    0  502    0 -0.00000000000E+00  0.00000000000E+00  0.18667955126E+03  0.18667955126E+03  0.00000000000E+00 0. -1.
         21   -1    0    0  503  502  0.00000000000E+00 -0.00000000000E+00 -0.50059566064E+03  0.50059566064E+03  0.00000000000E+00 0.  1.
         25    1    1    2    0    0 -0.23408739431E+03  0.16636648991E+02 -0.13056222104E+03  0.29621812880E+03  0.12500000000E+03 0.  0.
         21    1    1    2  503  501  0.41286255105E+01  0.44463804612E+02 -0.14288772412E+03  0.14970296314E+03  0.00000000000E+00 0.  1.
          2    1    1    2  501    0  0.22995876880E+03 -0.61100453603E+02 -0.40466164222E+02  0.24135411997E+03  0.00000000000E+00 0. -1.
<mgrwt>
<rscale>  4 0.26673755E+03</rscale>
<asrwt>0</asrwt>
<pdfrwt beam="1">  1       21 0.77014716E-01 0.26673755E+03</pdfrwt>
<pdfrwt beam="2">  1        2 0.28719931E-01 0.26673755E+03</pdfrwt>
<totfact> 0.33160902E+03</totfact>
</mgrwt>
</event>
<event>
 5    0  0.3040647E+000  0.2374871E+03  0.7546771E-02  0.1121478E+00
         21   -1    0    0  503  502  0.00000000000E+00  0.00000000000E+00  0.18967017042E+03  0.18967017042E+03  0.00000000000E+00 0.  1.
          1   -1    0    0  502    0 -0.00000000000E+00 -0.00000000000E+00 -0.13502033136E+04  0.13502033136E+04  0.00000000000E+00 0.  1.
         25    1    1    2    0    0  0.21184446701E+03 -0.96629973695E+02  0.32196191964E+02  0.26622739302E+03  0.12500000000E+03 0.  0.
         21    1    1    2  503  501 -0.31529735265E+02  0.95611208599E+01  0.23865695800E+02  0.40683051434E+02  0.00000000000E+00 0. -1.
          1    1    1    2  501    0 -0.18031473174E+03  0.87068852835E+02 -0.12165950309E+04  0.12329630395E+04  0.00000000000E+00 0.  1.
<mgrwt>
<rscale>  4 0.23748710E+03</rscale>
<asrwt>0</asrwt>
<pdfrwt beam="1">  1       21 0.29180027E-01 0.23748710E+03</pdfrwt>
<pdfrwt beam="2">  1        1 0.20772358E+00 0.23748710E+03</pdfrwt>
<totfact> 0.11211186E+03</totfact>
</mgrwt>
</event>
<event>
 5    0  0.3040647E+000  0.3069237E+03  0.7546771E-02  0.1081830E+00
          1   -1    0    0  502    0 -0.00000000000E+00  0.00000000000E+00  0.79879237624E+03  0.79879237624E+03  0.00000000000E+00 0. -1.
         21   -1    0    0  503  502  0.00000000000E+00 -0.00000000000E+00 -0.57793829006E+03  0.57793829006E+03  0.00000000000E+00 0.  1.
         25    1    1    2    0    0  0.14004970780E+03 -0.19091059322E+03 -0.23366087706E+03  0.35536344878E+03  0.12500000000E+03 0.  0.
         21    1    1    2  503  501  0.55622032915E+02 -0.15685541031E+02 -0.25261026092E+03  0.25913662548E+03  0.00000000000E+00 0.  1.
          1    1    1    2  501    0 -0.19567174071E+03  0.20659613426E+03  0.70712522416E+03  0.76223059204E+03  0.00000000000E+00 0. -1.
<mgrwt>
<rscale>  4 0.30692373E+03</rscale>
<asrwt>0</asrwt>
<pdfrwt beam="1">  1       21 0.88913583E-01 0.30692373E+03</pdfrwt>
<pdfrwt beam="2">  1        1 0.12289114E+00 0.30692373E+03</pdfrwt>
<totfact> 0.26087980E+02</totfact>
</mgrwt>
</event>
<event>
 5    0  0.3040647E+000  0.1987756E+03  0.7546771E-02  0.1150776E+00
         21   -1    0    0  501  502  0.00000000000E+00  0.00000000000E+00  0.80630036355E+02  0.80630036355E+02  0.00000000000E+00 0.  1.
         -4   -1    0    0    0  501 -0.00000000000E+00 -0.00000000000E+00 -0.13737604324E+04  0.13737604324E+04  0.00000000000E+00 0.  1.
         25    1    1    2    0    0  0.18124832267E+03 -0.90507188930E+02 -0.14468183624E+03  0.27856837483E+03  0.12500000000E+03 0.  0.
         21    1    1    2  503  502 -0.45048897876E+02  0.25803722826E+02 -0.71452215470E+02  0.88321313436E+02  0.00000000000E+00 0. -1.
         -4    1    1    2    0  503 -0.13619942480E+03  0.64703466104E+02 -0.10769963443E+04  0.10875007805E+04  0.00000000000E+00 0.  1.
<mgrwt>
<rscale>  4 0.19877562E+03</rscale>
<asrwt>0</asrwt>
<pdfrwt beam="1">  1       21 0.12404620E-01 0.19877562E+03</pdfrwt>
<pdfrwt beam="2">  1       -4 0.21134777E+00 0.19877562E+03</pdfrwt>
<totfact> 0.28681787E+02</totfact>
</mgrwt>
</event>
<event>
 5    0  0.3040647E+000  0.3115196E+03  0.7546771E-02  0.1079620E+00
         21   -1    0    0  503  502  0.00000000000E+00  0.00000000000E+00  0.12404043915E+03  0.12404043915E+03  0.00000000000E+00 0.  1.
          2   -1    0    0  502    0 -0.00000000000E+00 -0.00000000000E+00 -0.19427912756E+04  0.19427912756E+04  0.00000000000E+00 0. -1.
         25    1    1    2    0    0  0.13379285709E+03  0.25968782121E+03 -0.17693298801E+03  0.36368746932E+03  0.12500000000E+03 0.  0.
         21    1    1    2  503  501 -0.34398723813E+02  0.70885771054E+01  0.16892484802E+01  0.35162105821E+02  0.00000000000E+00 0.  1.
          2    1    1    2  501    0 -0.99394133279E+02 -0.26677639831E+03 -0.16435070969E+04  0.16679821396E+04  0.00000000000E+00 0. -1.
<mgrwt>
<rscale>  4 0.31151965E+03</rscale>
<asrwt>0</asrwt>
<pdfrwt beam="1">  1       21 0.19083144E-01 0.31151965E+03</pdfrwt>
<pdfrwt beam="2">  1        2 0.29889097E+00 0.31151965E+03</pdfrwt>
<totfact> 0.24591177E+03</totfact>
</mgrwt>
</event>
<event>
 5    0  0.3040647E+000  0.2743123E+03  0.7546771E-02  0.1098837E+00
          2   -1    0    0  502    0 -0.00000000000E+00  0.00000000000E+00  0.20250479560E+04  0.20250479560E+04  0.00000000000E+00 0.  1.
         21   -1    0    0  503  502  0.00000000000E+00 -0.00000000000E+00 -0.87101253220E+02  0.87101253220E+02  0.00000000000E+00 0.  1.
         25    1    1    2    0    0  0.33274021523E+03  0.43177286097E+02  0.72634195042E+03  0.80980118412E+03  0.12500000000E+03 0.  0.
         21    1    1    2  503  501 -0.13349884437E+03  0.57262528153E+02  0.12071412236E+03  0.18887254410E+03  0.00000000000E+00 0.  1.
          2    1    1    2  501    0 -0.19924137086E+03 -0.10043981425E+03  0.10908906300E+04  0.11134754810E+04  0.00000000000E+00 0.  1.
<mgrwt>
<rscale>  4 0.27431230E+03</rscale>
<asrwt>0</asrwt>
<pdfrwt beam="1">  1       21 0.13400194E-01 0.27431230E+03</pdfrwt>
<pdfrwt beam="2">  1        2 0.31154581E+00 0.27431230E+03</pdfrwt>
<totfact> 0.43372932E+03</totfact>
</mgrwt>
</event>
<event>
 5    0  0.3040647E+000  0.2828798E+03  0.7546771E-02  0.1094126E+00
         21   -1    0    0  503  502  0.00000000000E+00  0.00000000000E+00  0.26357400372E+03  0.26357400372E+03  0.00000000000E+00 0. -1.
          2   -1    0    0  502    0 -0.00000000000E+00 -0.00000000000E+00 -0.10955020379E+04  0.10955020379E+04  0.00000000000E+00 0.  1.
         25    1    1    2    0    0 -0.22490295280E+02 -0.22555302309E+03  0.14380139470E+03  0.29611453987E+03  0.12500000000E+03 0.  0.
         21    1    1    2  503  501 -0.23915897433E+01 -0.28988429249E+02  0.19746667689E+02  0.35156501769E+02  0.00000000000E+00 0.  1.
          2    1    1    2  501    0  0.24881885023E+02  0.25454145234E+03 -0.99547609660E+03  0.10278050000E+04  0.00000000000E+00 0.  1.
<mgrwt>
<rscale>  4 0.28287985E+03</rscale>
<asrwt>0</asrwt>
<pdfrwt beam="1">  1       21 0.40549847E-01 0.28287985E+03</pdfrwt>
<pdfrwt beam="2">  1        2 0.16853877E+00 0.28287985E+03</pdfrwt>
<totfact> 0.16476534E+03</totfact>
</mgrwt>
</event>
<event>
 5    0  0.3040647E+000  0.2936802E+03  0.7546771E-02  0.1088443E+00
          2   -1    0    0  502    0 -0.00000000000E+00  0.00000000000E+00  0.23565278989E+04  0.23565278989E+04  0.00000000000E+00 0. -1.
         21   -1    0    0  503  502  0.00000000000E+00 -0.00000000000E+00 -0.23289235177E+03  0.23289235177E+03  0.00000000000E+00 0.  1.
         25    1    1    2    0    0  0.56981241507E+02 -0.23298119684E+03  0.21019295815E+03  0.34253931106E+03  0.12500000000E+03 0.  0.
         21    1    1    2  503  501 -0.90705275902E+02 -0.36047418743E+02 -0.14272812394E+03  0.17291090434E+03  0.00000000000E+00 0.  1.
          2    1    1    2  501    0  0.33724034395E+02  0.26902861559E+03  0.20561707129E+04  0.20739700352E+04  0.00000000000E+00 0. -1.
<mgrwt>
<rscale>  4 0.29368018E+03</rscale>
<asrwt>0</asrwt>
<pdfrwt beam="1">  1       21 0.35829594E-01 0.29368018E+03</pdfrwt>
<pdfrwt beam="2">  1        2 0.36254274E+00 0.29368018E+03</pdfrwt>
<totfact> 0.43906859E+02</totfact>
</mgrwt>
</event>
<event>
 5    0  0.3040647E+000  0.1854496E+03  0.7546771E-02  0.1162631E+00
         21   -1    0    0  503  502  0.00000000000E+00  0.00000000000E+00  0.99427171895E+02  0.99427171895E+02  0.00000000000E+00 0. -1.
          2   -1    0    0  502    0 -0.00000000000E+00 -0.00000000000E+00 -0.11532722775E+04  0.11532722775E+04  0.00000000000E+00 0.  1.
         25    1    1    2    0    0 -0.38157105518E+02  0.20674784634E+03 -0.16178884545E+03  0.29325972648E+03  0.12500000000E+03 0.  0.
         21    1    1    2  503  501 -0.27091710064E+02 -0.91935720480E+02 -0.51950891867E+02  0.10901849669E+03  0.00000000000E+00 0. -1.
          2    1    1    2  501    0  0.65248815582E+02 -0.11481212586E+03 -0.84010536825E+03  0.85042122618E+03  0.00000000000E+00 0.  1.
<mgrwt>
<rscale>  4 0.18544964E+03</rscale>
<asrwt>0</asrwt>
<pdfrwt beam="1">  1       21 0.15296487E-01 0.18544964E+03</pdfrwt>
<pdfrwt beam="2">  1        2 0.17742651E+00 0.18544964E+03</pdfrwt>
<totfact> 0.10297540E+04</totfact>
</mgrwt>
</event>
<event>
 5    0  0.3040647E+000  0.2605550E+03  0.7546771E-02  0.1106810E+00
         21   -1    0    0  503  502  0.00000000000E+00  0.00000000000E+00  0.36874232959E+03  0.36874232959E+03  0.00000000000E+00 0.  1.
          2   -1    0    0  502    0 -0.00000000000E+00 -0.00000000000E+00 -0.18333127882E+04  0.18333127882E+04  0.00000000000E+00 0.  1.
         25    1    1    2    0    0 -0.11680953291E+02  0.24796314277E+03  0.83388995235E+02  0.29017389505E+03  0.12500000000E+03 0.  0.
         21    1    1    2  503  501 -0.20024827689E+02 -0.22314823378E+02  0.17316346356E+03  0.17573995043E+03  0.00000000000E+00 0.  1.
          2    1    1    2  501    0  0.31705780979E+02 -0.22564831939E+03 -0.17211229174E+04  0.17361412723E+04  0.00000000000E+00 0.  1.
<mgrwt>
<rscale>  4 0.26055500E+03</rscale>
<asrwt>0</asrwt>
<pdfrwt beam="1">  1       21 0.56729588E-01 0.26055500E+03</pdfrwt>
<pdfrwt beam="2">  1        2 0.28204812E+00 0.26055500E+03</pdfrwt>
<totfact> 0.32702061E+02</totfact>
</mgrwt>
</event>
<event>
 5    0  0.3040647E+000  0.2414264E+03  0.7546771E-02  0.1118846E+00
          1   -1    0    0  502    0 -0.00000000000E+00  0.00000000000E+00  0.60397867050E+03  0.60397867050E+03  0.00000000000E+00 0.  1.
         21   -1    0    0  503  502  0.00000000000E+00 -0.00000000000E+00 -0.30100790823E+03  0.30100790823E+03  0.00000000000E+00 0.  1.
         25    1    1    2    0    0 -0.21164523376E+03  0.68063908975E+02 -0.10082820291E+03  0.27425850430E+03  0.12500000000E+03 0.  0.
         21    1    1    2  503  501  0.15061988868E+03 -0.12940638348E+03 -0.18704995202E+02  0.19945485654E+03  0.00000000000E+00 0.  1.
          1    1    1    2  501    0  0.61025345087E+02  0.61342474505E+02  0.42250396039E+03  0.43127321788E+03  0.00000000000E+00 0.  1.
<mgrwt>
<rscale>  4 0.24142639E+03</rscale>
<asrwt>0</asrwt>
<pdfrwt beam="1">  1       21 0.46308909E-01 0.24142639E+03</pdfrwt>
<pdfrwt beam="2">  1        1 0.92919795E-01 0.24142639E+03</pdfrwt>
<totfact> 0.16920301E+03</totfact>
</mgrwt>
</event>
<event>
 5    0  0.3040647E+000  0.2401040E+03  0.7546771E-02  0.1119724E+00
          3   -1    0    0  502    0 -0.00000000000E+00  0.00000000000E+00  0.24731866714E+03  0.24731866714E+03  0.00000000000E+00 0.  1.
         21   -1    0    0  503  502  0.00000000000E+00 -0.00000000000E+00 -0.25519033779E+03  0.25519033779E+03  0.00000000000E+00 0. -1.
         25    1    1    2    0    0  0.14113842072E+03 -0.14500335635E+03 -0.39944363917E+02  0.24117748519E+03  0.12500000000E+03 0.  0.
         21    1    1    2  503  501 -0.12616406470E+02 -0.16957668609E+02 -0.37613126710E+02  0.43144913232E+02  0.00000000000E+00 0. -1.
          3    1    1    2  501    0 -0.12852201425E+03  0.16196102496E+03  0.69685819973E+02  0.21818660650E+03  0.00000000000E+00 0.  1.
<mgrwt>
<rscale>  4 0.24010401E+03</rscale>
<asrwt>0</asrwt>
<pdfrwt beam="1">  1       21 0.39260052E-01 0.24010401E+03</pdfrwt>
<pdfrwt beam="2">  1        3 0.38049026E-01 0.24010401E+03</pdfrwt>
<totfact> 0.21079879E+03</totfact>
</mgrwt>
</event>
<event>
 5    0  0.3040647E+000  0.2382532E+03  0.7546771E-02  0.1120962E+00
          1   -1    0    0  502    0 -0.00000000000E+00  0.00000000000E+00  0.54470281731E+03  0.54470281731E+03  0.00000000000E+00 0. -1.
         21   -1    0    0  503  502  0.00000000000E+00 -0.00000000000E+00 -0.39932044535E+03  0.39932044535E+03  0.00000000000E+00 0. -1.
         25    1    1    2    0    0  0.23901086524E+02  0.20395148323E+03  0.41551343268E+03  0.48004570843E+03  0.12500000000E+03 0.  0.
         21    1    1    2  503  501 -0.17003559953E+03 -0.12251268002E+03 -0.16030205393E+03  0.26385263002E+03  0.00000000000E+00 0. -1.
          1    1    1    2  501    0  0.14613451301E+03 -0.81438803209E+02 -0.10982900678E+03  0.20012492421E+03  0.00000000000E+00 0. -1.
<mgrwt>
<rscale>  4 0.23825323E+03</rscale>
<asrwt>0</asrwt>
<pdfrwt beam="1">  1       21 0.61433915E-01 0.23825323E+03</pdfrwt>
<pdfrwt beam="2">  1        1 0.83800433E-01 0.23825323E+03</pdfrwt>
<totfact> 0.10728164E+03</totfact>
</mgrwt>
</event>
<event>
 5    0  0.3040647E+000  0.2716199E+03  0.7546771E-02  0.1100356E+00
          2   -1    0    0  502    0 -0.00000000000E+00  0.00000000000E+00  0.93461890674E+03  0.93461890674E+03  0.00000000000E+00 0.  1.
         21   -1    0    0  503  502  0.00000000000E+00 -0.00000000000E+00 -0.44062492221E+03  0.44062492221E+03  0.00000000000E+00 0.  1.
         25    1    1    2    0    0  0.23141266524E+03  0.36218481201E+01  0.52493773949E+03  0.58715378715E+03  0.12500000000E+03 0.  0.
         21    1    1    2  503  501  0.22964691488E+02  0.55342761394E+01 -0.36630665991E+03  0.36706753379E+03  0.00000000000E+00 0.  1.
          2    1    1    2  501    0 -0.25437735673E+03 -0.91561242595E+01  0.33536290495E+03  0.42102250800E+03  0.00000000000E+00 0.  1.
<mgrwt>
<rscale>  4 0.27161994E+03</rscale>
<asrwt>0</asrwt>
<pdfrwt beam="1">  1       21 0.67788450E-01 0.27161994E+03</pdfrwt>
<pdfrwt beam="2">  1        2 0.14378752E+00 0.27161994E+03</pdfrwt>
<totfact> 0.69785082E+02</totfact>
</mgrwt>
</event>
<event>
 5    0  0.3040647E+000  0.2984187E+03  0.7546771E-02  0.1086034E+00
         21   -1    0    0  503  502  0.00000000000E+00  0.00000000000E+00  0.74199012267E+03  0.74199012267E+03  0.00000000000E+00 0. -1.
          2   -1    0    0  502    0 -0.00000000000E+00 -0.00000000000E+00 -0.15557838516E+04  0.15557838516E+04  0.00000000000E+00 0. -1.
         25    1    1    2    0    0 -0.71835827101E+02 -0.25480543399E+03 -0.83144336056E+03  0.88148128572E+03  0.12500000000E+03 0.  0.
         21    1    1    2  503  501 -0.20365210070E+03  0.76533703338E+02  0.66002700505E+03  0.69495843995E+03  0.00000000000E+00 0. -1.
          2    1    1    2  501    0  0.27548792780E+03  0.17827173066E+03 -0.64237737339E+03  0.72133424857E+03  0.00000000000E+00 0. -1.
<mgrwt>
<rscale>  4 0.29841872E+03</rscale>
<asrwt>0</asrwt>
<pdfrwt beam="1">  1       21 0.11415233E+00 0.29841872E+03</pdfrwt>
<pdfrwt beam="2">  1        2 0.23935136E+00 0.29841872E+03</pdfrwt>
<totfact> 0.90021391E+01</totfact>
</mgrwt>
</event>
<event>
 5    0  0.3040647E+000  0.2110331E+03  0.7546771E-02  0.1140750E+00
         21   -1    0    0  501  502  0.00000000000E+00  0.00000000000E+00  0.27831738314E+04  0.27831738314E+04  0.00000000000E+00 0. -1.
         -4   -1    0    0    0  501 -0.00000000000E+00 -0.00000000000E+00 -0.79838884474E+02  0.79838884474E+02  0.00000000000E+00 0. -1.
         25    1    1    2    0    0 -0.21113227973E+03  0.93510526473E+02  0.16137493896E+04  0.16349719113E+04  0.12500000000E+03 0.  0.
         21    1    1    2  503  502  0.63748286269E+02 -0.14197755168E+03  0.10584097210E+04  0.10697909173E+04  0.00000000000E+00 0.  1.
         -4    1    1    2    0  503  0.14738399347E+03  0.48467025211E+02  0.31175836266E+02  0.15824988730E+03  0.00000000000E+00 0. -1.
<mgrwt>
<rscale>  4 0.21103310E+03</rscale>
<asrwt>0</asrwt>
<pdfrwt beam="1">  1       21 0.42818051E+00 0.21103310E+03</pdfrwt>
<pdfrwt beam="2">  1       -4 0.12282907E-01 0.21103310E+03</pdfrwt>
<totfact> 0.12709356E+01</totfact>
</mgrwt>
</event>
<event>
 5    0  0.3040647E+000  0.2460394E+03  0.7546771E-02  0.1115834E+00
         21   -1    0    0  501  502  0.00000000000E+00  0.00000000000E+00  0.10663614736E+04  0.10663614736E+04  0.00000000000E+00 0.  1.
         -2   -1    0    0    0  501 -0.00000000000E+00 -0.00000000000E+00 -0.10835165539E+03  0.10835165539E+03  0.00000000000E+00 0. -1.
         25    1    1    2    0    0 -0.14845192454E+03  0.15123631328E+03  0.91964422447E+03  0.95198786545E+03  0.12500000000E+03 0.  0.
         21    1    1    2  503  502  0.49332399664E+02 -0.55540062944E+02  0.41147108835E+02  0.84920367486E+02  0.00000000000E+00 0.  1.
         -2    1    1    2    0  503  0.99119524873E+02 -0.95696250336E+02 -0.27815151309E+01  0.13780489602E+03  0.00000000000E+00 0. -1.
<mgrwt>
<rscale>  4 0.24603942E+03</rscale>
<asrwt>0</asrwt>
<pdfrwt beam="1">  1       21 0.16405560E+00 0.24603942E+03</pdfrwt>
<pdfrwt beam="2">  1       -2 0.16669486E-01 0.24603942E+03</pdfrwt>
<totfact> 0.51992237E+02</totfact>
</mgrwt>
</event>
<event>
 5    0  0.3040647E+000  0.2516421E+03  0.7546771E-02  0.1112271E+00
          1   -1    0    0  502    0 -0.00000000000E+00  0.00000000000E+00  0.10826348048E+04  0.10826348048E+04  0.00000000000E+00 0. -1.
         21   -1    0    0  503  502  0.00000000000E+00 -0.00000000000E+00 -0.49602811229E+03  0.49602811229E+03  0.00000000000E+00 0. -1.
         25    1    1    2    0    0 -0.27465209197E+03 -0.64593876858E+02  0.46089560492E+03  0.55466737707E+03  0.12500000000E+03 0.  0.
         21    1    1    2  503  501  0.79546581180E+02  0.45249368833E+02 -0.42743913417E+03  0.43712627166E+03  0.00000000000E+00 0. -1.
          1    1    1    2  501    0  0.19510551078E+03  0.19344508024E+02  0.55315022179E+03  0.58686926841E+03  0.00000000000E+00 0. -1.
<mgrwt>
<rscale>  4 0.25164211E+03</rscale>
<asrwt>0</asrwt>
<pdfrwt beam="1">  1       21 0.76312017E-01 0.25164211E+03</pdfrwt>
<pdfrwt beam="2">  1        1 0.16655920E+00 0.25164211E+03</pdfrwt>
<totfact> 0.22972842E+02</totfact>
</mgrwt>
</event>
<event>
 5    0  0.3040647E+000  0.2494070E+03  0.7546771E-02  0.1113680E+00
         21   -1    0    0  503  502  0.00000000000E+00  0.00000000000E+00  0.13603579339E+03  0.13603579339E+03  0.00000000000E+00 0.  1.
          1   -1    0    0  502    0 -0.00000000000E+00 -0.00000000000E+00 -0.15198983522E+04  0.15198983522E+04  0.00000000000E+00 0.  1.
         25    1    1    2    0    0  0.19654588216E+03  0.86852310755E+02 -0.66674383176E+02  0.25737925528E+03  0.12500000000E+03 0.  0.
         21    1    1    2  503  501  0.12060281512E+02 -0.30389739791E+02  0.23688056014E+02  0.40374629069E+02  0.00000000000E+00 0. -1.
          1    1    1    2  501    0 -0.20860616367E+03 -0.56462570964E+02 -0.13408762316E+04  0.13581802612E+04  0.00000000000E+00 0.  1.
<mgrwt>
<rscale>  4 0.24940701E+03</rscale>
<asrwt>0</asrwt>
<pdfrwt beam="1">  1       21 0.20928584E-01 0.24940701E+03</pdfrwt>
<pdfrwt beam="2">  1        1 0.23383051E+00 0.24940701E+03</pdfrwt>
<totfact> 0.16250796E+03</totfact>
</mgrwt>
</event>
<event>
 5    0  0.3040647E+000  0.3881403E+03  0.7546771E-02  0.1047965E+00
         21   -1    0    0  503  502  0.00000000000E+00  0.00000000000E+00  0.70770984470E+02  0.70770984470E+02  0.00000000000E+00 0.  1.
          2   -1    0    0  502    0 -0.00000000000E+00 -0.00000000000E+00 -0.24036309208E+04  0.24036309208E+04  0.00000000000E+00 0.  1.
         25    1    1    2    0    0  0.11050300113E+03  0.35928375701E+03 -0.10024119805E+04  0.10778453089E+04  0.12500000000E+03 0.  0.
         21    1    1    2  503  501  0.20273578394E+02 -0.21362615698E+02 -0.16915927351E+02  0.33963626551E+02  0.00000000000E+00 0.  1.
          2    1    1    2  501    0 -0.13077657952E+03 -0.33792114132E+03 -0.13135320285E+04  0.13625929698E+04  0.00000000000E+00 0.  1.
<mgrwt>
<rscale>  4 0.38814032E+03</rscale>
<asrwt>0</asrwt>
<pdfrwt beam="1">  1       21 0.10887845E-01 0.38814032E+03</pdfrwt>
<pdfrwt beam="2">  1        2 0.36978932E+00 0.38814032E+03</pdfrwt>
<totfact> 0.38095370E+03</totfact>
</mgrwt>
</event>
<event>
 5    0  0.3040647E+000  0.3071255E+03  0.7546771E-02  0.1081732E+00
          1   -1    0    0  502    0 -0.00000000000E+00  0.00000000000E+00  0.30594836228E+03  0.30594836228E+03  0.00000000000E+00 0. -1.
         21   -1    0    0  503  502  0.00000000000E+00 -0.00000000000E+00 -0.42697200443E+03  0.42697200443E+03  0.00000000000E+00 0. -1.
         25    1    1    2    0    0  0.18987290000E+03 -0.20401537959E+03 -0.30643661959E+02  0.30698212860E+03  0.12500000000E+03 0.  0.
         21    1    1    2  503  501 -0.14454727783E+02 -0.17032194459E+02 -0.13796352034E+03  0.13976039406E+03  0.00000000000E+00 0. -1.
          1    1    1    2  501    0 -0.17541817221E+03  0.22104757405E+03  0.47583540139E+02  0.28617784405E+03  0.00000000000E+00 0. -1.
<mgrwt>
<rscale>  4 0.30712554E+03</rscale>
<asrwt>0</asrwt>
<pdfrwt beam="1">  1       21 0.65688001E-01 0.30712554E+03</pdfrwt>
<pdfrwt beam="2">  1        1 0.47068979E-01 0.30712554E+03</pdfrwt>
<totfact> 0.19147135E+03</totfact>
</mgrwt>
</event>
<event>
 5    0  0.3040647E+000  0.4260674E+03  0.7546771E-02  0.1035110E+00
         21   -1    0    0  503  502  0.00000000000E+00  0.00000000000E+00  0.88188679586E+03  0.88188679586E+03  0.00000000000E+00 0. -1.
          2   -1    0    0  502    0 -0.00000000000E+00 -0.00000000000E+00 -0.53555970144E+03  0.53555970144E+03  0.00000000000E+00 0.  1.
         25    1    1    2    0    0  0.29378769864E+03  0.30314145272E+03  0.67185866468E+03  0.80325899779E+03  0.12500000000E+03 0.  0.
         21    1    1    2  503  501  0.15933994814E+02 -0.41031390708E+02  0.46265016151E+02  0.63858585434E+02  0.00000000000E+00 0. -1.
          2    1    1    2  501    0 -0.30972169345E+03 -0.26211006201E+03 -0.37179658640E+03  0.55032891407E+03  0.00000000000E+00 0.  1.
<mgrwt>
<rscale>  4 0.42606737E+03</rscale>
<asrwt>0</asrwt>
<pdfrwt beam="1">  1       21 0.13567489E+00 0.42606737E+03</pdfrwt>
<pdfrwt beam="2">  1        2 0.82393800E-01 0.42606737E+03</pdfrwt>
<totfact> 0.24941015E+02</totfact>
</mgrwt>
</event>
<event>
 5    0  0.3040647E+000  0.3296955E+03  0.7546771E-02  0.1071272E+00
         21   -1    0    0  503  502  0.00000000000E+00  0.00000000000E+00  0.52671660589E+03  0.52671660589E+03  0.00000000000E+00 0. -1.
          2   -1    0    0  502    0 -0.00000000000E+00 -0.00000000000E+00 -0.11754573768E+04  0.11754573768E+04  0.00000000000E+00 0.  1.
         25    1    1    2    0    0  0.15695209707E+03 -0.28752774050E+03  0.78323665910E+02  0.35925723232E+03  0.12500000000E+03 0.  0.
         21    1    1    2  503  501 -0.14364843209E+02  0.20397007662E+02  0.28522247833E+03  0.28631145417E+03  0.00000000000E+00 0. -1.
          2    1    1    2  501    0 -0.14258725386E+03  0.26713073284E+03 -0.10122869152E+04  0.10566052962E+04  0.00000000000E+00 0.  1.
<mgrwt>
<rscale>  4 0.32969553E+03</rscale>
<asrwt>0</asrwt>
<pdfrwt beam="1">  1       21 0.81033325E-01 0.32969553E+03</pdfrwt>
<pdfrwt beam="2">  1        2 0.18083960E+00 0.32969553E+03</pdfrwt>
<totfact> 0.32523780E+02</totfact>
</mgrwt>
</event>
<event>
 5    0  0.3040647E+000  0.3070496E+03  0.7546771E-02  0.1081769E+00
         21   -1    0    0  503  502  0.00000000000E+00  0.00000000000E+00  0.31936897448E+03  0.31936897448E+03  0.00000000000E+00 0. -1.
          1   -1    0    0  502    0 -0.00000000000E+00 -0.00000000000E+00 -0.58529748604E+03  0.58529748604E+03  0.00000000000E+00 0. -1.
         25    1    1    2    0    0  0.14103056975E+03  0.30593696290E+03  0.49243635156E+02  0.36268027583E+03  0.12500000000E+03 0.  0.
         21    1    1    2  503  501 -0.22355086833E-01 -0.77188741724E+02  0.47482883388E+02  0.90624094829E+02  0.00000000000E+00 0. -1.
          1    1    1    2  501    0 -0.14100821467E+03 -0.22874822118E+03 -0.36265503011E+03  0.45136208986E+03  0.00000000000E+00 0. -1.
<mgrwt>
<rscale>  4 0.30704963E+03</rscale>
<asrwt>0</asrwt>
<pdfrwt beam="1">  1       21 0.49133689E-01 0.30704963E+03</pdfrwt>
<pdfrwt beam="2">  1        1 0.90045766E-01 0.30704963E+03</pdfrwt>
<totfact> 0.15272676E+03</totfact>
</mgrwt>
</event>
<event>
 5    0  0.3040647E+000  0.2572650E+03  0.7546771E-02  0.1108798E+00
         21   -1    0    0  503  502  0.00000000000E+00  0.00000000000E+00  0.10999581711E+03  0.10999581711E+03  0.00000000000E+00 0.  1.
          2   -1    0    0  502    0 -0.00000000000E+00 -0.00000000000E+00 -0.38679626516E+04  0.38679626516E+04  0.00000000000E+00 0. -1.
         25    1    1    2    0    0 -0.19128826077E+03  0.12431974855E+03 -0.70044073211E+02  0.26940261836E+03  0.12500000000E+03 0.  0.
         21    1    1    2  503  501 -0.72516813016E+01 -0.18940874881E+02 -0.80437123736E+01  0.21818453926E+02  0.00000000000E+00 0.  1.
          2    1    1    2  501    0  0.19853994207E+03 -0.10537887367E+03 -0.36798790489E+04  0.36867373964E+04  0.00000000000E+00 0. -1.
<mgrwt>
<rscale>  4 0.25726498E+03</rscale>
<asrwt>0</asrwt>
<pdfrwt beam="1">  1       21 0.16922433E-01 0.25726498E+03</pdfrwt>
<pdfrwt beam="2">  1        2 0.59507118E+00 0.25726498E+03</pdfrwt>
<totfact> 0.22312729E+02</totfact>
</mgrwt>
</event>
<event>
 5    0  0.3040647E+000  0.4050642E+03  0.7546771E-02  0.1042040E+00
         21   -1    0    0  503  502  0.00000000000E+00  0.00000000000E+00  0.67008233483E+03  0.67008233483E+03  0.00000000000E+00 0. -1.
          2   -1    0    0  502    0 -0.00000000000E+00 -0.00000000000E+00 -0.10771164758E+04  0.10771164758E+04  0.00000000000E+00 0.  1.
         25    1    1    2    0    0 -0.27694017458E+03  0.30615916442E+03  0.46398407226E+03  0.63351046839E+03  0.12500000000E+03 0.  0.
         21    1    1    2  503  501  0.25313628084E+02 -0.16837240145E+02  0.81448849401E+02  0.86937836937E+02  0.00000000000E+00 0.  1.
          2    1    1    2  501    0  0.25162654649E+03 -0.28932192427E+03 -0.95246706264E+03  0.10267505053E+04  0.00000000000E+00 0.  1.
<mgrwt>
<rscale>  4 0.40506422E+03</rscale>
<asrwt>0</asrwt>
<pdfrwt beam="1">  1       21 0.10308959E+00 0.40506422E+03</pdfrwt>
<pdfrwt beam="2">  1        2 0.16571023E+00 0.40506422E+03</pdfrwt>
<totfact> 0.20394432E+02</totfact>
</mgrwt>
</event>
<event>
 5    0  0.3040647E+000  0.2648045E+03  0.7546771E-02  0.1104290E+00
         21   -1    0    0  503  502  0.00000000000E+00  0.00000000000E+00  0.38376134231E+02  0.38376134231E+02  0.00000000000E+00 0.  1.
          2   -1    0    0  502    0 -0.00000000000E+00 -0.00000000000E+00 -0.36945669279E+04  0.36945669279E+04  0.00000000000E+00 0.  1.
         25    1    1    2    0    0 -0.15307836185E+01  0.24452850784E+03 -0.57133524020E+03  0.63391284191E+03  0.12500000000E+03 0.  0.
         21    1    1    2  503  501  0.46834115223E+02 -0.61305638925E+02 -0.38903724274E+03  0.39661289937E+03  0.00000000000E+00 0. -1.
          2    1    1    2  501    0 -0.45303331605E+02 -0.18322286891E+03 -0.26958183108E+04  0.27024173209E+04  0.00000000000E+00 0.  1.
<mgrwt>
<rscale>  4 0.26480449E+03</rscale>
<asrwt>0</asrwt>
<pdfrwt beam="1">  1       21 0.59040184E-02 0.26480449E+03</pdfrwt>
<pdfrwt beam="2">  1        2 0.56839513E+00 0.26480449E+03</pdfrwt>
<totfact> 0.19273361E+03</totfact>
</mgrwt>
</event>
<event>
 5    0  0.3040647E+000  0.2473946E+03  0.7546771E-02  0.1114963E+00
          1   -1    0    0  502    0 -0.00000000000E+00  0.00000000000E+00  0.24256345297E+04  0.24256345297E+04  0.00000000000E+00 0.  1.
         21   -1    0    0  503  502  0.00000000000E+00 -0.00000000000E+00 -0.29502493438E+02  0.29502493438E+02  0.00000000000E+00 0.  1.
         25    1    1    2    0    0  0.10136208685E+03  0.20249211170E+03  0.84700768710E+03  0.88562088388E+03  0.12500000000E+03 0.  0.
         21    1    1    2  503  501  0.10894856703E+02 -0.26317245475E+02  0.67880887633E+02  0.73614606008E+02  0.00000000000E+00 0.  1.
          1    1    1    2  501    0 -0.11225694355E+03 -0.17617486623E+03  0.14812434616E+04  0.14959015333E+04  0.00000000000E+00 0.  1.
<mgrwt>
<rscale>  4 0.24739461E+03</rscale>
<asrwt>0</asrwt>
<pdfrwt beam="1">  1       21 0.45388471E-02 0.24739461E+03</pdfrwt>
<pdfrwt beam="2">  1        1 0.37317438E+00 0.24739461E+03</pdfrwt>
<totfact> 0.63369690E+03</totfact>
</mgrwt>
</event>
<event>
 5    0  0.3040647E+000  0.2208382E+03  0.7546771E-02  0.1133260E+00
          1   -1    0    0  502    0 -0.00000000000E+00  0.00000000000E+00  0.23523254611E+04  0.23523254611E+04  0.00000000000E+00 0.  1.
         21   -1    0    0  503  502  0.00000000000E+00 -0.00000000000E+00 -0.17190699661E+03  0.17190699661E+03  0.00000000000E+00 0. -1.
         25    1    1    2    0    0  0.13960951126E+03 -0.20324707910E+03  0.99720199715E+03  0.10348125501E+04  0.12500000000E+03 0.  0.
         21    1    1    2  503  501 -0.96357082355E+02  0.15053190022E+03 -0.99723707396E+02  0.20466889876E+03  0.00000000000E+00 0. -1.
          1    1    1    2  501    0 -0.43252428903E+02  0.52715178874E+02  0.12829401747E+04  0.12847510088E+04  0.00000000000E+00 0.  1.
<mgrwt>
<rscale>  4 0.22083818E+03</rscale>
<asrwt>0</asrwt>
<pdfrwt beam="1">  1       21 0.26447232E-01 0.22083818E+03</pdfrwt>
<pdfrwt beam="2">  1        1 0.36189620E+00 0.22083818E+03</pdfrwt>
<totfact> 0.30406973E+02</totfact>
</mgrwt>
</event>
<event>
 5    0  0.3040647E+000  0.3776140E+03  0.7546771E-02  0.1051819E+00
         21   -1    0    0  503  502  0.00000000000E+00  0.00000000000E+00  0.27324083350E+03  0.27324083350E+03  0.00000000000E+00 0.  1.
          2   -1    0    0  502    0 -0.00000000000E+00 -0.00000000000E+00 -0.13177707852E+04  0.13177707852E+04  0.00000000000E+00 0.  1.
         25    1    1    2    0    0  0.37262755031E+03 -0.20424178684E+03 -0.36548428817E+03  0.57425583466E+03  0.12500000000E+03 0.  0.
         21    1    1    2  503  501 -0.30625541586E+03  0.12932193683E+03 -0.20963211281E+01  0.33244689449E+03  0.00000000000E+00 0.  1.
          2    1    1    2  501    0 -0.66372134444E+02  0.74919850009E+02 -0.67694934241E+03  0.68430888957E+03  0.00000000000E+00 0.  1.
<mgrwt>
<rscale>  4 0.37761396E+03</rscale>
<asrwt>0</asrwt>
<pdfrwt beam="1">  1       21 0.42037050E-01 0.37761396E+03</pdfrwt>
<pdfrwt beam="2">  1        2 0.20273397E+00 0.37761396E+03</pdfrwt>
<totfact> 0.11040590E+03</totfact>
</mgrwt>
</event>
<event>
 5    0  0.3040647E+000  0.2636878E+03  0.7546771E-02  0.1104948E+00
         21   -1    0    0  503  502  0.00000000000E+00  0.00000000000E+00  0.54580026044E+02  0.54580026044E+02  0.00000000000E+00 0.  1.
          2   -1    0    0  502    0 -0.00000000000E+00 -0.00000000000E+00 -0.18692331789E+04  0.18692331789E+04  0.00000000000E+00 0.  1.
         25    1    1    2    0    0 -0.21548643149E+03 -0.40306984879E+02 -0.61784977972E+03  0.66739973441E+03  0.12500000000E+03 0.  0.
         21    1    1    2  503  501  0.24777619646E+03 -0.47068232887E+02 -0.57786743024E+03  0.63050712051E+03  0.00000000000E+00 0.  1.
          2    1    1    2  501    0 -0.32289764963E+02  0.87375217766E+02 -0.61893594293E+03  0.62590635007E+03  0.00000000000E+00 0.  1.
<mgrwt>
<rscale>  4 0.26368777E+03</rscale>
<asrwt>0</asrwt>
<pdfrwt beam="1">  1       21 0.83969274E-02 0.26368777E+03</pdfrwt>
<pdfrwt beam="2">  1        2 0.28757432E+00 0.26368777E+03</pdfrwt>
<totfact> 0.12122220E+04</totfact>
</mgrwt>
</event>
<event>
 5    0  0.3040647E+000  0.1971661E+03  0.7546771E-02  0.1152152E+00
         21   -1    0    0  503  502  0.00000000000E+00  0.00000000000E+00  0.81838118467E+02  0.81838118467E+02  0.00000000000E+00 0. -1.
          1   -1    0    0  502    0 -0.00000000000E+00 -0.00000000000E+00 -0.21307026142E+04  0.21307026142E+04  0.00000000000E+00 0. -1.
         25    1    1    2    0    0  0.45895184991E+01 -0.21837125156E+03 -0.19159763104E+03  0.31629372331E+03  0.12500000000E+03 0.  0.
         21    1    1    2  503  501  0.42175136109E+02  0.76298341033E+02 -0.10016298210E+03  0.13278856101E+03  0.00000000000E+00 0.  1.
          1    1    1    2  501    0 -0.46764654608E+02  0.14207291053E+03 -0.17571038826E+04  0.17634584484E+04  0.00000000000E+00 0. -1.
<mgrwt>
<rscale>  4 0.19716614E+03</rscale>
<asrwt>0</asrwt>
<pdfrwt beam="1">  1       21 0.12590480E-01 0.19716614E+03</pdfrwt>
<pdfrwt beam="2">  1        1 0.32780041E+00 0.19716614E+03</pdfrwt>
<totfact> 0.17085251E+03</totfact>
</mgrwt>
</event>
<event>
 5    0  0.3040647E+000  0.2293165E+03  0.7546771E-02  0.1127122E+00
         21   -1    0    0  503  502  0.00000000000E+00  0.00000000000E+00  0.58855362672E+02  0.58855362672E+02  0.00000000000E+00 0.  1.
          2   -1    0    0  502    0 -0.00000000000E+00 -0.00000000000E+00 -0.30950803257E+04  0.30950803257E+04  0.00000000000E+00 0. -1.
         25    1    1    2    0    0  0.20520237865E+03  0.86006894832E+02 -0.38532788583E+03  0.46217721900E+03  0.12500000000E+03 0.  0.
         21    1    1    2  503  501 -0.24224722602E+02 -0.29283314651E+02 -0.41563509862E+01  0.38231203952E+02  0.00000000000E+00 0.  1.
          2    1    1    2  501    0 -0.18097765605E+03 -0.56723580182E+02 -0.26467407263E+04  0.26535272655E+04  0.00000000000E+00 0. -1.
<mgrwt>
<rscale>  4 0.22931648E+03</rscale>
<asrwt>0</asrwt>
<pdfrwt beam="1">  1       21 0.90546713E-02 0.22931648E+03</pdfrwt>
<pdfrwt beam="2">  1        2 0.47616620E+00 0.22931648E+03</pdfrwt>
<totfact> 0.22767466E+03</totfact>
</mgrwt>
</event>
<event>
 5    0  0.3040647E+000  0.2231764E+03  0.7546771E-02  0.1131537E+00
          1   -1    0    0  502    0 -0.00000000000E+00  0.00000000000E+00  0.11806310626E+04  0.11806310626E+04  0.00000000000E+00 0. -1.
         21   -1    0    0  503  502  0.00000000000E+00 -0.00000000000E+00 -0.11740683652E+03  0.11740683652E+03  0.00000000000E+00 0.  1.
         25    1    1    2    0    0  0.22736349549E+03 -0.82048229924E+02  0.60433358043E+03  0.66277458276E+03  0.12500000000E+03 0.  0.
         21    1    1    2  503  501 -0.71626157000E+02  0.40900429831E+02 -0.53390874105E+02  0.98253432330E+02  0.00000000000E+00 0.  1.
          1    1    1    2  501    0 -0.15573733849E+03  0.41147800093E+02  0.51228151975E+03  0.53700988402E+03  0.00000000000E+00 0. -1.
<mgrwt>
<rscale>  4 0.22317639E+03</rscale>
<asrwt>0</asrwt>
<pdfrwt beam="1">  1       21 0.18062591E-01 0.22317639E+03</pdfrwt>
<pdfrwt beam="2">  1        1 0.18163554E+00 0.22317639E+03</pdfrwt>
<totfact> 0.36736298E+03</totfact>
</mgrwt>
</event>
<event>
 5    0  0.3040647E+000  0.2845259E+03  0.7546771E-02  0.1093242E+00
         21   -1    0    0  503  502  0.00000000000E+00  0.00000000000E+00  0.76834255492E+02  0.76834255492E+02  0.00000000000E+00 0. -1.
          2   -1    0    0  502    0 -0.00000000000E+00 -0.00000000000E+00 -0.16605995469E+04  0.16605995469E+04  0.00000000000E+00 0. -1.
         25    1    1    2    0    0 -0.23571146024E+03  0.41734214458E+02 -0.47239770747E+03  0.54413806260E+03  0.12500000000E+03 0.  0.
         21    1    1    2  503  501 -0.22552972385E+02  0.45618512052E+01  0.20863631924E+02  0.31060234817E+02  0.00000000000E+00 0. -1.
          2    1    1    2  501    0  0.25826443263E+03 -0.46296065663E+02 -0.11322312159E+04  0.11622355050E+04  0.00000000000E+00 0. -1.
<mgrwt>
<rscale>  4 0.28452589E+03</rscale>
<asrwt>0</asrwt>
<pdfrwt beam="1">  1       21 0.11820655E-01 0.28452589E+03</pdfrwt>
<pdfrwt beam="2">  1        2 0.25547684E+00 0.28452589E+03</pdfrwt>
<totfact> 0.84404569E+03</totfact>
</mgrwt>
</event>
<event>
 5    0  0.3040647E+000  0.3519669E+03  0.7546771E-02  0.1061811E+00
         21   -1    0    0  501  502  0.00000000000E+00  0.00000000000E+00  0.37183674651E+03  0.37183674651E+03  0.00000000000E+00 0.  1.
         -4   -1    0    0    0  501 -0.00000000000E+00 -0.00000000000E+00 -0.53836000376E+03  0.53836000376E+03  0.00000000000E+00 0.  1.
         25    1    1    2    0    0 -0.27760488405E+03  0.14901951364E+03  0.16923082012E+03  0.37886060441E+03  0.12500000000E+03 0.  0.
         21    1    1    2  503  502 -0.70563310353E+01  0.22557257950E+02  0.29297545992E+02  0.37642634008E+02  0.00000000000E+00 0.  1.
         -4    1    1    2    0  503  0.28466121509E+03 -0.17157677159E+03 -0.36505162337E+03  0.49369351185E+03  0.00000000000E+00 0.  1.
<mgrwt>
<rscale>  4 0.35196688E+03</rscale>
<asrwt>0</asrwt>
<pdfrwt beam="1">  1       21 0.57205653E-01 0.35196688E+03</pdfrwt>
<pdfrwt beam="2">  1       -4 0.82824616E-01 0.35196688E+03</pdfrwt>
<totfact> 0.15450003E+02</totfact>
</mgrwt>
</event>
<event>
 5    0  0.3040647E+000  0.3071745E+03  0.7546771E-02  0.1081708E+00
         21   -1    0    0  503  502  0.00000000000E+00  0.00000000000E+00  0.62788593895E+03  0.62788593895E+03  0.00000000000E+00 0. -1.
          2   -1    0    0  502    0 -0.00000000000E+00 -0.00000000000E+00 -0.81009150515E+03  0.81009150515E+03  0.00000000000E+00 0.  1.
         25    1    1    2    0    0  0.89366606347E+02 -0.27151628619E+03  0.48103012505E+03  0.57334323507E+03  0.12500000000E+03 0.  0.
         21    1    1    2  503  501  0.19268266874E+02  0.13041329361E+02  0.73106066623E+02  0.76719224168E+02  0.00000000000E+00 0.  1.
          2    1    1    2  501    0 -0.10863487322E+03  0.25847495683E+03 -0.73634175787E+03  0.78791498487E+03  0.00000000000E+00 0.  1.
<mgrwt>
<rscale>  4 0.30717451E+03</rscale>
<asrwt>0</asrwt>
<pdfrwt beam="1">  1       21 0.96597837E-01 0.30717451E+03</pdfrwt>
<pdfrwt beam="2">  1        2 0.12462946E+00 0.30717451E+03</pdfrwt>
<totfact> 0.36872820E+02</totfact>
</mgrwt>
</event>
<event>
 5    0  0.3040647E+000  0.3395424E+03  0.7546771E-02  0.1066991E+00
          2   -1    0    0  502    0 -0.00000000000E+00  0.00000000000E+00  0.21775554094E+04  0.21775554094E+04  0.00000000000E+00 0. -1.
         21   -1    0    0  503  502  0.00000000000E+00 -0.00000000000E+00 -0.24777111432E+03  0.24777111432E+03  0.00000000000E+00 0.  1.
         25    1    1    2    0    0  0.24941728047E+03  0.19547236260E+03 -0.10974675025E+03  0.35789352262E+03  0.12500000000E+03 0.  0.
         21    1    1    2  503  501 -0.20441193036E+02 -0.72545179750E+01  0.35508898486E+02  0.41609521452E+02  0.00000000000E+00 0.  1.
          2    1    1    2  501    0 -0.22897608744E+03 -0.18821784463E+03  0.20040221468E+04  0.20258234796E+04  0.00000000000E+00 0. -1.
<mgrwt>
<rscale>  4 0.33954238E+03</rscale>
<asrwt>0</asrwt>
<pdfrwt beam="1">  1       21 0.38118634E-01 0.33954238E+03</pdfrwt>
<pdfrwt beam="2">  1        2 0.33500851E+00 0.33954238E+03</pdfrwt>
<totfact> 0.47257858E+02</totfact>
</mgrwt>
</event>
<event>
 5    0  0.3040647E+000  0.2491905E+03  0.7546771E-02  0.1113817E+00
         21   -1    0    0  503  502  0.00000000000E+00  0.00000000000E+00  0.76919579063E+03  0.76919579063E+03  0.00000000000E+00 0. -1.
          2   -1    0    0  502    0 -0.00000000000E+00 -0.00000000000E+00 -0.15097203134E+03  0.15097203134E+03  0.00000000000E+00 0. -1.
         25    1    1    2    0    0 -0.72695616028E+02  0.20114535541E+03  0.62687811952E+03  0.67405139517E+03  0.12500000000E+03 0.  0.
         21    1    1    2  503  501 -0.19984878514E+02  0.35700958766E+01  0.52492476093E+01  0.20968918767E+02  0.00000000000E+00 0.  1.
          2    1    1    2  501    0  0.92680494542E+02 -0.20471545129E+03 -0.13903607836E+02  0.22514750804E+03  0.00000000000E+00 0. -1.
<mgrwt>
<rscale>  4 0.24919047E+03</rscale>
<asrwt>0</asrwt>
<pdfrwt beam="1">  1       21 0.11833781E+00 0.24919047E+03</pdfrwt>
<pdfrwt beam="2">  1        2 0.23226467E-01 0.24919047E+03</pdfrwt>
<totfact> 0.15299054E+03</totfact>
</mgrwt>
</event>
<event>
 5    0  0.3040647E+000  0.3326856E+03  0.7546771E-02  0.1069955E+00
          1   -1    0    0  502    0 -0.00000000000E+00  0.00000000000E+00  0.55201258056E+03  0.55201258056E+03  0.00000000000E+00 0. -1.
         21   -1    0    0  503  502  0.00000000000E+00 -0.00000000000E+00 -0.94229934304E+03  0.94229934304E+03  0.00000000000E+00 0. -1.
         25    1    1    2    0    0  0.17686517091E+03 -0.15330855395E+03 -0.47169431096E+03  0.54120728412E+03  0.12500000000E+03 0.  0.
         21    1    1    2  503  501  0.13956346815E+03  0.10960885170E+03 -0.36402348228E+03  0.40497550254E+03  0.00000000000E+00 0. -1.
          1    1    1    2  501    0 -0.31642863906E+03  0.43699702252E+02  0.44543103076E+03  0.54812913694E+03  0.00000000000E+00 0. -1.
<mgrwt>
<rscale>  4 0.33268564E+03</rscale>
<asrwt>0</asrwt>
<pdfrwt beam="1">  1       21 0.14496913E+00 0.33268564E+03</pdfrwt>
<pdfrwt beam="2">  1        1 0.84925013E-01 0.33268564E+03</pdfrwt>
<totfact> 0.13076613E+02</totfact>
</mgrwt>
</event>
<event>
 5    0  0.3040647E+000  0.2810931E+03  0.7546771E-02  0.1095093E+00
         -1   -1    0    0    0  501 -0.00000000000E+00  0.00000000000E+00  0.31992448499E+03  0.31992448499E+03  0.00000000000E+00 0.  1.
         21   -1    0    0  501  502  0.00000000000E+00 -0.00000000000E+00 -0.24946308482E+03  0.24946308482E+03  0.00000000000E+00 0. -1.
         25    1    1    2    0    0 -0.25027857608E+03 -0.70571768689E+02  0.81359406004E+01  0.28863633470E+03  0.12500000000E+03 0.  0.
         21    1    1    2  503  502  0.92010533340E+01  0.18917374613E+02 -0.10718125344E+02  0.23609418790E+02  0.00000000000E+00 0. -1.
         -1    1    1    2    0  503  0.24107752275E+03  0.51654394075E+02  0.73043584908E+02  0.25714181632E+03  0.00000000000E+00 0.  1.
<mgrwt>
<rscale>  4 0.28109313E+03</rscale>
<asrwt>0</asrwt>
<pdfrwt beam="1">  1       21 0.38378936E-01 0.28109313E+03</pdfrwt>
<pdfrwt beam="2">  1       -1 0.49219152E-01 0.28109313E+03</pdfrwt>
<totfact> 0.25023151E+03</totfact>
</mgrwt>
</event>
<event>
 5    0  0.3040647E+000  0.3244432E+03  0.7546771E-02  0.1073622E+00
          2   -1    0    0  502    0 -0.00000000000E+00  0.00000000000E+00  0.57480759532E+03  0.57480759532E+03  0.00000000000E+00 0. -1.
         21   -1    0    0  503  502  0.00000000000E+00 -0.00000000000E+00 -0.26286368936E+03  0.26286368936E+03  0.00000000000E+00 0.  1.
         25    1    1    2    0    0  0.17453146836E+03 -0.26104454068E+03 -0.17615137476E+02  0.33843873705E+03  0.12500000000E+03 0.  0.
         21    1    1    2  503  501 -0.60830529943E+02 -0.12342265748E+02  0.87727177137E+01  0.62686884378E+02  0.00000000000E+00 0. -1.
          2    1    1    2  501    0 -0.11370093842E+03  0.27338680643E+03  0.32078632572E+03  0.43654566324E+03  0.00000000000E+00 0. -1.
<mgrwt>
<rscale>  4 0.32444316E+03</rscale>
<asrwt>0</asrwt>
<pdfrwt beam="1">  1       21 0.40440568E-01 0.32444316E+03</pdfrwt>
<pdfrwt beam="2">  1        2 0.88431937E-01 0.32444316E+03</pdfrwt>
<totfact> 0.37746251E+03</totfact>
</mgrwt>
</event>
<event>
 5    0  0.3040647E+000  0.2496955E+03  0.7546771E-02  0.1113497E+00
         21   -1    0    0  503  502  0.00000000000E+00  0.00000000000E+00  0.67514705063E+02  0.67514705063E+02  0.00000000000E+00 0. -1.
          2   -1    0    0  502    0 -0.00000000000E+00 -0.00000000000E+00 -0.21575045982E+04  0.21575045982E+04  0.00000000000E+00 0. -1.
         25    1    1    2    0    0 -0.12938971264E+03  0.16721043559E+03 -0.32789175453E+03  0.40968162053E+03  0.12500000000E+03 0.  0.
         21    1    1    2  503  501 -0.28754552731E+02 -0.18199700317E+02  0.54674258983E+01  0.34466594557E+02  0.00000000000E+00 0. -1.
          2    1    1    2  501    0  0.15814426537E+03 -0.14901073527E+03 -0.17675655645E+04  0.17808710882E+04  0.00000000000E+00 0. -1.
<mgrwt>
<rscale>  4 0.24969554E+03</rscale>
<asrwt>0</asrwt>
<pdfrwt beam="1">  1       21 0.10386876E-01 0.24969554E+03</pdfrwt>
<pdfrwt beam="2">  1        2 0.33192382E+00 0.24969554E+03</pdfrwt>
<totfact> 0.58963329E+03</totfact>
</mgrwt>
</event>
<event>
 5    0  0.3040647E+000  0.3455265E+03  0.7546771E-02  0.1064466E+00
         21   -1    0    0  503  502  0.00000000000E+00  0.00000000000E+00  0.24823750222E+03  0.24823750222E+03  0.00000000000E+00 0. -1.
          2   -1    0    0  502    0 -0.00000000000E+00 -0.00000000000E+00 -0.13421758312E+04  0.13421758312E+04  0.00000000000E+00 0. -1.
         25    1    1    2    0    0 -0.14643530867E+03 -0.32873979375E+03  0.25076989238E+02  0.38179445649E+03  0.12500000000E+03 0.  0.
         21    1    1    2  503  501  0.17958008628E+02  0.37822985782E+02  0.34110930602E+01  0.42008378727E+02  0.00000000000E+00 0. -1.
          2    1    1    2  501    0  0.12847730005E+03  0.29091680797E+03 -0.11224264113E+04  0.11666104982E+04  0.00000000000E+00 0. -1.
<mgrwt>
<rscale>  4 0.34552648E+03</rscale>
<asrwt>0</asrwt>
<pdfrwt beam="1">  1       21 0.38190385E-01 0.34552648E+03</pdfrwt>
<pdfrwt beam="2">  1        2 0.20648859E+00 0.34552648E+03</pdfrwt>
<totfact> 0.13163077E+03</totfact>
</mgrwt>
</event>
<event>
 5    0  0.3040647E+000  0.4122540E+03  0.7546771E-02  0.1039617E+00
          2   -1    0    0  502    0 -0.00000000000E+00  0.00000000000E+00  0.11960299262E+04  0.11960299262E+04  0.00000000000E+00 0. -1.
         21   -1    0    0  503  502  0.00000000000E+00 -0.00000000000E+00 -0.15441576544E+03  0.15441576544E+03  0.00000000000E+00 0. -1.
         25    1    1    2    0    0 -0.40307276589E+03 -0.14287806933E+02  0.42259677328E+03  0.59739838368E+03  0.12500000000E+03 0.  0.
         21    1    1    2  503  501  0.37882982616E+03  0.47636845707E+02  0.51453429455E+03  0.64072368969E+03  0.00000000000E+00 0. -1.
          2    1    1    2  501    0  0.24242939734E+02 -0.33349038774E+02  0.10448309288E+03  0.11232361823E+03  0.00000000000E+00 0. -1.
<mgrwt>
<rscale>  4 0.41225401E+03</rscale>
<asrwt>0</asrwt>
<pdfrwt beam="1">  1       21 0.23756272E-01 0.41225401E+03</pdfrwt>
<pdfrwt beam="2">  1        2 0.18400460E+00 0.41225401E+03</pdfrwt>
<totfact> 0.40078520E+03</totfact>
</mgrwt>
</event>
<event>
 5    0  0.3040647E+000  0.2449618E+03  0.7546771E-02  0.1116531E+00
          1   -1    0    0  502    0 -0.00000000000E+00  0.00000000000E+00  0.54678089958E+03  0.54678089958E+03  0.00000000000E+00 0.  1.
         21   -1    0    0  503  502  0.00000000000E+00 -0.00000000000E+00 -0.13918244790E+03  0.13918244790E+03  0.00000000000E+00 0. -1.
         25    1    1    2    0    0 -0.17063630977E+03 -0.11524304310E+03  0.39493388397E+02  0.24409513908E+03  0.12500000000E+03 0.  0.
         21    1    1    2  503  501 -0.20571156983E+02 -0.48891749402E+00  0.24889971884E+02  0.32294306623E+02  0.00000000000E+00 0.  1.
          1    1    1    2  501    0  0.19120746675E+03  0.11573196060E+03  0.34321509141E+03  0.40957390177E+03  0.00000000000E+00 0.  1.
<mgrwt>
<rscale>  4 0.24496176E+03</rscale>
<asrwt>0</asrwt>
<pdfrwt beam="1">  1       21 0.21412685E-01 0.24496176E+03</pdfrwt>
<pdfrwt beam="2">  1        1 0.84120137E-01 0.24496176E+03</pdfrwt>
<totfact> 0.88865493E+03</totfact>
</mgrwt>
</event>
<event>
 5    0  0.3040647E+000  0.2693439E+03  0.7546771E-02  0.1101656E+00
          2   -1    0    0  502    0 -0.00000000000E+00  0.00000000000E+00  0.80727368278E+03  0.80727368278E+03  0.00000000000E+00 0.  1.
         21   -1    0    0  503  502  0.00000000000E+00 -0.00000000000E+00 -0.10247498720E+03  0.10247498720E+03  0.00000000000E+00 0.  1.
         25    1    1    2    0    0 -0.23711262315E+03 -0.21029495541E+02  0.21396688977E+03  0.34361528728E+03  0.12500000000E+03 0.  0.
         21    1    1    2  503  501 -0.21067002344E+01  0.34089976799E+02  0.25071985114E+02  0.42369436409E+02  0.00000000000E+00 0.  1.
          2    1    1    2  501    0  0.23921932338E+03 -0.13060481258E+02  0.46575982070E+03  0.52376394628E+03  0.00000000000E+00 0.  1.
<mgrwt>
<rscale>  4 0.26934387E+03</rscale>
<asrwt>0</asrwt>
<pdfrwt beam="1">  1       21 0.15765383E-01 0.26934387E+03</pdfrwt>
<pdfrwt beam="2">  1        2 0.12419595E+00 0.26934387E+03</pdfrwt>
<totfact> 0.15640929E+04</totfact>
</mgrwt>
</event>
<event>
 5    0  0.3040647E+000  0.2110849E+03  0.7546771E-02  0.1140710E+00
         -3   -1    0    0    0  501 -0.00000000000E+00  0.00000000000E+00  0.10842189122E+04  0.10842189122E+04  0.00000000000E+00 0.  1.
         21   -1    0    0  501  502  0.00000000000E+00 -0.00000000000E+00 -0.12480721091E+04  0.12480721091E+04  0.00000000000E+00 0. -1.
         25    1    1    2    0    0  0.20749082217E+03 -0.73876354945E+02  0.13834888317E+03  0.28857506923E+03  0.12500000000E+03 0.  0.
         21    1    1    2  503  502 -0.51936418088E+02  0.19217382824E+02 -0.11644901808E+04  0.11658061933E+04  0.00000000000E+00 0. -1.
         -3    1    1    2    0  503 -0.15555440408E+03  0.54658972121E+02  0.86228810073E+03  0.87790975876E+03  0.00000000000E+00 0.  1.
<mgrwt>
<rscale>  4 0.21108486E+03</rscale>
<asrwt>0</asrwt>
<pdfrwt beam="1">  1       21 0.19201109E+00 0.21108486E+03</pdfrwt>
<pdfrwt beam="2">  1       -3 0.16680291E+00 0.21108486E+03</pdfrwt>
<totfact> 0.19196580E+00</totfact>
</mgrwt>
</event>
<event>
 5    0  0.3040647E+000  0.6767393E+03  0.7546771E-02  0.9757859E-01
          2   -1    0    0  502    0 -0.00000000000E+00  0.00000000000E+00  0.19222171199E+04  0.19222171199E+04  0.00000000000E+00 0. -1.
         21   -1    0    0  503  502  0.00000000000E+00 -0.00000000000E+00 -0.32189690076E+03  0.32189690076E+03  0.00000000000E+00 0. -1.
         25    1    1    2    0    0  0.32179063638E+01  0.67989664327E+03  0.37314578933E+03  0.78557786409E+03  0.12500000000E+03 0.  0.
         21    1    1    2  503  501 -0.78383331726E+00 -0.20630646156E+02 -0.31496350817E+02  0.37659767262E+02  0.00000000000E+00 0. -1.
          2    1    1    2  501    0 -0.24340730465E+01 -0.65926599711E+03  0.12586707806E+04  0.14208763893E+04  0.00000000000E+00 0. -1.
<mgrwt>
<rscale>  4 0.67673931E+03</rscale>
<asrwt>0</asrwt>
<pdfrwt beam="1">  1       21 0.49522601E-01 0.67673931E+03</pdfrwt>
<pdfrwt beam="2">  1        2 0.29572570E+00 0.67673931E+03</pdfrwt>
<totfact> 0.33835947E+02</totfact>
</mgrwt>
</event>
<event>
 5    0  0.3040647E+000  0.3056365E+03  0.7546771E-02  0.1082456E+00
         21   -1    0    0  503  502  0.00000000000E+00  0.00000000000E+00  0.92962024345E+03  0.92962024345E+03  0.00000000000E+00 0. -1.
          4   -1    0    0  502    0 -0.00000000000E+00 -0.00000000000E+00 -0.30233529015E+03  0.30233529015E+03  0.00000000000E+00 0. -1.
         25    1    1    2    0    0 -0.24409519765E+03  0.11018446800E+03  0.76455889255E+03  0.81969407872E+03  0.12500000000E+03 0.  0.
         21    1    1    2  503  501 -0.11343778010E+01  0.24922455460E+02  0.63173041128E+02  0.67920900499E+02  0.00000000000E+00 0.  1.
          4    1    1    2  501    0  0.24522957545E+03 -0.13510692346E+03 -0.20044698038E+03  0.34434055438E+03  0.00000000000E+00 0. -1.
<mgrwt>
<rscale>  4 0.30563651E+03</rscale>
<asrwt>0</asrwt>
<pdfrwt beam="1">  1       21 0.14301850E+00 0.30563651E+03</pdfrwt>
<pdfrwt beam="2">  1        4 0.46513122E-01 0.30563651E+03</pdfrwt>
<totfact> 0.61644718E+01</totfact>
</mgrwt>
</event>
<event>
 5    0  0.3040647E+000  0.3327652E+03  0.7546771E-02  0.1069920E+00
         21   -1    0    0  503  502  0.00000000000E+00  0.00000000000E+00  0.95742329880E+02  0.95742329880E+02  0.00000000000E+00 0.  1.
          1   -1    0    0  502    0 -0.00000000000E+00 -0.00000000000E+00 -0.13905772223E+04  0.13905772223E+04  0.00000000000E+00 0.  1.
         25    1    1    2    0    0  0.38674646147E+02 -0.32626028827E+03 -0.42739931498E+03  0.55338655423E+03  0.12500000000E+03 0.  0.
         21    1    1    2  503  501 -0.15077182229E+02  0.27055603788E+02 -0.29129622617E+02  0.42518960878E+02  0.00000000000E+00 0.  1.
          1    1    1    2  501    0 -0.23597463918E+02  0.29920468448E+03 -0.83830595485E+03  0.89041403710E+03  0.00000000000E+00 0.  1.
<mgrwt>
<rscale>  4 0.33276516E+03</rscale>
<asrwt>0</asrwt>
<pdfrwt beam="1">  1       21 0.14729589E-01 0.33276516E+03</pdfrwt>
<pdfrwt beam="2">  1        1 0.21393496E+00 0.33276516E+03</pdfrwt>
<totfact> 0.37069311E+03</totfact>
</mgrwt>
</event>
<event>
 5    0  0.3040647E+000  0.3998944E+03  0.7546771E-02  0.1043816E+00
          2   -1    0    0  502    0 -0.00000000000E+00  0.00000000000E+00  0.21545824143E+04  0.21545824143E+04  0.00000000000E+00 0. -1.
         21   -1    0    0  503  502  0.00000000000E+00 -0.00000000000E+00 -0.10165295797E+03  0.10165295797E+03  0.00000000000E+00 0. -1.
         25    1    1    2    0    0  0.27222545296E+03 -0.28502817052E+03  0.55553026637E+03  0.69252193617E+03  0.12500000000E+03 0.  0.
         21    1    1    2  503  501 -0.23586769995E+02  0.41909505261E+01  0.44489744633E+01  0.24365819479E+02  0.00000000000E+00 0.  1.
          2    1    1    2  501    0 -0.24863868296E+03  0.28083722000E+03  0.14929502155E+04  0.15393476166E+04  0.00000000000E+00 0. -1.
<mgrwt>
<rscale>  4 0.39989436E+03</rscale>
<asrwt>0</asrwt>
<pdfrwt beam="1">  1       21 0.15638918E-01 0.39989436E+03</pdfrwt>
<pdfrwt beam="2">  1        2 0.33147418E+00 0.39989436E+03</pdfrwt>
<totfact> 0.26722314E+03</totfact>
</mgrwt>
</event>
<event>
 5    0  0.3040647E+000  0.2410046E+03  0.7546771E-02  0.1119125E+00
         21   -1    0    0  503  502  0.00000000000E+00  0.00000000000E+00  0.41315132057E+03  0.41315132057E+03  0.00000000000E+00 0. -1.
          1   -1    0    0  502    0 -0.00000000000E+00 -0.00000000000E+00 -0.21831361263E+03  0.21831361263E+03  0.00000000000E+00 0. -1.
         25    1    1    2    0    0  0.11385900816E+03 -0.17948719878E+03  0.28881068270E+03  0.37975800019E+03  0.12500000000E+03 0.  0.
         21    1    1    2  503  501  0.32282251309E+01  0.37038570054E+02  0.11953795447E+02  0.39053429232E+02  0.00000000000E+00 0. -1.
          1    1    1    2  501    0 -0.11708723329E+03  0.14244862872E+03 -0.10592677020E+03  0.21265350378E+03  0.00000000000E+00 0. -1.
<mgrwt>
<rscale>  4 0.24100461E+03</rscale>
<asrwt>0</asrwt>
<pdfrwt beam="1">  1       21 0.63561741E-01 0.24100461E+03</pdfrwt>
<pdfrwt beam="2">  1        1 0.33586710E-01 0.24100461E+03</pdfrwt>
<totfact> 0.32105655E+03</totfact>
</mgrwt>
</event>
<event>
 5    0  0.3040647E+000  0.2898998E+03  0.7546771E-02  0.1090401E+00
          2   -1    0    0  502    0 -0.00000000000E+00  0.00000000000E+00  0.37142207813E+03  0.37142207813E+03  0.00000000000E+00 0.  1.
         21   -1    0    0  503  502  0.00000000000E+00 -0.00000000000E+00 -0.24287300377E+03  0.24287300377E+03  0.00000000000E+00 0.  1.
         25    1    1    2    0    0  0.25641041106E+03 -0.10107846508E+03  0.10436720691E+03  0.32012602031E+03  0.12500000000E+03 0.  0.
         21    1    1    2  503  501 -0.16703978236E+02  0.35343716612E+02 -0.16269537737E+02  0.42342638688E+02  0.00000000000E+00 0. -1.
          2    1    1    2  501    0 -0.23970643282E+03  0.65734748463E+02  0.40451405185E+02  0.25182642290E+03  0.00000000000E+00 0.  1.
<mgrwt>
<rscale>  4 0.28989981E+03</rscale>
<asrwt>0</asrwt>
<pdfrwt beam="1">  1       21 0.37365078E-01 0.28989981E+03</pdfrwt>
<pdfrwt beam="2">  1        2 0.57141858E-01 0.28989981E+03</pdfrwt>
<totfact> 0.72833333E+03</totfact>
</mgrwt>
</event>
<event>
 5    0  0.3040647E+000  0.5073864E+03  0.7546771E-02  0.1011869E+00
          2   -1    0    0  502    0 -0.00000000000E+00  0.00000000000E+00  0.17174200721E+04  0.17174200721E+04  0.00000000000E+00 0.  1.
         21   -1    0    0  503  502  0.00000000000E+00 -0.00000000000E+00 -0.86958032426E+03  0.86958032426E+03  0.00000000000E+00 0.  1.
         25    1    1    2    0    0  0.14975169046E+03  0.43412357765E+03 -0.43959825230E+03  0.64788924431E+03  0.12500000000E+03 0.  0.
         21    1    1    2  503  501  0.20503579397E+02  0.29628707038E+02 -0.28686362822E+03  0.28911762009E+03  0.00000000000E+00 0.  1.
          2    1    1    2  501    0 -0.17025526986E+03 -0.46375228469E+03  0.15743016283E+04  0.16499935319E+04  0.00000000000E+00 0.  1.
<mgrwt>
<rscale>  4 0.50738639E+03</rscale>
<asrwt>0</asrwt>
<pdfrwt beam="1">  1       21 0.13378159E+00 0.50738639E+03</pdfrwt>
<pdfrwt beam="2">  1        2 0.26421847E+00 0.50738639E+03</pdfrwt>
<totfact> 0.44363252E+01</totfact>
</mgrwt>
</event>
<event>
 5    0  0.3040647E+000  0.4527970E+03  0.7546771E-02  0.1026891E+00
          4   -1    0    0  502    0 -0.00000000000E+00  0.00000000000E+00  0.11732597006E+04  0.11732597006E+04  0.00000000000E+00 0.  1.
         21   -1    0    0  503  502  0.00000000000E+00 -0.00000000000E+00 -0.19721901363E+03  0.19721901363E+03  0.00000000000E+00 0.  1.
         25    1    1    2    0    0 -0.64747646371E+02  0.42692360505E+03  0.27626041719E+03  0.52763703468E+03  0.12500000000E+03 0.  0.
         21    1    1    2  503  501  0.26274768855E+02  0.85983630060E+01  0.18258939774E+02  0.33131317608E+02  0.00000000000E+00 0.  1.
          4    1    1    2  501    0  0.38472877515E+02 -0.43552196806E+03  0.68152133001E+03  0.80971036193E+03  0.00000000000E+00 0.  1.
<mgrwt>
<rscale>  4 0.45279697E+03</rscale>
<asrwt>0</asrwt>
<pdfrwt beam="1">  1       21 0.30341387E-01 0.45279697E+03</pdfrwt>
<pdfrwt beam="2">  1        4 0.18050149E+00 0.45279697E+03</pdfrwt>
<totfact> 0.80562386E+01</totfact>
</mgrwt>
</event>
<event>
 5    0  0.3040647E+000  0.3063424E+03  0.7546771E-02  0.1082112E+00
         21   -1    0    0  503  502  0.00000000000E+00  0.00000000000E+00  0.10352912554E+03  0.10352912554E+03  0.00000000000E+00 0. -1.
          2   -1    0    0  502    0 -0.00000000000E+00 -0.00000000000E+00 -0.12555186868E+04  0.12555186868E+04  0.00000000000E+00 0.  1.
         25    1    1    2    0    0  0.12567401244E+03 -0.23143681531E+03 -0.19535778728E+03  0.35092252982E+03  0.12500000000E+03 0.  0.
         21    1    1    2  503  501  0.13365403532E+02 -0.16316928158E+02 -0.18968099807E+02  0.28366617112E+02  0.00000000000E+00 0.  1.
          2    1    1    2  501    0 -0.13903941597E+03  0.24775374347E+03 -0.93766367413E+03  0.97975866538E+03  0.00000000000E+00 0.  1.
<mgrwt>
<rscale>  4 0.30634239E+03</rscale>
<asrwt>0</asrwt>
<pdfrwt beam="1">  1       21 0.15927559E-01 0.30634239E+03</pdfrwt>
<pdfrwt beam="2">  1        2 0.19315671E+00 0.30634239E+03</pdfrwt>
<totfact> 0.80798800E+03</totfact>
</mgrwt>
</event>
<event>
 5    0  0.3040647E+000  0.2658988E+03  0.7546771E-02  0.1103650E+00
          2   -1    0    0  502    0 -0.00000000000E+00  0.00000000000E+00  0.62236489900E+03  0.62236489900E+03  0.00000000000E+00 0. -1.
         21   -1    0    0  503  502  0.00000000000E+00 -0.00000000000E+00 -0.14306565360E+03  0.14306565360E+03  0.00000000000E+00 0. -1.
         25    1    1    2    0    0 -0.20889769267E+03  0.11942088984E+03  0.15773064682E+03  0.31369340427E+03  0.12500000000E+03 0.  0.
         21    1    1    2  503  501 -0.14280510949E+01 -0.20919259849E+02 -0.26193969691E+02  0.33552627479E+02  0.00000000000E+00 0. -1.
          2    1    1    2  501    0  0.21032574376E+03 -0.98501629987E+02  0.34776256827E+03  0.41818452086E+03  0.00000000000E+00 0. -1.
<mgrwt>
<rscale>  4 0.26589875E+03</rscale>
<asrwt>0</asrwt>
<pdfrwt beam="1">  1       21 0.22010101E-01 0.26589875E+03</pdfrwt>
<pdfrwt beam="2">  1        2 0.95748444E-01 0.26589875E+03</pdfrwt>
<totfact> 0.11537200E+04</totfact>
</mgrwt>
</event>
<event>
 5    0  0.3040647E+000  0.2348700E+03  0.7546771E-02  0.1123258E+00
          2   -1    0    0  502    0 -0.00000000000E+00  0.00000000000E+00  0.17394603862E+04  0.17394603862E+04  0.00000000000E+00 0. -1.
         21   -1    0    0  503  502  0.00000000000E+00 -0.00000000000E+00 -0.93135182415E+02  0.93135182415E+02  0.00000000000E+00 0. -1.
         25    1    1    2    0    0 -0.14509337971E+03  0.17896937402E+03  0.45052160202E+03  0.52122628441E+03  0.12500000000E+03 0.  0.
         21    1    1    2  503  501  0.99415534103E+02 -0.16089541913E+03  0.99017433581E+02  0.21348357424E+03  0.00000000000E+00 0. -1.
          2    1    1    2  501    0  0.45677845605E+02 -0.18073954894E+02  0.10967861682E+04  0.10978857100E+04  0.00000000000E+00 0. -1.
<mgrwt>
<rscale>  4 0.23486997E+03</rscale>
<asrwt>0</asrwt>
<pdfrwt beam="1">  1       21 0.14328491E-01 0.23486997E+03</pdfrwt>
<pdfrwt beam="2">  1        2 0.26760927E+00 0.23486997E+03</pdfrwt>
<totfact> 0.55044815E+03</totfact>
</mgrwt>
</event>
<event>
 5    0  0.3040647E+000  0.2636673E+03  0.7546771E-02  0.1104960E+00
         21   -1    0    0  503  502  0.00000000000E+00  0.00000000000E+00  0.13992605401E+03  0.13992605401E+03  0.00000000000E+00 0.  1.
          2   -1    0    0  502    0 -0.00000000000E+00 -0.00000000000E+00 -0.66488987472E+03  0.66488987472E+03  0.00000000000E+00 0.  1.
         25    1    1    2    0    0  0.15042982722E+03  0.17682285055E+03 -0.49182289072E+03  0.55804140458E+03  0.12500000000E+03 0.  0.
         21    1    1    2  503  501 -0.37502454670E+02 -0.75779167084E+01  0.82649282999E+01  0.39142917210E+02  0.00000000000E+00 0.  1.
          2    1    1    2  501    0 -0.11292737255E+03 -0.16924493384E+03 -0.41405858284E+02  0.20763160694E+03  0.00000000000E+00 0.  1.
<mgrwt>
<rscale>  4 0.26366732E+03</rscale>
<asrwt>0</asrwt>
<pdfrwt beam="1">  1       21 0.21527086E-01 0.26366732E+03</pdfrwt>
<pdfrwt beam="2">  1        2 0.10229075E+00 0.26366732E+03</pdfrwt>
<totfact> 0.11128917E+04</totfact>
</mgrwt>
</event>
<event>
 5    0  0.3040647E+000  0.2750175E+03  0.7546771E-02  0.1098442E+00
          1   -1    0    0  502    0 -0.00000000000E+00  0.00000000000E+00  0.19316170510E+04  0.19316170510E+04  0.00000000000E+00 0.  1.
         21   -1    0    0  503  502  0.00000000000E+00 -0.00000000000E+00 -0.57990871059E+02  0.57990871059E+02  0.00000000000E+00 0.  1.
         25    1    1    2    0    0  0.10009658734E+03  0.20984501299E+03  0.35589241583E+03  0.44310119377E+03  0.12500000000E+03 0.  0.
         21    1    1    2  503  501  0.29459498250E+02  0.18550485121E+01  0.51038963472E+02  0.58959978244E+02  0.00000000000E+00 0. -1.
          1    1    1    2  501    0 -0.12955608559E+03 -0.21170006151E+03  0.14666948006E+04  0.14875467500E+04  0.00000000000E+00 0.  1.
<mgrwt>
<rscale>  4 0.27501748E+03</rscale>
<asrwt>0</asrwt>
<pdfrwt beam="1">  1       21 0.89216739E-02 0.27501748E+03</pdfrwt>
<pdfrwt beam="2">  1        1 0.29717181E+00 0.27501748E+03</pdfrwt>
<totfact> 0.40966800E+03</totfact>
</mgrwt>
</event>
<event>
 5    0  0.3040647E+000  0.2250546E+03  0.7546771E-02  0.1130170E+00
          1   -1    0    0  502    0 -0.00000000000E+00  0.00000000000E+00  0.28351229423E+03  0.28351229423E+03  0.00000000000E+00 0. -1.
         21   -1    0    0  503  502  0.00000000000E+00 -0.00000000000E+00 -0.64791860264E+03  0.64791860264E+03  0.00000000000E+00 0.  1.
         25    1    1    2    0    0 -0.25206580675E+03 -0.42673323225E+02 -0.15666800089E+03  0.32485080568E+03  0.12500000000E+03 0.  0.
         21    1    1    2  503  501  0.75778268991E+02  0.44161281472E+02 -0.36190790627E+03  0.37238407250E+03  0.00000000000E+00 0.  1.
          1    1    1    2  501    0  0.17628753776E+03 -0.14879582476E+01  0.15416959875E+03  0.23419601869E+03  0.00000000000E+00 0. -1.
<mgrwt>
<rscale>  4 0.22505456E+03</rscale>
<asrwt>0</asrwt>
<pdfrwt beam="1">  1       21 0.99679784E-01 0.22505456E+03</pdfrwt>
<pdfrwt beam="2">  1        1 0.43617277E-01 0.22505456E+03</pdfrwt>
<totfact> 0.83642300E+02</totfact>
</mgrwt>
</event>
<event>
 5    0  0.3040647E+000  0.2172359E+03  0.7546771E-02  0.1135961E+00
         21   -1    0    0  503  502  0.00000000000E+00  0.00000000000E+00  0.10689373041E+04  0.10689373041E+04  0.00000000000E+00 0. -1.
          1   -1    0    0  502    0 -0.00000000000E+00 -0.00000000000E+00 -0.11074447653E+04  0.11074447653E+04  0.00000000000E+00 0. -1.
         25    1    1    2    0    0  0.16456280871E+03  0.11639667378E+03  0.73121600763E+03  0.76872033503E+03  0.12500000000E+03 0.  0.
         21    1    1    2  503  501 -0.27770587122E+01 -0.43441893456E+02  0.31020656716E+03  0.31324594885E+03  0.00000000000E+00 0. -1.
          1    1    1    2  501    0 -0.16178575000E+03 -0.72954780326E+02 -0.10799300360E+04  0.10944157855E+04  0.00000000000E+00 0. -1.
<mgrwt>
<rscale>  4 0.21723588E+03</rscale>
<asrwt>0</asrwt>
<pdfrwt beam="1">  1       21 0.16445189E+00 0.21723588E+03</pdfrwt>
<pdfrwt beam="2">  1        1 0.17037612E+00 0.21723588E+03</pdfrwt>
<totfact> 0.34194551E+01</totfact>
</mgrwt>
</event>
<event>
 5    0  0.3040647E+000  0.3445404E+03  0.7546771E-02  0.1064878E+00
         21   -1    0    0  503  502  0.00000000000E+00  0.00000000000E+00  0.57851376966E+02  0.57851376966E+02  0.00000000000E+00 0. -1.
          2   -1    0    0  502    0 -0.00000000000E+00 -0.00000000000E+00 -0.30482795502E+04  0.30482795502E+04  0.00000000000E+00 0. -1.
         25    1    1    2    0    0  0.13795469896E+03  0.28541152743E+03 -0.66135789096E+03  0.74398286196E+03  0.12500000000E+03 0.  0.
         21    1    1    2  503  501 -0.17343261912E+02  0.13486693215E+02 -0.17158016180E+02  0.27876103509E+02  0.00000000000E+00 0.  1.
          2    1    1    2  501    0 -0.12061143705E+03 -0.29889822064E+03 -0.23119122661E+04  0.23342719617E+04  0.00000000000E+00 0. -1.
<mgrwt>
<rscale>  4 0.34454038E+03</rscale>
<asrwt>0</asrwt>
<pdfrwt beam="1">  1       21 0.89002067E-02 0.34454038E+03</pdfrwt>
<pdfrwt beam="2">  1        2 0.46896635E+00 0.34454038E+03</pdfrwt>
<totfact> 0.23691750E+03</totfact>
</mgrwt>
</event>
<event>
 5    0  0.3040647E+000  0.2317906E+03  0.7546771E-02  0.1125386E+00
         21   -1    0    0  501  502  0.00000000000E+00  0.00000000000E+00  0.43040121550E+03  0.43040121550E+03  0.00000000000E+00 0.  1.
         -1   -1    0    0    0  501 -0.00000000000E+00 -0.00000000000E+00 -0.23797890372E+03  0.23797890372E+03  0.00000000000E+00 0.  1.
         25    1    1    2    0    0  0.23625208175E+01  0.20413355065E+03  0.23988915392E+03  0.33889215715E+03  0.12500000000E+03 0.  0.
         21    1    1    2  503  502 -0.17376410353E+02 -0.10950167062E+02  0.89741224820E+02  0.92061573024E+02  0.00000000000E+00 0. -1.
         -1    1    1    2    0  503  0.15013889535E+02 -0.19318338359E+03 -0.13720806696E+03  0.23742638904E+03  0.00000000000E+00 0.  1.
<mgrwt>
<rscale>  4 0.23179056E+03</rscale>
<asrwt>0</asrwt>
<pdfrwt beam="1">  1       21 0.66215571E-01 0.23179056E+03</pdfrwt>
<pdfrwt beam="2">  1       -1 0.36612139E-01 0.23179056E+03</pdfrwt>
<totfact> 0.13695232E+03</totfact>
</mgrwt>
</event>
<event>
 5    0  0.3040647E+000  0.2504852E+03  0.7546771E-02  0.1112999E+00
         -1   -1    0    0    0  501 -0.00000000000E+00  0.00000000000E+00  0.70266707977E+03  0.70266707977E+03  0.00000000000E+00 0. -1.
         21   -1    0    0  501  502  0.00000000000E+00 -0.00000000000E+00 -0.20909843491E+03  0.20909843491E+03  0.00000000000E+00 0. -1.
         25    1    1    2    0    0  0.52255205815E+02 -0.21536571738E+03  0.13196002891E+03  0.28662073894E+03  0.12500000000E+03 0.  0.
         21    1    1    2  503  502 -0.20011645115E+02  0.19121063540E+01 -0.10717489720E+03  0.10904393922E+03  0.00000000000E+00 0. -1.
         -1    1    1    2    0  503 -0.32243560700E+02  0.21345361103E+03  0.46878351314E+03  0.51610083653E+03  0.00000000000E+00 0. -1.
<mgrwt>
<rscale>  4 0.25048518E+03</rscale>
<asrwt>0</asrwt>
<pdfrwt beam="1">  1       21 0.32168990E-01 0.25048518E+03</pdfrwt>
<pdfrwt beam="2">  1       -1 0.10810263E+00 0.25048518E+03</pdfrwt>
<totfact> 0.72120072E+02</totfact>
</mgrwt>
</event>
<event>
 5    0  0.3040647E+000  0.2478622E+03  0.7546771E-02  0.1114663E+00
         21   -1    0    0  503  502  0.00000000000E+00  0.00000000000E+00  0.83856602159E+02  0.83856602159E+02  0.00000000000E+00 0. -1.
          1   -1    0    0  502    0 -0.00000000000E+00 -0.00000000000E+00 -0.93674990016E+03  0.93674990016E+03  0.00000000000E+00 0.  1.
         25    1    1    2    0    0  0.20751173340E+03 -0.53577225896E+02 -0.23107004122E+03  0.33904277398E+03  0.12500000000E+03 0.  0.
         21    1    1    2  503  501 -0.10102931914E+02 -0.30445136790E+02 -0.10605936431E+02  0.33785521677E+02  0.00000000000E+00 0.  1.
          1    1    1    2  501    0 -0.19740880149E+03  0.84022362686E+02 -0.61121732035E+03  0.64777820667E+03  0.00000000000E+00 0.  1.
<mgrwt>
<rscale>  4 0.24786219E+03</rscale>
<asrwt>0</asrwt>
<pdfrwt beam="1">  1       21 0.12901016E-01 0.24786219E+03</pdfrwt>
<pdfrwt beam="2">  1        1 0.14411536E+00 0.24786219E+03</pdfrwt>
<totfact> 0.10185677E+04</totfact>
</mgrwt>
</event>
<event>
 5    0  0.3040647E+000  0.3039901E+03  0.7546771E-02  0.1083263E+00
         21   -1    0    0  503  502  0.00000000000E+00  0.00000000000E+00  0.12604267695E+04  0.12604267695E+04  0.00000000000E+00 0. -1.
          2   -1    0    0  502    0 -0.00000000000E+00 -0.00000000000E+00 -0.88776735685E+02  0.88776735685E+02  0.00000000000E+00 0. -1.
         25    1    1    2    0    0  0.72996835631E+02  0.23842531148E+03  0.35813735586E+03  0.45394111163E+03  0.12500000000E+03 0.  0.
         21    1    1    2  503  501 -0.11566731314E+03 -0.27632031117E+03  0.55660458426E+03  0.63209216489E+03  0.00000000000E+00 0. -1.
          2    1    1    2  501    0  0.42670477513E+02  0.37894999688E+02  0.25690809373E+03  0.26317022871E+03  0.00000000000E+00 0. -1.
<mgrwt>
<rscale>  4 0.30399005E+03</rscale>
<asrwt>0</asrwt>
<pdfrwt beam="1">  1       21 0.19391180E+00 0.30399005E+03</pdfrwt>
<pdfrwt beam="2">  1        2 0.13657960E-01 0.30399005E+03</pdfrwt>
<totfact> 0.73513784E+02</totfact>
</mgrwt>
</event>
<event>
 5    0  0.3040647E+000  0.2254717E+03  0.7546771E-02  0.1129868E+00
          2   -1    0    0  502    0 -0.00000000000E+00  0.00000000000E+00  0.14105124766E+04  0.14105124766E+04  0.00000000000E+00 0. -1.
         21   -1    0    0  503  502  0.00000000000E+00 -0.00000000000E+00 -0.18291363474E+03  0.18291363474E+03  0.00000000000E+00 0.  1.
         25    1    1    2    0    0  0.97846020790E+01 -0.25242010103E+03  0.95174219765E+03  0.99259753004E+03  0.12500000000E+03 0.  0.
         21    1    1    2  503  501  0.34088869883E+02  0.18120251305E+03 -0.10412378697E+03  0.21175024156E+03  0.00000000000E+00 0.  1.
          2    1    1    2  501    0 -0.43873471962E+02  0.71217587980E+02  0.37998043120E+03  0.38907833976E+03  0.00000000000E+00 0. -1.
<mgrwt>
<rscale>  4 0.22547170E+03</rscale>
<asrwt>0</asrwt>
<pdfrwt beam="1">  1       21 0.28140560E-01 0.22547170E+03</pdfrwt>
<pdfrwt beam="2">  1        2 0.21700191E+00 0.22547170E+03</pdfrwt>
<totfact> 0.23237257E+03</totfact>
</mgrwt>
</event>
<event>
 5    0  0.3040647E+000  0.2366111E+03  0.7546771E-02  0.1122071E+00
         -3   -1    0    0    0  501 -0.00000000000E+00  0.00000000000E+00  0.18286302177E+03  0.18286302177E+03  0.00000000000E+00 0.  1.
         21   -1    0    0  501  502  0.00000000000E+00 -0.00000000000E+00 -0.61194169312E+03  0.61194169312E+03  0.00000000000E+00 0.  1.
         25    1    1    2    0    0 -0.18465697075E+03 -0.12245963878E+03 -0.32700540531E+03  0.41430917813E+03  0.12500000000E+03 0.  0.
         21    1    1    2  503  502  0.15683774045E+02  0.21150197023E+02 -0.17005387623E+03  0.17208030807E+03  0.00000000000E+00 0.  1.
         -3    1    1    2    0  503  0.16897319670E+03  0.10130944176E+03  0.67980610191E+02  0.20841522870E+03  0.00000000000E+00 0.  1.
<mgrwt>
<rscale>  4 0.23661113E+03</rscale>
<asrwt>0</asrwt>
<pdfrwt beam="1">  1       21 0.94144875E-01 0.23661113E+03</pdfrwt>
<pdfrwt beam="2">  1       -3 0.28132773E-01 0.23661113E+03</pdfrwt>
<totfact> 0.55911887E+02</totfact>
</mgrwt>
</event>
<event>
 5    0  0.3040647E+000  0.1998469E+03  0.7546771E-02  0.1149868E+00
         21   -1    0    0  503  502  0.00000000000E+00  0.00000000000E+00  0.73414832326E+02  0.73414832326E+02  0.00000000000E+00 0. -1.
          1   -1    0    0  502    0 -0.00000000000E+00 -0.00000000000E+00 -0.21922708454E+04  0.21922708454E+04  0.00000000000E+00 0. -1.
         25    1    1    2    0    0  0.22062354885E+03 -0.15369090829E+03 -0.40051714953E+03  0.49833184995E+03  0.12500000000E+03 0.  0.
         21    1    1    2  503  501 -0.82514200836E+02  0.99959452134E+02 -0.17955684789E+03  0.22145235839E+03  0.00000000000E+00 0. -1.
          1    1    1    2  501    0 -0.13810934801E+03  0.53731456158E+02 -0.15387820156E+04  0.15459014694E+04  0.00000000000E+00 0. -1.
<mgrwt>
<rscale>  4 0.19984686E+03</rscale>
<asrwt>0</asrwt>
<pdfrwt beam="1">  1       21 0.11294589E-01 0.19984686E+03</pdfrwt>
<pdfrwt beam="2">  1        1 0.33727246E+00 0.19984686E+03</pdfrwt>
<totfact> 0.18903705E+03</totfact>
</mgrwt>
</event>
<event>
 5    0  0.3040647E+000  0.2039670E+03  0.7546771E-02  0.1146435E+00
         21   -1    0    0  503  502  0.00000000000E+00  0.00000000000E+00  0.37436365654E+03  0.37436365654E+03  0.00000000000E+00 0. -1.
          2   -1    0    0  502    0 -0.00000000000E+00 -0.00000000000E+00 -0.16233719039E+03  0.16233719039E+03  0.00000000000E+00 0.  1.
         25    1    1    2    0    0  0.79411717471E+02  0.18600379469E+03  0.16703023525E+02  0.23834349898E+03  0.12500000000E+03 0.  0.
         21    1    1    2  503  501 -0.57658114138E+02 -0.14018335203E+03  0.19582177976E+03  0.24763279214E+03  0.00000000000E+00 0. -1.
          2    1    1    2  501    0 -0.21753603333E+02 -0.45820442652E+02 -0.49833713419E+00  0.50724555815E+02  0.00000000000E+00 0.  1.
<mgrwt>
<rscale>  4 0.20396697E+03</rscale>
<asrwt>0</asrwt>
<pdfrwt beam="1">  1       21 0.57594408E-01 0.20396697E+03</pdfrwt>
<pdfrwt beam="2">  1        2 0.24974953E-01 0.20396697E+03</pdfrwt>
<totfact> 0.74565671E+03</totfact>
</mgrwt>
</event>
<event>
 5    0  0.3040647E+000  0.2446481E+03  0.7546771E-02  0.1116735E+00
         21   -1    0    0  503  502  0.00000000000E+00  0.00000000000E+00  0.59948944832E+03  0.59948944832E+03  0.00000000000E+00 0. -1.
          3   -1    0    0  502    0 -0.00000000000E+00 -0.00000000000E+00 -0.94745893077E+03  0.94745893077E+03  0.00000000000E+00 0.  1.
         25    1    1    2    0    0 -0.95890254880E+02 -0.17566625499E+03  0.45529641950E+03  0.51280932493E+03  0.12500000000E+03 0.  0.
         21    1    1    2  503  501  0.26208213467E+02 -0.23095764549E+02  0.10037323892E+03  0.10627827570E+03  0.00000000000E+00 0. -1.
          3    1    1    2  501    0  0.69682041413E+02  0.19876201954E+03 -0.90363914087E+03  0.92786077846E+03  0.00000000000E+00 0.  1.
<mgrwt>
<rscale>  4 0.24464813E+03</rscale>
<asrwt>0</asrwt>
<pdfrwt beam="1">  1       21 0.92229146E-01 0.24464813E+03</pdfrwt>
<pdfrwt beam="2">  1        3 0.14576291E+00 0.24464813E+03</pdfrwt>
<totfact> 0.17636512E+01</totfact>
</mgrwt>
</event>
<event>
 5    0  0.3040647E+000  0.2669112E+03  0.7546771E-02  0.1103061E+00
          3   -1    0    0  502    0 -0.00000000000E+00  0.00000000000E+00  0.59253578841E+03  0.59253578841E+03  0.00000000000E+00 0. -1.
         21   -1    0    0  503  502  0.00000000000E+00 -0.00000000000E+00 -0.38975190514E+03  0.38975190514E+03  0.00000000000E+00 0. -1.
         25    1    1    2    0    0 -0.22024630888E+03  0.86545974680E+02  0.28997496402E+03  0.39459995193E+03  0.12500000000E+03 0.  0.
         21    1    1    2  503  501 -0.21960996755E+02 -0.78488029811E+02 -0.27134201845E+03  0.28331810246E+03  0.00000000000E+00 0. -1.
          3    1    1    2  501    0  0.24220730564E+03 -0.80579448696E+01  0.18415093771E+03  0.30436963915E+03  0.00000000000E+00 0. -1.
<mgrwt>
<rscale>  4 0.26691124E+03</rscale>
<asrwt>0</asrwt>
<pdfrwt beam="1">  1       21 0.59961831E-01 0.26691124E+03</pdfrwt>
<pdfrwt beam="2">  1        3 0.91159352E-01 0.26691124E+03</pdfrwt>
<totfact> 0.14027342E+02</totfact>
</mgrwt>
</event>
<event>
 5    0  0.3040647E+000  0.2310843E+03  0.7546771E-02  0.1125879E+00
         21   -1    0    0  503  502  0.00000000000E+00  0.00000000000E+00  0.76704005908E+02  0.76704005908E+02  0.00000000000E+00 0. -1.
          1   -1    0    0  502    0 -0.00000000000E+00 -0.00000000000E+00 -0.13331103720E+04  0.13331103720E+04  0.00000000000E+00 0. -1.
         25    1    1    2    0    0  0.21537511276E+03  0.86727841257E+02 -0.44006052669E+03  0.51301698295E+03  0.12500000000E+03 0.  0.
         21    1    1    2  503  501 -0.29509298727E+02 -0.79110182264E+02 -0.31358397375E+02  0.90069799240E+02  0.00000000000E+00 0. -1.
          1    1    1    2  501    0 -0.18586581403E+03 -0.76176589936E+01 -0.78498744206E+03  0.80672759575E+03  0.00000000000E+00 0. -1.
<mgrwt>
<rscale>  4 0.23108426E+03</rscale>
<asrwt>0</asrwt>
<pdfrwt beam="1">  1       21 0.11800617E-01 0.23108426E+03</pdfrwt>
<pdfrwt beam="2">  1        1 0.20509389E+00 0.23108426E+03</pdfrwt>
<totfact> 0.62551245E+03</totfact>
</mgrwt>
</event>
<event>
 5    0  0.3040647E+000  0.2968126E+03  0.7546771E-02  0.1086845E+00
         21   -1    0    0  503  502  0.00000000000E+00  0.00000000000E+00  0.76492745995E+03  0.76492745995E+03  0.00000000000E+00 0.  1.
          3   -1    0    0  502    0 -0.00000000000E+00 -0.00000000000E+00 -0.22054600654E+03  0.22054600654E+03  0.00000000000E+00 0.  1.
         25    1    1    2    0    0 -0.11330389955E+03 -0.24288157097E+03  0.38155002218E+03  0.48273662653E+03  0.12500000000E+03 0.  0.
         21    1    1    2  503  501 -0.23748371985E+02  0.10537068035E+02  0.22452060935E+03  0.22601884655E+03  0.00000000000E+00 0.  1.
          3    1    1    2  501    0  0.13705227153E+03  0.23234450293E+03 -0.61689178118E+02  0.27671799340E+03  0.00000000000E+00 0.  1.
<mgrwt>
<rscale>  4 0.29681260E+03</rscale>
<asrwt>0</asrwt>
<pdfrwt beam="1">  1       21 0.11768115E+00 0.29681260E+03</pdfrwt>
<pdfrwt beam="2">  1        3 0.33930155E-01 0.29681260E+03</pdfrwt>
<totfact> 0.22587490E+02</totfact>
</mgrwt>
</event>
<event>
 5    0  0.3040647E+000  0.3367415E+03  0.7546771E-02  0.1068192E+00
          1   -1    0    0  502    0 -0.00000000000E+00  0.00000000000E+00  0.20122473040E+04  0.20122473040E+04  0.00000000000E+00 0.  1.
         21   -1    0    0  503  502  0.00000000000E+00 -0.00000000000E+00 -0.21269438073E+03  0.21269438073E+03  0.00000000000E+00 0.  1.
         25    1    1    2    0    0  0.19238627620E+03  0.27886047851E+03  0.79029511209E+00  0.36111116060E+03  0.12500000000E+03 0.  0.
         21    1    1    2  503  501 -0.46972583889E+01 -0.31156161114E+02 -0.63655739705E+01  0.32144846301E+02  0.00000000000E+00 0. -1.
          1    1    1    2  501    0 -0.18768901781E+03 -0.24770431739E+03  0.18051282021E+04  0.18316856778E+04  0.00000000000E+00 0.  1.
<mgrwt>
<rscale>  4 0.33674153E+03</rscale>
<asrwt>0</asrwt>
<pdfrwt beam="1">  1       21 0.32722214E-01 0.33674153E+03</pdfrwt>
<pdfrwt beam="2">  1        1 0.30957649E+00 0.33674153E+03</pdfrwt>
<totfact> 0.31273102E+02</totfact>
</mgrwt>
</event>
<event>
 5    0  0.3040647E+000  0.1996901E+03  0.7546771E-02  0.1150001E+00
          4   -1    0    0  502    0 -0.00000000000E+00  0.00000000000E+00  0.75116416384E+02  0.75116416384E+02  0.00000000000E+00 0.  1.
         21   -1    0    0  503  502  0.00000000000E+00 -0.00000000000E+00 -0.18483900610E+04  0.18483900610E+04  0.00000000000E+00 0.  1.
         25    1    1    2    0    0  0.21475938458E+03  0.11867533127E+03 -0.14768738072E+04  0.15023270848E+04  0.12500000000E+03 0.  0.
         21    1    1    2  503  501 -0.75417272942E+02 -0.64556710426E+02 -0.24291290830E+03  0.26241572921E+03  0.00000000000E+00 0.  1.
          4    1    1    2  501    0 -0.13934211164E+03 -0.54118620840E+02 -0.53486929093E+02  0.15876366329E+03  0.00000000000E+00 0.  1.
<mgrwt>
<rscale>  4 0.19969012E+03</rscale>
<asrwt>0</asrwt>
<pdfrwt beam="1">  1       21 0.28436767E+00 0.19969012E+03</pdfrwt>
<pdfrwt beam="2">  1        4 0.11556373E-01 0.19969012E+03</pdfrwt>
<totfact> 0.10425321E+02</totfact>
</mgrwt>
</event>
<event>
 5    0  0.3040647E+000  0.2650097E+03  0.7546771E-02  0.1104170E+00
          2   -1    0    0  502    0 -0.00000000000E+00  0.00000000000E+00  0.86075953557E+03  0.86075953557E+03  0.00000000000E+00 0. -1.
         21   -1    0    0  503  502  0.00000000000E+00 -0.00000000000E+00 -0.34149668617E+03  0.34149668617E+03  0.00000000000E+00 0.  1.
         25    1    1    2    0    0  0.24594825100E+01  0.21276410355E+03  0.19972684535E+03  0.31747507866E+03  0.12500000000E+03 0.  0.
         21    1    1    2  503  501  0.33918231999E+02  0.27532803403E+02 -0.25617529782E+03  0.25987359415E+03  0.00000000000E+00 0.  1.
          2    1    1    2  501    0 -0.36377714509E+02 -0.24029690695E+03  0.57571130187E+03  0.62490754893E+03  0.00000000000E+00 0. -1.
<mgrwt>
<rscale>  4 0.26500972E+03</rscale>
<asrwt>0</asrwt>
<pdfrwt beam="1">  1       21 0.52537952E-01 0.26500972E+03</pdfrwt>
<pdfrwt beam="2">  1        2 0.13242454E+00 0.26500972E+03</pdfrwt>
<totfact> 0.13565791E+03</totfact>
</mgrwt>
</event>
<event>
 5    0  0.5139256E+000  0.2542471E+03  0.7546771E-02  0.1110650E+00
         21   -1    0    0  503  502  0.00000000000E+00  0.00000000000E+00  0.62197510877E+03  0.62197510877E+03  0.00000000000E+00 0. -1.
          2   -1    0    0  502    0 -0.00000000000E+00 -0.00000000000E+00 -0.18558859231E+04  0.18558859231E+04  0.00000000000E+00 0. -1.
         25    1    1    2    0    0  0.13647137514E+03 -0.16242735035E+03 -0.15903722806E+04  0.16093216184E+04  0.12500000000E+03 0.  0.
         21    1    1    2  503  501 -0.12260739985E+03  0.18450664821E+03  0.59172607885E+03  0.63183465410E+03  0.00000000000E+00 0. -1.
          2    1    1    2  501    0 -0.13863975291E+02 -0.22079297855E+02 -0.23526461251E+03  0.23670475936E+03  0.00000000000E+00 0. -1.
<mgrwt>
<rscale>  4 0.25424713E+03</rscale>
<asrwt>0</asrwt>
<pdfrwt beam="1">  1       21 0.95688479E-01 0.25424713E+03</pdfrwt>
<pdfrwt beam="2">  1        2 0.28552091E+00 0.25424713E+03</pdfrwt>
<totfact> 0.98765694E+01</totfact>
</mgrwt>
</event>
<event>
 5    0  0.3040647E+000  0.2667272E+03  0.7546771E-02  0.1103167E+00
          1   -1    0    0  502    0 -0.00000000000E+00  0.00000000000E+00  0.70296696826E+03  0.70296696826E+03  0.00000000000E+00 0.  1.
         21   -1    0    0  503  502  0.00000000000E+00 -0.00000000000E+00 -0.26398463862E+03  0.26398463862E+03  0.00000000000E+00 0.  1.
         25    1    1    2    0    0 -0.46662948551E+02  0.23713086316E+03 -0.15478857222E+03  0.31303830296E+03  0.12500000000E+03 0.  0.
         21    1    1    2  503  501  0.50394586775E+01 -0.50340240444E+02  0.30625271795E+02  0.59139185184E+02  0.00000000000E+00 0.  1.
          1    1    1    2  501    0  0.41623489873E+02 -0.18679062272E+03  0.56314563007E+03  0.59477411873E+03  0.00000000000E+00 0.  1.
<mgrwt>
<rscale>  4 0.26672717E+03</rscale>
<asrwt>0</asrwt>
<pdfrwt beam="1">  1       21 0.40613022E-01 0.26672717E+03</pdfrwt>
<pdfrwt beam="2">  1        1 0.10814876E+00 0.26672717E+03</pdfrwt>
<totfact> 0.17681276E+03</totfact>
</mgrwt>
</event>
<event>
 5    0  0.3040647E+000  0.3588621E+03  0.7546771E-02  0.1059035E+00
          2   -1    0    0  502    0 -0.00000000000E+00  0.00000000000E+00  0.29714243704E+04  0.29714243704E+04  0.00000000000E+00 0.  1.
         21   -1    0    0  503  502  0.00000000000E+00 -0.00000000000E+00 -0.20373600942E+03  0.20373600942E+03  0.00000000000E+00 0. -1.
         25    1    1    2    0    0  0.37746198047E+03  0.35805254884E+01  0.16770059540E+04  0.17235035064E+04  0.12500000000E+03 0.  0.
         21    1    1    2  503  501 -0.33264685633E+03 -0.42731589157E+01 -0.26358727190E+02  0.33371690609E+03  0.00000000000E+00 0. -1.
          2    1    1    2  501    0 -0.44815124137E+02  0.69263342729E+00  0.11170411341E+04  0.11179399673E+04  0.00000000000E+00 0.  1.
<mgrwt>
<rscale>  4 0.35886208E+03</rscale>
<asrwt>0</asrwt>
<pdfrwt beam="1">  1       21 0.31344004E-01 0.35886208E+03</pdfrwt>
<pdfrwt beam="2">  1        2 0.45714218E+00 0.35886208E+03</pdfrwt>
<totfact> 0.24900220E+02</totfact>
</mgrwt>
</event>
<event>
 5    0  0.3040647E+000  0.5886043E+03  0.7546771E-02  0.9929335E-01
          4   -1    0    0  502    0 -0.00000000000E+00  0.00000000000E+00  0.12358686203E+04  0.12358686203E+04  0.00000000000E+00 0.  1.
         21   -1    0    0  503  502  0.00000000000E+00 -0.00000000000E+00 -0.95143522973E+03  0.95143522973E+03  0.00000000000E+00 0.  1.
         25    1    1    2    0    0 -0.54673027159E+03 -0.95600612837E+02 -0.75854225815E+03  0.94819028915E+03  0.12500000000E+03 0.  0.
         21    1    1    2  503  501 -0.24352408948E+02  0.13647294204E+02 -0.16723956351E+02  0.32541960246E+02  0.00000000000E+00 0.  1.
          4    1    1    2  501    0  0.57108268054E+03  0.81953318633E+02  0.10596996051E+04  0.12065716006E+04  0.00000000000E+00 0.  1.
<mgrwt>
<rscale>  4 0.58860428E+03</rscale>
<asrwt>0</asrwt>
<pdfrwt beam="1">  1       21 0.14637465E+00 0.58860428E+03</pdfrwt>
<pdfrwt beam="2">  1        4 0.19013363E+00 0.58860428E+03</pdfrwt>
<totfact> 0.18788100E+00</totfact>
</mgrwt>
</event>
<event>
 5    0  0.3040647E+000  0.2488465E+03  0.7546771E-02  0.1114036E+00
          2   -1    0    0  502    0 -0.00000000000E+00  0.00000000000E+00  0.58122230912E+02  0.58122230912E+02  0.00000000000E+00 0.  1.
         21   -1    0    0  503  502  0.00000000000E+00 -0.00000000000E+00 -0.14799944341E+04  0.14799944341E+04  0.00000000000E+00 0.  1.
         25    1    1    2    0    0 -0.74094932393E+02 -0.20527190821E+03 -0.35430704911E+03  0.43449407402E+03  0.12500000000E+03 0.  0.
         21    1    1    2  503  501  0.43788265228E+02  0.21029015307E+03 -0.10412443383E+04  0.10631693810E+04  0.00000000000E+00 0.  1.
          2    1    1    2  501    0  0.30306667165E+02 -0.50182448604E+01 -0.26320815794E+02  0.40453210011E+02  0.00000000000E+00 0.  1.
<mgrwt>
<rscale>  4 0.24884650E+03</rscale>
<asrwt>0</asrwt>
<pdfrwt beam="1">  1       21 0.22769146E+00 0.24884650E+03</pdfrwt>
<pdfrwt beam="2">  1        2 0.89418812E-02 0.24884650E+03</pdfrwt>
<totfact> 0.77638857E+02</totfact>
</mgrwt>
</event>
<event>
 5    0  0.3040647E+000  0.3530567E+03  0.7546771E-02  0.1061367E+00
         21   -1    0    0  503  502  0.00000000000E+00  0.00000000000E+00  0.66904216111E+02  0.66904216111E+02  0.00000000000E+00 0. -1.
          2   -1    0    0  502    0 -0.00000000000E+00 -0.00000000000E+00 -0.23987038947E+04  0.23987038947E+04  0.00000000000E+00 0. -1.
         25    1    1    2    0    0 -0.22262705967E+03  0.22469287561E+03 -0.78204337460E+03  0.85279923534E+03  0.12500000000E+03 0.  0.
         21    1    1    2  503  501  0.36016980074E+02  0.80604126657E+02 -0.27867665041E+03  0.29232674112E+03  0.00000000000E+00 0.  1.
          2    1    1    2  501    0  0.18661007960E+03 -0.30529700226E+03 -0.12710796536E+04  0.13204821343E+04  0.00000000000E+00 0. -1.
<mgrwt>
<rscale>  4 0.35305674E+03</rscale>
<asrwt>0</asrwt>
<pdfrwt beam="1">  1       21 0.10292957E-01 0.35305674E+03</pdfrwt>
<pdfrwt beam="2">  1        2 0.36903134E+00 0.35305674E+03</pdfrwt>
<totfact> 0.42861195E+03</totfact>
</mgrwt>
</event>
<event>
 5    0  0.3040647E+000  0.2757499E+03  0.7546771E-02  0.1098033E+00
         21   -1    0    0  501  502  0.00000000000E+00  0.00000000000E+00  0.18785971923E+03  0.18785971923E+03  0.00000000000E+00 0.  1.
         -2   -1    0    0    0  501 -0.00000000000E+00 -0.00000000000E+00 -0.56517203058E+03  0.56517203058E+03  0.00000000000E+00 0. -1.
         25    1    1    2    0    0  0.25118987036E+03 -0.10302824846E+03 -0.91376443140E+02  0.31254731692E+03  0.12500000000E+03 0.  0.
         21    1    1    2  503  502 -0.93212831753E+02 -0.57738783170E+02 -0.91237301921E+02  0.14264166413E+03  0.00000000000E+00 0.  1.
         -2    1    1    2    0  503 -0.15797703861E+03  0.16076703163E+03 -0.19469856630E+03  0.29784276876E+03  0.00000000000E+00 0. -1.
<mgrwt>
<rscale>  4 0.27574992E+03</rscale>
<asrwt>0</asrwt>
<pdfrwt beam="1">  1       21 0.28901495E-01 0.27574992E+03</pdfrwt>
<pdfrwt beam="2">  1       -2 0.86949543E-01 0.27574992E+03</pdfrwt>
<totfact> 0.10851146E+03</totfact>
</mgrwt>
</event>
<event>
 5    0  0.3040647E+000  0.3031045E+03  0.7546771E-02  0.1083699E+00
          1   -1    0    0  502    0 -0.00000000000E+00  0.00000000000E+00  0.72356601865E+03  0.72356601865E+03  0.00000000000E+00 0. -1.
         21   -1    0    0  503  502  0.00000000000E+00 -0.00000000000E+00 -0.13730942585E+03  0.13730942585E+03  0.00000000000E+00 0. -1.
         25    1    1    2    0    0  0.20745349874E+03 -0.16497111816E+03  0.37386058074E+03  0.47502542858E+03  0.12500000000E+03 0.  0.
         21    1    1    2  503  501  0.22208163579E+02 -0.16836834071E+02  0.91658562348E+01  0.29337594168E+02  0.00000000000E+00 0. -1.
          1    1    1    2  501    0 -0.22966166232E+03  0.18180795223E+03  0.20323015583E+03  0.35651242176E+03  0.00000000000E+00 0. -1.
<mgrwt>
<rscale>  4 0.30310454E+03</rscale>
<asrwt>0</asrwt>
<pdfrwt beam="1">  1       21 0.21124527E-01 0.30310454E+03</pdfrwt>
<pdfrwt beam="2">  1        1 0.11131785E+00 0.30310454E+03</pdfrwt>
<totfact> 0.60529800E+03</totfact>
</mgrwt>
</event>
<event>
 5    0  0.3040647E+000  0.2549505E+03  0.7546771E-02  0.1110216E+00
         21   -1    0    0  501  502  0.00000000000E+00  0.00000000000E+00  0.19952793638E+04  0.19952793638E+04  0.00000000000E+00 0.  1.
         -3   -1    0    0    0  501 -0.00000000000E+00 -0.00000000000E+00 -0.40791769437E+02  0.40791769437E+02  0.00000000000E+00 0. -1.
         25    1    1    2    0    0 -0.82845818112E+02  0.20070533873E+03  0.91477235023E+03  0.94846165728E+03  0.12500000000E+03 0.  0.
         21    1    1    2  503  502 -0.43554526381E+02 -0.12262729896E+02  0.50123806122E+03  0.50327623164E+03  0.00000000000E+00 0.  1.
         -3    1    1    2    0  503  0.12640034449E+03 -0.18844260883E+03  0.53847718291E+03  0.58433324433E+03  0.00000000000E+00 0. -1.
<mgrwt>
<rscale>  4 0.25495052E+03</rscale>
<asrwt>0</asrwt>
<pdfrwt beam="1">  1       21 0.30696598E+00 0.25495052E+03</pdfrwt>
<pdfrwt beam="2">  1       -3 0.62756584E-02 0.25495052E+03</pdfrwt>
<totfact> 0.23286247E+02</totfact>
</mgrwt>
</event>
<event>
 5    0  0.3040647E+000  0.3121246E+03  0.7546771E-02  0.1079332E+00
         21   -1    0    0  503  502  0.00000000000E+00  0.00000000000E+00  0.10520441023E+04  0.10520441023E+04  0.00000000000E+00 0.  1.
          2   -1    0    0  502    0 -0.00000000000E+00 -0.00000000000E+00 -0.96182207765E+03  0.96182207765E+03  0.00000000000E+00 0.  1.
         25    1    1    2    0    0 -0.25450273392E+03 -0.34418734037E+02  0.96439075443E+03  0.10057985972E+04  0.12500000000E+03 0.  0.
         21    1    1    2  503  501 -0.26936976742E+02 -0.20046151782E+02  0.38706852444E+02  0.51241285536E+02  0.00000000000E+00 0. -1.
          2    1    1    2  501    0  0.28143971066E+03  0.54464885819E+02 -0.91287558222E+03  0.95682629726E+03  0.00000000000E+00 0.  1.
<mgrwt>
<rscale>  4 0.31212460E+03</rscale>
<asrwt>0</asrwt>
<pdfrwt beam="1">  1       21 0.16185294E+00 0.31212460E+03</pdfrwt>
<pdfrwt beam="2">  1        2 0.14797263E+00 0.31212460E+03</pdfrwt>
<totfact> 0.78369627E+01</totfact>
</mgrwt>
</event>
<event>
 5    0  0.3040647E+000  0.3003221E+03  0.7546771E-02  0.1085080E+00
          2   -1    0    0  502    0 -0.00000000000E+00  0.00000000000E+00  0.96795370140E+03  0.96795370140E+03  0.00000000000E+00 0.  1.
         21   -1    0    0  503  502  0.00000000000E+00 -0.00000000000E+00 -0.93192647843E+02  0.93192647843E+02  0.00000000000E+00 0.  1.
         25    1    1    2    0    0  0.26132039886E+03 -0.79246713703E+02  0.52738317137E+03  0.60689900473E+03  0.12500000000E+03 0.  0.
         21    1    1    2  503  501 -0.14527932073E+03 -0.45298650768E+01  0.13656088965E+03  0.19943790334E+03  0.00000000000E+00 0.  1.
          2    1    1    2  501    0 -0.11604107813E+03  0.83776578780E+02  0.21081699254E+03  0.25480944117E+03  0.00000000000E+00 0.  1.
<mgrwt>
<rscale>  4 0.30032215E+03</rscale>
<asrwt>0</asrwt>
<pdfrwt beam="1">  1       21 0.14337331E-01 0.30032215E+03</pdfrwt>
<pdfrwt beam="2">  1        2 0.14891595E+00 0.30032215E+03</pdfrwt>
<totfact> 0.14526143E+04</totfact>
</mgrwt>
</event>
<event>
 5    0  0.3040647E+000  0.2873392E+03  0.7546771E-02  0.1091747E+00
         21   -1    0    0  503  502  0.00000000000E+00  0.00000000000E+00  0.29359610014E+03  0.29359610014E+03  0.00000000000E+00 0. -1.
          1   -1    0    0  502    0 -0.00000000000E+00 -0.00000000000E+00 -0.35412058730E+03  0.35412058730E+03  0.00000000000E+00 0. -1.
         25    1    1    2    0    0 -0.56433277437E+02  0.26481354951E+03  0.46476253083E+02  0.30182109420E+03  0.12500000000E+03 0.  0.
         21    1    1    2  503  501  0.69156875469E+02 -0.93948316706E+01 -0.31045123217E+01  0.69861107088E+02  0.00000000000E+00 0. -1.
          1    1    1    2  501    0 -0.12723598032E+02 -0.25541871784E+03 -0.10389622793E+03  0.27603448615E+03  0.00000000000E+00 0. -1.
<mgrwt>
<rscale>  4 0.28733917E+03</rscale>
<asrwt>0</asrwt>
<pdfrwt beam="1">  1       21 0.45168631E-01 0.28733917E+03</pdfrwt>
<pdfrwt beam="2">  1        1 0.54480090E-01 0.28733917E+03</pdfrwt>
<totfact> 0.35571792E+03</totfact>
</mgrwt>
</event>
<event>
 5    0  0.3040647E+000  0.2263530E+03  0.7546771E-02  0.1129233E+00
          2   -1    0    0  502    0 -0.00000000000E+00  0.00000000000E+00  0.14127505806E+04  0.14127505806E+04  0.00000000000E+00 0.  1.
         21   -1    0    0  503  502  0.00000000000E+00 -0.00000000000E+00 -0.40443109523E+02  0.40443109523E+02  0.00000000000E+00 0.  1.
         25    1    1    2    0    0 -0.26333659034E+02 -0.20735002378E+03  0.82971083648E+03  0.86471530930E+03  0.12500000000E+03 0.  0.
         21    1    1    2  503  501  0.23710031991E+02  0.34947726624E+02  0.44348472914E+02  0.61239662499E+02  0.00000000000E+00 0.  1.
          2    1    1    2  501    0  0.26236270436E+01  0.17240229715E+03  0.49824816167E+03  0.52723871832E+03  0.00000000000E+00 0.  1.
<mgrwt>
<rscale>  4 0.22635298E+03</rscale>
<asrwt>0</asrwt>
<pdfrwt beam="1">  1       21 0.62220179E-02 0.22635298E+03</pdfrwt>
<pdfrwt beam="2">  1        2 0.21734621E+00 0.22635298E+03</pdfrwt>
<totfact> 0.35933477E+04</totfact>
</mgrwt>
</event>
<event>
 5    0  0.3040647E+000  0.2581979E+03  0.7546771E-02  0.1108231E+00
         21   -1    0    0  503  502  0.00000000000E+00  0.00000000000E+00  0.36188972678E+03  0.36188972678E+03  0.00000000000E+00 0. -1.
          2   -1    0    0  502    0 -0.00000000000E+00 -0.00000000000E+00 -0.84981595970E+03  0.84981595970E+03  0.00000000000E+00 0.  1.
         25    1    1    2    0    0  0.11167661488E+03  0.21694373026E+03  0.11570684824E+03  0.29757238302E+03  0.12500000000E+03 0.  0.
         21    1    1    2  503  501 -0.16361862015E+02 -0.13702596125E+02  0.13781008829E+03  0.13945283111E+03  0.00000000000E+00 0.  1.
          2    1    1    2  501    0 -0.95314752864E+02 -0.20324113413E+03 -0.74144316945E+03  0.77468047235E+03  0.00000000000E+00 0.  1.
<mgrwt>
<rscale>  4 0.25819791E+03</rscale>
<asrwt>0</asrwt>
<pdfrwt beam="1">  1       21 0.55675343E-01 0.25819791E+03</pdfrwt>
<pdfrwt beam="2">  1        2 0.13074092E+00 0.25819791E+03</pdfrwt>
<totfact> 0.12229312E+03</totfact>
</mgrwt>
</event>
<event>
 5    0  0.3040647E+000  0.2716365E+03  0.7546771E-02  0.1100347E+00
         -1   -1    0    0    0  501 -0.00000000000E+00  0.00000000000E+00  0.42511915972E+03  0.42511915972E+03  0.00000000000E+00 0. -1.
         21   -1    0    0  501  502  0.00000000000E+00 -0.00000000000E+00 -0.33827986218E+03  0.33827986218E+03  0.00000000000E+00 0. -1.
         25    1    1    2    0    0 -0.11407132871E+03 -0.23374919346E+03 -0.17793932673E+03  0.33902560003E+03  0.12500000000E+03 0.  0.
         21    1    1    2  503  502  0.25602745967E+01  0.23329400917E+02 -0.34613736291E+02  0.41820170889E+02  0.00000000000E+00 0.  1.
         -1    1    1    2    0  503  0.11151105411E+03  0.21041979255E+03  0.29939236056E+03  0.38255325099E+03  0.00000000000E+00 0. -1.
<mgrwt>
<rscale>  4 0.27163652E+03</rscale>
<asrwt>0</asrwt>
<pdfrwt beam="1">  1       21 0.52043055E-01 0.27163652E+03</pdfrwt>
<pdfrwt beam="2">  1       -1 0.65402948E-01 0.27163652E+03</pdfrwt>
<totfact> 0.77635070E+02</totfact>
</mgrwt>
</event>
<event>
 5    0  0.3040647E+000  0.2593219E+03  0.7546771E-02  0.1107551E+00
         21   -1    0    0  503  502  0.00000000000E+00  0.00000000000E+00  0.46986740565E+03  0.46986740565E+03  0.00000000000E+00 0.  1.
          2   -1    0    0  502    0 -0.00000000000E+00 -0.00000000000E+00 -0.15316449727E+04  0.15316449727E+04  0.00000000000E+00 0. -1.
         25    1    1    2    0    0 -0.14576172719E+03 -0.20103178922E+03  0.33005667529E+03  0.43153524803E+03  0.12500000000E+03 0.  0.
         21    1    1    2  503  501  0.14054517477E+03 -0.26640357901E+02  0.15911712407E+02  0.14392997399E+03  0.00000000000E+00 0.  1.
          2    1    1    2  501    0  0.52165524184E+01  0.22767214712E+03 -0.14077459548E+04  0.14260471564E+04  0.00000000000E+00 0. -1.
<mgrwt>
<rscale>  4 0.25932188E+03</rscale>
<asrwt>0</asrwt>
<pdfrwt beam="1">  1       21 0.72287292E-01 0.25932188E+03</pdfrwt>
<pdfrwt beam="2">  1        2 0.23563769E+00 0.25932188E+03</pdfrwt>
<totfact> 0.27783234E+02</totfact>
</mgrwt>
</event>
<event>
 5    0  0.3040647E+000  0.2907087E+03  0.7546771E-02  0.1089980E+00
         21   -1    0    0  503  502  0.00000000000E+00  0.00000000000E+00  0.84900905005E+03  0.84900905005E+03  0.00000000000E+00 0. -1.
          3   -1    0    0  502    0 -0.00000000000E+00 -0.00000000000E+00 -0.18829070099E+03  0.18829070099E+03  0.00000000000E+00 0. -1.
         25    1    1    2    0    0 -0.12747125946E+03 -0.20198449897E+03  0.40364464985E+02  0.27258200573E+03  0.12500000000E+03 0.  0.
         21    1    1    2  503  501 -0.13063504932E+02 -0.92819490153E+02  0.26974250691E+03  0.28556458630E+03  0.00000000000E+00 0. -1.
          3    1    1    2  501    0  0.14053476439E+03  0.29480398912E+03  0.35061137716E+03  0.47915315902E+03  0.00000000000E+00 0. -1.
<mgrwt>
<rscale>  4 0.29070869E+03</rscale>
<asrwt>0</asrwt>
<pdfrwt beam="1">  1       21 0.13061677E+00 0.29070869E+03</pdfrwt>
<pdfrwt beam="2">  1        3 0.28967801E-01 0.29070869E+03</pdfrwt>
<totfact> 0.23421454E+02</totfact>
</mgrwt>
</event>
<event>
 5    0  0.3040647E+000  0.2895845E+03  0.7546771E-02  0.1090566E+00
          1   -1    0    0  502    0 -0.00000000000E+00  0.00000000000E+00  0.13957327853E+04  0.13957327853E+04  0.00000000000E+00 0.  1.
         21   -1    0    0  503  502  0.00000000000E+00 -0.00000000000E+00 -0.10462222621E+03  0.10462222621E+03  0.00000000000E+00 0.  1.
         25    1    1    2    0    0 -0.18078336135E+03  0.14215820901E+03  0.45634204246E+03  0.52608425166E+03  0.12500000000E+03 0.  0.
         21    1    1    2  503  501 -0.27544545218E+02  0.47026675460E+02 -0.31838473108E+02  0.63118131674E+02  0.00000000000E+00 0.  1.
          1    1    1    2  501    0  0.20832790656E+03 -0.18918488447E+03  0.86660698973E+03  0.91115262817E+03  0.00000000000E+00 0.  1.
<mgrwt>
<rscale>  4 0.28958446E+03</rscale>
<asrwt>0</asrwt>
<pdfrwt beam="1">  1       21 0.16095728E-01 0.28958446E+03</pdfrwt>
<pdfrwt beam="2">  1        1 0.21472811E+00 0.28958446E+03</pdfrwt>
<totfact> 0.31623858E+03</totfact>
</mgrwt>
</event>
<event>
 5    0  0.3040647E+000  0.1761322E+03  0.7546771E-02  0.1171600E+00
         21   -1    0    0  503  502  0.00000000000E+00  0.00000000000E+00  0.22069077970E+03  0.22069077970E+03  0.00000000000E+00 0.  1.
          2   -1    0    0  502    0 -0.00000000000E+00 -0.00000000000E+00 -0.11523260016E+04  0.11523260016E+04  0.00000000000E+00 0. -1.
         25    1    1    2    0    0 -0.16370590580E+03 -0.11911977997E+03  0.56227399008E+02  0.24449062554E+03  0.12500000000E+03 0.  0.
         21    1    1    2  503  501  0.74876096945E+02  0.35144885551E+02  0.41076122466E+02  0.92351722837E+02  0.00000000000E+00 0.  1.
          2    1    1    2  501    0  0.88829808859E+02  0.83974894423E+02 -0.10289387434E+04  0.10361744330E+04  0.00000000000E+00 0. -1.
<mgrwt>
<rscale>  4 0.17613216E+03</rscale>
<asrwt>0</asrwt>
<pdfrwt beam="1">  1       21 0.33952427E-01 0.17613216E+03</pdfrwt>
<pdfrwt beam="2">  1        2 0.17728093E+00 0.17613216E+03</pdfrwt>
<totfact> 0.22910625E+03</totfact>
</mgrwt>
</event>
<event>
 5    0  0.3040647E+000  0.2449296E+03  0.7546771E-02  0.1116552E+00
         21   -1    0    0  503  502  0.00000000000E+00  0.00000000000E+00  0.10577129329E+03  0.10577129329E+03  0.00000000000E+00 0.  1.
          4   -1    0    0  502    0 -0.00000000000E+00 -0.00000000000E+00 -0.63700766256E+03  0.63700766256E+03  0.00000000000E+00 0. -1.
         25    1    1    2    0    0 -0.15424423122E+03 -0.15606474876E+03 -0.24635467954E+03  0.35279330606E+03  0.12500000000E+03 0.  0.
         21    1    1    2  503  501  0.29123145073E+02 -0.74695705628E+01  0.87850447229E+01  0.31322979968E+02  0.00000000000E+00 0.  1.
          4    1    1    2  501    0  0.12512108615E+03  0.16353431932E+03 -0.29366673446E+03  0.35866266982E+03  0.00000000000E+00 0. -1.
<mgrwt>
<rscale>  4 0.24492957E+03</rscale>
<asrwt>0</asrwt>
<pdfrwt beam="1">  1       21 0.16272506E-01 0.24492957E+03</pdfrwt>
<pdfrwt beam="2">  1        4 0.98001181E-01 0.24492957E+03</pdfrwt>
<totfact> 0.12770463E+03</totfact>
</mgrwt>
</event>
<event>
 5    0  0.3040647E+000  0.3951280E+03  0.7546771E-02  0.1045480E+00
         21   -1    0    0  503  502  0.00000000000E+00  0.00000000000E+00  0.15480970689E+04  0.15480970689E+04  0.00000000000E+00 0.  1.
          2   -1    0    0  502    0 -0.00000000000E+00 -0.00000000000E+00 -0.98162059355E+03  0.98162059355E+03  0.00000000000E+00 0. -1.
         25    1    1    2    0    0  0.11911505339E+03 -0.33269576254E+03  0.52624284325E+03  0.64608930994E+03  0.12500000000E+03 0.  0.
         21    1    1    2  503  501  0.11429016515E+02 -0.20172731902E+02  0.92338342152E+03  0.92367445817E+03  0.00000000000E+00 0.  1.
          2    1    1    2  501    0 -0.13054406991E+03  0.35286849444E+03 -0.88314978945E+03  0.95995389429E+03  0.00000000000E+00 0. -1.
<mgrwt>
<rscale>  4 0.39512800E+03</rscale>
<asrwt>0</asrwt>
<pdfrwt beam="1">  1       21 0.23816878E+00 0.39512800E+03</pdfrwt>
<pdfrwt beam="2">  1        2 0.15101855E+00 0.39512800E+03</pdfrwt>
<totfact> 0.22462299E+01</totfact>
</mgrwt>
</event>
<event>
 5    0  0.3040647E+000  0.2137385E+03  0.7546771E-02  0.1138639E+00
         21   -1    0    0  501  502  0.00000000000E+00  0.00000000000E+00  0.72815928059E+03  0.72815928059E+03  0.00000000000E+00 0. -1.
         -1   -1    0    0    0  501 -0.00000000000E+00 -0.00000000000E+00 -0.85651685027E+03  0.85651685027E+03  0.00000000000E+00 0. -1.
         25    1    1    2    0    0 -0.25295169546E+03  0.74169615297E+02 -0.37987969061E+02  0.29420023430E+03  0.12500000000E+03 0.  0.
         21    1    1    2  503  502  0.86080336155E+02 -0.71600503748E+02  0.58457652232E+03  0.59520262672E+03  0.00000000000E+00 0. -1.
         -1    1    1    2    0  503  0.16687135930E+03 -0.25691115491E+01 -0.67494612294E+03  0.69527326985E+03  0.00000000000E+00 0. -1.
<mgrwt>
<rscale>  4 0.21373849E+03</rscale>
<asrwt>0</asrwt>
<pdfrwt beam="1">  1       21 0.11202450E+00 0.21373849E+03</pdfrwt>
<pdfrwt beam="2">  1       -1 0.13177182E+00 0.21373849E+03</pdfrwt>
<totfact> 0.30514942E+01</totfact>
</mgrwt>
</event>
<event>
 5    0  0.3040647E+000  0.2263669E+03  0.7546771E-02  0.1129223E+00
          1   -1    0    0  502    0 -0.00000000000E+00  0.00000000000E+00  0.14816761527E+04  0.14816761527E+04  0.00000000000E+00 0. -1.
         21   -1    0    0  503  502  0.00000000000E+00 -0.00000000000E+00 -0.56912620143E+02  0.56912620143E+02  0.00000000000E+00 0. -1.
         25    1    1    2    0    0 -0.17644041047E+03 -0.16379769951E+03  0.94621428790E+03  0.98433093187E+03  0.12500000000E+03 0.  0.
         21    1    1    2  503  501  0.34003924799E+02  0.11076417402E+03  0.13076433387E+03  0.17471199203E+03  0.00000000000E+00 0. -1.
          1    1    1    2  501    0  0.14243648567E+03  0.53033525484E+02  0.34778491080E+03  0.37954584895E+03  0.00000000000E+00 0. -1.
<mgrwt>
<rscale>  4 0.22636691E+03</rscale>
<asrwt>0</asrwt>
<pdfrwt beam="1">  1       21 0.87557888E-02 0.22636691E+03</pdfrwt>
<pdfrwt beam="2">  1        1 0.22795015E+00 0.22636691E+03</pdfrwt>
<totfact> 0.84666907E+03</totfact>
</mgrwt>
</event>
<event>
 5    0  0.3040647E+000  0.2251845E+03  0.7546771E-02  0.1130076E+00
         -3   -1    0    0    0  501 -0.00000000000E+00  0.00000000000E+00  0.21840587934E+04  0.21840587934E+04  0.00000000000E+00 0. -1.
         21   -1    0    0  501  502  0.00000000000E+00 -0.00000000000E+00 -0.61358442217E+03  0.61358442217E+03  0.00000000000E+00 0.  1.
         25    1    1    2    0    0  0.17764246498E+03  0.12442023082E+03 -0.41181213315E+03  0.48192475783E+03  0.12500000000E+03 0.  0.
         21    1    1    2  503  502 -0.13891474931E+02 -0.34021768330E+02 -0.16056617479E+03  0.16471778982E+03  0.00000000000E+00 0.  1.
         -3    1    1    2    0  503 -0.16375099005E+03 -0.90398462490E+02  0.21428526791E+04  0.21510006679E+04  0.00000000000E+00 0. -1.
<mgrwt>
<rscale>  4 0.22518448E+03</rscale>
<asrwt>0</asrwt>
<pdfrwt beam="1">  1       21 0.94397605E-01 0.22518448E+03</pdfrwt>
<pdfrwt beam="2">  1       -3 0.33600904E+00 0.22518448E+03</pdfrwt>
<totfact> 0.12959280E+00</totfact>
</mgrwt>
</event>
<event>
 5    0  0.3040647E+000  0.2865486E+03  0.7546771E-02  0.1092165E+00
          1   -1    0    0  502    0 -0.00000000000E+00  0.00000000000E+00  0.29387893335E+03  0.29387893335E+03  0.00000000000E+00 0. -1.
         21   -1    0    0  503  502  0.00000000000E+00 -0.00000000000E+00 -0.42560624132E+03  0.42560624132E+03  0.00000000000E+00 0. -1.
         25    1    1    2    0    0  0.47920697536E+02  0.24874751783E+03  0.14912741987E+01  0.28248707011E+03  0.12500000000E+03 0.  0.
         21    1    1    2  503  501 -0.41321212923E+02  0.14349971832E+02 -0.16610787828E+03  0.17177075291E+03  0.00000000000E+00 0. -1.
          1    1    1    2  501    0 -0.65994846132E+01 -0.26309748966E+03  0.32889296111E+02  0.26522735165E+03  0.00000000000E+00 0. -1.
<mgrwt>
<rscale>  4 0.28654855E+03</rscale>
<asrwt>0</asrwt>
<pdfrwt beam="1">  1       21 0.65477883E-01 0.28654855E+03</pdfrwt>
<pdfrwt beam="2">  1        1 0.45212144E-01 0.28654855E+03</pdfrwt>
<totfact> 0.20408333E+03</totfact>
</mgrwt>
</event>
<event>
 5    0  0.3040647E+000  0.2543757E+03  0.7546771E-02  0.1110570E+00
          2   -1    0    0  502    0 -0.00000000000E+00  0.00000000000E+00  0.27973290309E+04  0.27973290309E+04  0.00000000000E+00 0. -1.
         21   -1    0    0  503  502  0.00000000000E+00 -0.00000000000E+00 -0.73356005706E+02  0.73356005706E+02  0.00000000000E+00 0.  1.
         25    1    1    2    0    0 -0.23824298182E+03 -0.60271115332E+01  0.20880015993E+03  0.34061496040E+03  0.12500000000E+03 0.  0.
         21    1    1    2  503  501  0.18073526119E+02  0.14353531274E+02  0.49987406337E+02  0.55058305447E+02  0.00000000000E+00 0.  1.
          2    1    1    2  501    0  0.22016945570E+03 -0.83264197406E+01  0.24651854590E+04  0.24750117708E+04  0.00000000000E+00 0. -1.
<mgrwt>
<rscale>  4 0.25437574E+03</rscale>
<asrwt>0</asrwt>
<pdfrwt beam="1">  1       21 0.11285541E-01 0.25437574E+03</pdfrwt>
<pdfrwt beam="2">  1        2 0.43035823E+00 0.25437574E+03</pdfrwt>
<totfact> 0.22667937E+03</totfact>
</mgrwt>
</event>
<event>
 5    0  0.3040647E+000  0.2567754E+03  0.7546771E-02  0.1109096E+00
          2   -1    0    0  502    0 -0.00000000000E+00  0.00000000000E+00  0.51060873057E+03  0.51060873057E+03  0.00000000000E+00 0. -1.
         21   -1    0    0  503  502  0.00000000000E+00 -0.00000000000E+00 -0.66187400180E+03  0.66187400180E+03  0.00000000000E+00 0. -1.
         25    1    1    2    0    0  0.21846887890E+03 -0.72705167251E+02 -0.11338671843E+03  0.28547546358E+03  0.12500000000E+03 0.  0.
         21    1    1    2  503  501  0.43609755450E+01  0.48927835880E+02 -0.43138101604E+03  0.43416878312E+03  0.00000000000E+00 0. -1.
          2    1    1    2  501    0 -0.22282985444E+03  0.23777331370E+02  0.39350246324E+03  0.45283848566E+03  0.00000000000E+00 0. -1.
<mgrwt>
<rscale>  4 0.25677539E+03</rscale>
<asrwt>0</asrwt>
<pdfrwt beam="1">  1       21 0.10182677E+00 0.25677539E+03</pdfrwt>
<pdfrwt beam="2">  1        2 0.78555189E-01 0.25677539E+03</pdfrwt>
<totfact> 0.57799948E+02</totfact>
</mgrwt>
</event>
<event>
 5    0  0.3040647E+000  0.2415358E+03  0.7546771E-02  0.1118774E+00
         -4   -1    0    0    0  501 -0.00000000000E+00  0.00000000000E+00  0.25193371370E+03  0.25193371370E+03  0.00000000000E+00 0. -1.
         21   -1    0    0  501  502  0.00000000000E+00 -0.00000000000E+00 -0.74659205698E+03  0.74659205698E+03  0.00000000000E+00 0. -1.
         25    1    1    2    0    0 -0.90881675463E+02 -0.22302167091E+03 -0.60610908468E+03  0.66407180874E+03  0.12500000000E+03 0.  0.
         21    1    1    2  503  502  0.51424984628E+02  0.13460363329E+03 -0.44573237065E+02  0.15082917689E+03  0.00000000000E+00 0. -1.
         -4    1    1    2    0  503  0.39456690835E+02  0.88418037616E+02  0.15602397847E+03  0.18362478505E+03  0.00000000000E+00 0. -1.
<mgrwt>
<rscale>  4 0.24153576E+03</rscale>
<asrwt>0</asrwt>
<pdfrwt beam="1">  1       21 0.11486032E+00 0.24153576E+03</pdfrwt>
<pdfrwt beam="2">  1       -4 0.38759033E-01 0.24153576E+03</pdfrwt>
<totfact> 0.15813129E+02</totfact>
</mgrwt>
</event>
<event>
 5    0  0.3040647E+000  0.2056641E+03  0.7546771E-02  0.1145046E+00
         21   -1    0    0  503  502  0.00000000000E+00  0.00000000000E+00  0.28012441678E+03  0.28012441678E+03  0.00000000000E+00 0.  1.
          4   -1    0    0  502    0 -0.00000000000E+00 -0.00000000000E+00 -0.34646618340E+03  0.34646618340E+03  0.00000000000E+00 0.  1.
         25    1    1    2    0    0  0.12485321288E+03  0.21072346734E+03  0.70247431689E+02  0.28381755779E+03  0.12500000000E+03 0.  0.
         21    1    1    2  503  501 -0.42199690291E+02 -0.12013667033E+03  0.34827248688E+02  0.13200973703E+03  0.00000000000E+00 0.  1.
          4    1    1    2  501    0 -0.82653522586E+02 -0.90586797000E+02 -0.17141644699E+03  0.21076330536E+03  0.00000000000E+00 0.  1.
<mgrwt>
<rscale>  4 0.20566414E+03</rscale>
<asrwt>0</asrwt>
<pdfrwt beam="1">  1       21 0.43096065E-01 0.20566414E+03</pdfrwt>
<pdfrwt beam="2">  1        4 0.53302489E-01 0.20566414E+03</pdfrwt>
<totfact> 0.73975584E+02</totfact>
</mgrwt>
</event>
<event>
 5    0  0.3040647E+000  0.2952767E+03  0.7546771E-02  0.1087626E+00
          2   -1    0    0  502    0 -0.00000000000E+00  0.00000000000E+00  0.24963166735E+04  0.24963166735E+04  0.00000000000E+00 0. -1.
         21   -1    0    0  503  502  0.00000000000E+00 -0.00000000000E+00 -0.20189737146E+03  0.20189737146E+03  0.00000000000E+00 0. -1.
         25    1    1    2    0    0 -0.22026577647E+03 -0.17431019050E+03 -0.57680236835E+02  0.31281474472E+03  0.12500000000E+03 0.  0.
         21    1    1    2  503  501 -0.12076168485E+01  0.25187345370E+02  0.84565209506E+01  0.26596493224E+02  0.00000000000E+00 0. -1.
          2    1    1    2  501    0  0.22147339332E+03  0.14912284513E+03  0.23436430179E+04  0.23588028070E+04  0.00000000000E+00 0. -1.
<mgrwt>
<rscale>  4 0.29527671E+03</rscale>
<asrwt>0</asrwt>
<pdfrwt beam="1">  1       21 0.31061136E-01 0.29527671E+03</pdfrwt>
<pdfrwt beam="2">  1        2 0.38404870E+00 0.29527671E+03</pdfrwt>
<totfact> 0.48931389E+02</totfact>
</mgrwt>
</event>
<event>
 5    0  0.3040647E+000  0.4628797E+03  0.7546771E-02  0.1024001E+00
         21   -1    0    0  503  502  0.00000000000E+00  0.00000000000E+00  0.58827055398E+03  0.58827055398E+03  0.00000000000E+00 0. -1.
          2   -1    0    0  502    0 -0.00000000000E+00 -0.00000000000E+00 -0.42852018081E+03  0.42852018081E+03  0.00000000000E+00 0. -1.
         25    1    1    2    0    0  0.30558015692E+03  0.32340476662E+03  0.27762420558E+03  0.53913827067E+03  0.12500000000E+03 0.  0.
         21    1    1    2  503  501 -0.44653944609E+02  0.77343925121E+00  0.16337124754E+01  0.44690513466E+02  0.00000000000E+00 0.  1.
          2    1    1    2  501    0 -0.26092621231E+03 -0.32417820587E+03 -0.11950754489E+03  0.43296195066E+03  0.00000000000E+00 0. -1.
<mgrwt>
<rscale>  4 0.46270050E+03</rscale>
<asrwt>0</asrwt>
<pdfrwt beam="1">  1       21 0.90503162E-01 0.46287972E+03</pdfrwt>
<pdfrwt beam="2">  1        2 0.65926182E-01 0.46287972E+03</pdfrwt>
<totfact> 0.87199651E+02</totfact>
</mgrwt>
</event>
<event>
 5    0  0.3040647E+000  0.2699407E+03  0.7546771E-02  0.1101314E+00
          2   -1    0    0  502    0 -0.00000000000E+00  0.00000000000E+00  0.20743520499E+04  0.20743520499E+04  0.00000000000E+00 0.  1.
         21   -1    0    0  503  502  0.00000000000E+00 -0.00000000000E+00 -0.89746294974E+02  0.89746294974E+02  0.00000000000E+00 0. -1.
         25    1    1    2    0    0 -0.24932761463E+03  0.60471021242E+02  0.42760986522E+03  0.51409746222E+03  0.12500000000E+03 0.  0.
         21    1    1    2  503  501  0.24806480864E+02  0.11873098140E+02 -0.32797843314E+02  0.42802225157E+02  0.00000000000E+00 0. -1.
          2    1    1    2  501    0  0.22452113376E+03 -0.72344119381E+02  0.15897937330E+04  0.16071986575E+04  0.00000000000E+00 0.  1.
<mgrwt>
<rscale>  4 0.26994067E+03</rscale>
<asrwt>0</asrwt>
<pdfrwt beam="1">  1       21 0.13807124E-01 0.26994067E+03</pdfrwt>
<pdfrwt beam="2">  1        2 0.31913105E+00 0.26994067E+03</pdfrwt>
<totfact> 0.38751492E+03</totfact>
</mgrwt>
</event>
<event>
 5    0  0.3040647E+000  0.2843251E+03  0.7546771E-02  0.1093350E+00
          1   -1    0    0  502    0 -0.00000000000E+00  0.00000000000E+00  0.11486015824E+04  0.11486015824E+04  0.00000000000E+00 0.  1.
         21   -1    0    0  503  502  0.00000000000E+00 -0.00000000000E+00 -0.17808095431E+03  0.17808095431E+03  0.00000000000E+00 0.  1.
         25    1    1    2    0    0 -0.26616703408E+03  0.60804203546E+02  0.32505953214E+03  0.44252767217E+03  0.12500000000E+03 0.  0.
         21    1    1    2  503  501  0.23139658776E+02 -0.54155465589E+01 -0.97573660389E+02  0.10042604819E+03  0.00000000000E+00 0.  1.
          1    1    1    2  501    0  0.24302737530E+03 -0.55388656987E+02  0.74303475635E+03  0.78372881637E+03  0.00000000000E+00 0.  1.
<mgrwt>
<rscale>  4 0.28432510E+03</rscale>
<asrwt>0</asrwt>
<pdfrwt beam="1">  1       21 0.27397071E-01 0.28432510E+03</pdfrwt>
<pdfrwt beam="2">  1        1 0.17670793E+00 0.28432510E+03</pdfrwt>
<totfact> 0.17140586E+03</totfact>
</mgrwt>
</event>
<event>
 5    0  0.3040647E+000  0.2767858E+03  0.7546771E-02  0.1097458E+00
         21   -1    0    0  503  502  0.00000000000E+00  0.00000000000E+00  0.21218234055E+03  0.21218234055E+03  0.00000000000E+00 0.  1.
          2   -1    0    0  502    0 -0.00000000000E+00 -0.00000000000E+00 -0.32462030308E+04  0.32462030308E+04  0.00000000000E+00 0.  1.
         25    1    1    2    0    0 -0.19672052476E+03  0.82084102328E+02 -0.12551333547E+04  0.12792269161E+04  0.12500000000E+03 0.  0.
         21    1    1    2  503  501 -0.51942667878E+02  0.32061261858E+02  0.18576940703E+03  0.19554088536E+03  0.00000000000E+00 0.  1.
          2    1    1    2  501    0  0.24866319264E+03 -0.11414536419E+03 -0.19646567426E+04  0.19836175699E+04  0.00000000000E+00 0.  1.
<mgrwt>
<rscale>  4 0.27678584E+03</rscale>
<asrwt>0</asrwt>
<pdfrwt beam="1">  1       21 0.32643438E-01 0.27678584E+03</pdfrwt>
<pdfrwt beam="2">  1        2 0.49941584E+00 0.27678584E+03</pdfrwt>
<totfact> 0.16411466E+02</totfact>
</mgrwt>
</event>
<event>
 5    0  0.3040647E+000  0.1959800E+03  0.7546771E-02  0.1153176E+00
          1   -1    0    0  502    0 -0.00000000000E+00  0.00000000000E+00  0.26528588742E+04  0.26528588742E+04  0.00000000000E+00 0. -1.
         21   -1    0    0  503  502  0.00000000000E+00 -0.00000000000E+00 -0.59579174156E+02  0.59579174156E+02  0.00000000000E+00 0. -1.
         25    1    1    2    0    0  0.12761161423E+03 -0.15407828978E+03  0.30561606170E+03  0.38607126368E+03  0.12500000000E+03 0.  0.
         21    1    1    2  503  501 -0.10762705518E+03  0.58521989898E+01  0.15687616787E+03  0.19033644760E+03  0.00000000000E+00 0. -1.
          1    1    1    2  501    0 -0.19984559051E+02  0.14822609079E+03  0.21307874704E+04  0.21360303370E+04  0.00000000000E+00 0. -1.
<mgrwt>
<rscale>  4 0.19597998E+03</rscale>
<asrwt>0</asrwt>
<pdfrwt beam="1">  1       21 0.91660288E-02 0.19597998E+03</pdfrwt>
<pdfrwt beam="2">  1        1 0.40813204E+00 0.19597998E+03</pdfrwt>
<totfact> 0.13669750E+03</totfact>
</mgrwt>
</event>
<event>
 5    0  0.3040647E+000  0.3068402E+03  0.7546771E-02  0.1081870E+00
          2   -1    0    0  502    0 -0.00000000000E+00  0.00000000000E+00  0.12960442522E+04  0.12960442522E+04  0.00000000000E+00 0. -1.
         21   -1    0    0  503  502  0.00000000000E+00 -0.00000000000E+00 -0.19050496462E+03  0.19050496462E+03  0.00000000000E+00 0. -1.
         25    1    1    2    0    0  0.40536717399E+03  0.35764789786E+02  0.23864018142E+03  0.48803258305E+03  0.12500000000E+03 0.  0.
         21    1    1    2  503  501 -0.20667863901E+03 -0.22958229592E+02  0.15516754965E+03  0.25946118899E+03  0.00000000000E+00 0. -1.
          2    1    1    2  501    0 -0.19868853497E+03 -0.12806560193E+02  0.71173155646E+03  0.73905544473E+03  0.00000000000E+00 0. -1.
<mgrwt>
<rscale>  4 0.30684016E+03</rscale>
<asrwt>0</asrwt>
<pdfrwt beam="1">  1       21 0.29308457E-01 0.30684016E+03</pdfrwt>
<pdfrwt beam="2">  1        2 0.19939142E+00 0.30684016E+03</pdfrwt>
<totfact> 0.24015533E+03</totfact>
</mgrwt>
</event>
<event>
 5    0  0.3040647E+000  0.4065131E+03  0.7546771E-02  0.1041547E+00
          1   -1    0    0  502    0 -0.00000000000E+00  0.00000000000E+00  0.35842354471E+04  0.35842354471E+04  0.00000000000E+00 0.  1.
         21   -1    0    0  503  502  0.00000000000E+00 -0.00000000000E+00 -0.99259734052E+02  0.99259734052E+02  0.00000000000E+00 0. -1.
         25    1    1    2    0    0 -0.31447252020E+03  0.51250246765E+02  0.33343672273E+03  0.47783323641E+03  0.12500000000E+03 0.  0.
         21    1    1    2  503  501 -0.85684093238E+02 -0.53103669614E+02  0.17193572459E+03  0.19930794503E+03  0.00000000000E+00 0. -1.
          1    1    1    2  501    0  0.40015661344E+03  0.18534228488E+01  0.29796032657E+04  0.30063539997E+04  0.00000000000E+00 0.  1.
<mgrwt>
<rscale>  4 0.40651315E+03</rscale>
<asrwt>0</asrwt>
<pdfrwt beam="1">  1       21 0.15270731E-01 0.40651315E+03</pdfrwt>
<pdfrwt beam="2">  1        1 0.55142074E+00 0.40651315E+03</pdfrwt>
<totfact> 0.10473720E+02</totfact>
</mgrwt>
</event>
<event>
 5    0  0.3040647E+000  0.3015314E+03  0.7546771E-02  0.1084478E+00
          4   -1    0    0  502    0 -0.00000000000E+00  0.00000000000E+00  0.68814706218E+03  0.68814706218E+03  0.00000000000E+00 0.  1.
         21   -1    0    0  503  502  0.00000000000E+00 -0.00000000000E+00 -0.14903216717E+03  0.14903216717E+03  0.00000000000E+00 0.  1.
         25    1    1    2    0    0 -0.72286932224E+02 -0.24570956214E+03  0.11316607794E+03  0.30664336075E+03  0.12500000000E+03 0.  0.
         21    1    1    2  503  501 -0.12193993905E+02 -0.24042486500E+02  0.12553449358E+02  0.29737581194E+02  0.00000000000E+00 0.  1.
          4    1    1    2  501    0  0.84480926129E+02  0.26975204864E+03  0.41339536772E+03  0.50079828741E+03  0.00000000000E+00 0.  1.
<mgrwt>
<rscale>  4 0.30153140E+03</rscale>
<asrwt>0</asrwt>
<pdfrwt beam="1">  1       21 0.22928026E-01 0.30153140E+03</pdfrwt>
<pdfrwt beam="2">  1        4 0.10586878E+00 0.30153140E+03</pdfrwt>
<totfact> 0.55858279E+02</totfact>
</mgrwt>
</event>
<event>
 5    0  0.3040647E+000  0.2860417E+03  0.7546771E-02  0.1092434E+00
          2   -1    0    0  502    0 -0.00000000000E+00  0.00000000000E+00  0.18526702081E+04  0.18526702081E+04  0.00000000000E+00 0.  1.
         21   -1    0    0  503  502  0.00000000000E+00 -0.00000000000E+00 -0.99765408382E+02  0.99765408382E+02  0.00000000000E+00 0.  1.
         25    1    1    2    0    0  0.19118053465E+03 -0.11707262972E+03  0.37381271544E+03  0.45345004541E+03  0.12500000000E+03 0.  0.
         21    1    1    2  503  501  0.38037396977E+02 -0.21228142607E+02 -0.37402985394E+02  0.57414814497E+02  0.00000000000E+00 0.  1.
          2    1    1    2  501    0 -0.22921793163E+03  0.13830077233E+03  0.14164950697E+04  0.14415707566E+04  0.00000000000E+00 0.  1.
<mgrwt>
<rscale>  4 0.28604169E+03</rscale>
<asrwt>0</asrwt>
<pdfrwt beam="1">  1       21 0.15348526E-01 0.28604169E+03</pdfrwt>
<pdfrwt beam="2">  1        2 0.28502616E+00 0.28604169E+03</pdfrwt>
<totfact> 0.41515431E+03</totfact>
</mgrwt>
</event>
<event>
 5    0  0.3040647E+000  0.2112595E+03  0.7546771E-02  0.1140572E+00
          2   -1    0    0  502    0 -0.00000000000E+00  0.00000000000E+00  0.16443820350E+04  0.16443820350E+04  0.00000000000E+00 0. -1.
         21   -1    0    0  503  502  0.00000000000E+00 -0.00000000000E+00 -0.52443027623E+02  0.52443027623E+02  0.00000000000E+00 0. -1.
         25    1    1    2    0    0  0.70361675311E+02  0.21676724578E+03  0.75721969715E+03  0.80059070314E+03  0.12500000000E+03 0.  0.
         21    1    1    2  503  501 -0.32287233004E+02 -0.70208359797E+02  0.39614214445E+02  0.86838730913E+02  0.00000000000E+00 0. -1.
          2    1    1    2  501    0 -0.38074442307E+02 -0.14655888598E+03  0.79510509574E+03  0.80939562853E+03  0.00000000000E+00 0. -1.
<mgrwt>
<rscale>  4 0.21125948E+03</rscale>
<asrwt>0</asrwt>
<pdfrwt beam="1">  1       21 0.80681594E-02 0.21125948E+03</pdfrwt>
<pdfrwt beam="2">  1        2 0.25298181E+00 0.21125948E+03</pdfrwt>
<totfact> 0.17324917E+04</totfact>
</mgrwt>
</event>
<event>
 5    0  0.3040647E+000  0.2571290E+03  0.7546771E-02  0.1108881E+00
          1   -1    0    0  502    0 -0.00000000000E+00  0.00000000000E+00  0.91600945482E+03  0.91600945482E+03  0.00000000000E+00 0. -1.
         21   -1    0    0  503  502  0.00000000000E+00 -0.00000000000E+00 -0.82979121732E+02  0.82979121732E+02  0.00000000000E+00 0.  1.
         25    1    1    2    0    0 -0.56502927152E+02  0.21030008625E+03  0.22421095343E+03  0.33662183335E+03  0.12500000000E+03 0.  0.
         21    1    1    2  503  501 -0.24081667444E+02  0.25848668620E+01  0.21156003061E+02  0.32158742343E+02  0.00000000000E+00 0.  1.
          1    1    1    2  501    0  0.80584594596E+02 -0.21288495311E+03  0.58766337661E+03  0.63020800086E+03  0.00000000000E+00 0. -1.
<mgrwt>
<rscale>  4 0.25712896E+03</rscale>
<asrwt>0</asrwt>
<pdfrwt beam="1">  1       21 0.12766019E-01 0.25712896E+03</pdfrwt>
<pdfrwt beam="2">  1        1 0.14092452E+00 0.25712896E+03</pdfrwt>
<totfact> 0.10750058E+04</totfact>
</mgrwt>
</event>
<event>
 5    0  0.3040647E+000  0.1741981E+03  0.7546771E-02  0.1173539E+00
         21   -1    0    0  503  502  0.00000000000E+00  0.00000000000E+00  0.14450205126E+03  0.14450205126E+03  0.00000000000E+00 0.  1.
          2   -1    0    0  502    0 -0.00000000000E+00 -0.00000000000E+00 -0.53983106323E+03  0.53983106323E+03  0.00000000000E+00 0.  1.
         25    1    1    2    0    0 -0.81556958922E+02 -0.19160640232E+03 -0.27290013293E+03  0.36532729642E+03  0.12500000000E+03 0.  0.
         21    1    1    2  503  501  0.48160193507E+02  0.10051304569E+03  0.49215705005E+02  0.12183785213E+03  0.00000000000E+00 0.  1.
          2    1    1    2  501    0  0.33396765415E+02  0.91093356626E+02 -0.17164458404E+03  0.19716796594E+03  0.00000000000E+00 0.  1.
<mgrwt>
<rscale>  4 0.17419809E+03</rscale>
<asrwt>0</asrwt>
<pdfrwt beam="1">  1       21 0.22231085E-01 0.17419809E+03</pdfrwt>
<pdfrwt beam="2">  1        2 0.83050934E-01 0.17419809E+03</pdfrwt>
<totfact> 0.13591427E+04</totfact>
</mgrwt>
</event>
<event>
 5    0  0.3040647E+000  0.2570015E+03  0.7546771E-02  0.1108958E+00
         21   -1    0    0  501  502  0.00000000000E+00  0.00000000000E+00  0.89689922254E+03  0.89689922254E+03  0.00000000000E+00 0.  1.
         -2   -1    0    0    0  501 -0.00000000000E+00 -0.00000000000E+00 -0.69817739379E+03  0.69817739379E+03  0.00000000000E+00 0.  1.
         25    1    1    2    0    0 -0.57115069524E+01 -0.30902363726E+03  0.46259640345E+03  0.57021808300E+03  0.12500000000E+03 0.  0.
         21    1    1    2  503  502  0.16828065692E+02  0.18702154712E+03  0.35090691566E+03  0.39798983195E+03  0.00000000000E+00 0.  1.
         -2    1    1    2    0  503 -0.11116558740E+02  0.12200209014E+03 -0.61478149036E+03  0.62686870138E+03  0.00000000000E+00 0.  1.
<mgrwt>
<rscale>  4 0.25700151E+03</rscale>
<asrwt>0</asrwt>
<pdfrwt beam="1">  1       21 0.13798450E+00 0.25700151E+03</pdfrwt>
<pdfrwt beam="2">  1       -2 0.10741191E+00 0.25700151E+03</pdfrwt>
<totfact> 0.21111171E+01</totfact>
</mgrwt>
</event>
<event>
 5    0  0.3040647E+000  0.2150695E+03  0.7546771E-02  0.1137613E+00
          3   -1    0    0  502    0 -0.00000000000E+00  0.00000000000E+00  0.39795445879E+03  0.39795445879E+03  0.00000000000E+00 0.  1.
         21   -1    0    0  503  502  0.00000000000E+00 -0.00000000000E+00 -0.19015805869E+03  0.19015805869E+03  0.00000000000E+00 0.  1.
         25    1    1    2    0    0  0.20953600900E+03 -0.44786728133E+02  0.90627153066E+02  0.26410125134E+03  0.12500000000E+03 0.  0.
         21    1    1    2  503  501 -0.15583734644E+03  0.38775779029E+02 -0.33412653717E+02  0.16402818359E+03  0.00000000000E+00 0.  1.
          3    1    1    2  501    0 -0.53698662563E+02  0.60109491033E+01  0.15058190075E+03  0.15998308255E+03  0.00000000000E+00 0.  1.
<mgrwt>
<rscale>  4 0.21506946E+03</rscale>
<asrwt>0</asrwt>
<pdfrwt beam="1">  1       21 0.29255086E-01 0.21506946E+03</pdfrwt>
<pdfrwt beam="2">  1        3 0.61223763E-01 0.21506946E+03</pdfrwt>
<totfact> 0.14576496E+03</totfact>
</mgrwt>
</event>
<event>
 5    0  0.3040647E+000  0.2329128E+03  0.7546771E-02  0.1124606E+00
         21   -1    0    0  503  502  0.00000000000E+00  0.00000000000E+00  0.80471388082E+03  0.80471388082E+03  0.00000000000E+00 0. -1.
          4   -1    0    0  502    0 -0.00000000000E+00 -0.00000000000E+00 -0.15404526390E+03  0.15404526390E+03  0.00000000000E+00 0.  1.
         25    1    1    2    0    0 -0.16525788218E+03 -0.17864496061E+03  0.19434381981E+03  0.33558711219E+03  0.12500000000E+03 0.  0.
         21    1    1    2  503  501  0.47049680474E+02  0.44136117374E+02  0.43849757413E+03  0.44321754456E+03  0.00000000000E+00 0. -1.
          4    1    1    2  501    0  0.11820820171E+03  0.13450884323E+03  0.17827222980E+02  0.17995448796E+03  0.00000000000E+00 0.  1.
<mgrwt>
<rscale>  4 0.23291284E+03</rscale>
<asrwt>0</asrwt>
<pdfrwt beam="1">  1       21 0.12380213E+00 0.23291284E+03</pdfrwt>
<pdfrwt beam="2">  1        4 0.23699272E-01 0.23291284E+03</pdfrwt>
<totfact> 0.33725015E+02</totfact>
</mgrwt>
</event>
<event>
 5    0  0.3040647E+000  0.3385959E+03  0.7546771E-02  0.1067396E+00
         21   -1    0    0  503  502  0.00000000000E+00  0.00000000000E+00  0.68821149045E+03  0.68821149045E+03  0.00000000000E+00 0.  1.
          1   -1    0    0  502    0 -0.00000000000E+00 -0.00000000000E+00 -0.22862980694E+03  0.22862980694E+03  0.00000000000E+00 0.  1.
         25    1    1    2    0    0 -0.70206945578E+02  0.28893949003E+03  0.34100629927E+03  0.46938826173E+03  0.12500000000E+03 0.  0.
         21    1    1    2  503  501 -0.10487039518E+02  0.22225051909E+02  0.12353668020E+03  0.12595730342E+03  0.00000000000E+00 0.  1.
          1    1    1    2  501    0  0.80693985096E+02 -0.31116454194E+03 -0.49612959537E+01  0.32149573224E+03  0.00000000000E+00 0.  1.
<mgrwt>
<rscale>  4 0.33859590E+03</rscale>
<asrwt>0</asrwt>
<pdfrwt beam="1">  1       21 0.10587869E+00 0.33859590E+03</pdfrwt>
<pdfrwt beam="2">  1        1 0.35173817E-01 0.33859590E+03</pdfrwt>
<totfact> 0.90882799E+02</totfact>
</mgrwt>
</event>
<event>
 5    0  0.3040647E+000  0.2805740E+03  0.7546771E-02  0.1095376E+00
          2   -1    0    0  502    0 -0.00000000000E+00  0.00000000000E+00  0.26740017266E+04  0.26740017266E+04  0.00000000000E+00 0.  1.
         21   -1    0    0  503  502  0.00000000000E+00 -0.00000000000E+00 -0.46865397672E+03  0.46865397672E+03  0.00000000000E+00 0.  1.
         25    1    1    2    0    0 -0.24377495768E+03 -0.33555760369E+03  0.99187559860E+03  0.10823434476E+04  0.12500000000E+03 0.  0.
         21    1    1    2  503  501  0.16465434190E+03  0.18221671318E+03 -0.38276393249E+03  0.45477710022E+03  0.00000000000E+00 0.  1.
          2    1    1    2  501    0  0.79120615784E+02  0.15334089051E+03  0.15962360838E+04  0.16055351556E+04  0.00000000000E+00 0.  1.
<mgrwt>
<rscale>  4 0.28057402E+03</rscale>
<asrwt>0</asrwt>
<pdfrwt beam="1">  1       21 0.72100614E-01 0.28057402E+03</pdfrwt>
<pdfrwt beam="2">  1        2 0.41138487E+00 0.28057402E+03</pdfrwt>
<totfact> 0.67421074E+01</totfact>
</mgrwt>
</event>
<event>
 5    0  0.3040647E+000  0.3260418E+03  0.7546771E-02  0.1072902E+00
          4   -1    0    0  502    0 -0.00000000000E+00  0.00000000000E+00  0.36708299166E+03  0.36708299166E+03  0.00000000000E+00 0.  1.
         21   -1    0    0  503  502  0.00000000000E+00 -0.00000000000E+00 -0.64072323859E+03  0.64072323859E+03  0.00000000000E+00 0. -1.
         25    1    1    2    0    0  0.24778614261E+03 -0.11348479790E+03 -0.47478197911E+02  0.30357198669E+03  0.12500000000E+03 0.  0.
         21    1    1    2  503  501  0.40453812746E+02 -0.22075401550E+02 -0.35694260162E+03  0.35990534196E+03  0.00000000000E+00 0. -1.
          4    1    1    2  501    0 -0.28823995536E+03  0.13556019945E+03  0.13078055260E+03  0.34432890160E+03  0.00000000000E+00 0.  1.
<mgrwt>
<rscale>  4 0.32604185E+03</rscale>
<asrwt>0</asrwt>
<pdfrwt beam="1">  1       21 0.98572806E-01 0.32604185E+03</pdfrwt>
<pdfrwt beam="2">  1        4 0.56474306E-01 0.32604185E+03</pdfrwt>
<totfact> 0.10432152E+02</totfact>
</mgrwt>
</event>
<event>
 5    0  0.3040647E+000  0.2858027E+03  0.7546771E-02  0.1092561E+00
         21   -1    0    0  503  502  0.00000000000E+00  0.00000000000E+00  0.28363144831E+03  0.28363144831E+03  0.00000000000E+00 0.  1.
          2   -1    0    0  502    0 -0.00000000000E+00 -0.00000000000E+00 -0.65601151561E+03  0.65601151561E+03  0.00000000000E+00 0.  1.
         25    1    1    2    0    0  0.17030810847E+03  0.16010233497E+03 -0.45131953575E+03  0.52340417730E+03  0.12500000000E+03 0.  0.
         21    1    1    2  503  501 -0.21207699110E+03 -0.15148370310E+03  0.17310000418E+03  0.31286989933E+03  0.00000000000E+00 0.  1.
          2    1    1    2  501    0  0.41768882628E+02 -0.86186318700E+01 -0.94160535734E+02  0.10336888730E+03  0.00000000000E+00 0.  1.
<mgrwt>
<rscale>  4 0.28580273E+03</rscale>
<asrwt>0</asrwt>
<pdfrwt beam="1">  1       21 0.43635608E-01 0.28580273E+03</pdfrwt>
<pdfrwt beam="2">  1        2 0.10092485E+00 0.28580273E+03</pdfrwt>
<totfact> 0.27901379E+03</totfact>
</mgrwt>
</event>
<event>
 5    0  0.3040647E+000  0.3262327E+03  0.7546771E-02  0.1072816E+00
         -2   -1    0    0    0  501 -0.00000000000E+00  0.00000000000E+00  0.91446051860E+03  0.91446051860E+03  0.00000000000E+00 0.  1.
         21   -1    0    0  501  502  0.00000000000E+00 -0.00000000000E+00 -0.81928443565E+03  0.81928443565E+03  0.00000000000E+00 0.  1.
         25    1    1    2    0    0  0.14115347772E+03 -0.23483063555E+03 -0.67236470972E+03  0.73672860305E+03  0.12500000000E+03 0.  0.
         21    1    1    2  503  502  0.57907243281E+00 -0.32250043104E+02 -0.85816056872E+02  0.91677675702E+02  0.00000000000E+00 0.  1.
         -2    1    1    2    0  503 -0.14173255015E+03  0.26708067866E+03  0.85335684954E+03  0.90533867549E+03  0.00000000000E+00 0.  1.
<mgrwt>
<rscale>  4 0.32623273E+03</rscale>
<asrwt>0</asrwt>
<pdfrwt beam="1">  1       21 0.12604376E+00 0.32623273E+03</pdfrwt>
<pdfrwt beam="2">  1       -2 0.14068623E+00 0.32623273E+03</pdfrwt>
<totfact> 0.13210491E+01</totfact>
</mgrwt>
</event>
<event>
 5    0  0.3040647E+000  0.2890017E+03  0.7546771E-02  0.1090872E+00
          2   -1    0    0  502    0 -0.00000000000E+00  0.00000000000E+00  0.68270309224E+03  0.68270309224E+03  0.00000000000E+00 0.  1.
         21   -1    0    0  503  502  0.00000000000E+00 -0.00000000000E+00 -0.20164715572E+03  0.20164715572E+03  0.00000000000E+00 0.  1.
         25    1    1    2    0    0 -0.91533249125E+02 -0.22340098917E+03  0.70967356188E+01  0.27195900668E+03  0.12500000000E+03 0.  0.
         21    1    1    2  503  501 -0.10402748352E+01 -0.25242654397E+02 -0.32189225385E+02  0.40919677462E+02  0.00000000000E+00 0. -1.
          2    1    1    2  501    0  0.92573523960E+02  0.24864364357E+03  0.50614842629E+03  0.57147156382E+03  0.00000000000E+00 0.  1.
<mgrwt>
<rscale>  4 0.28900168E+03</rscale>
<asrwt>0</asrwt>
<pdfrwt beam="1">  1       21 0.31022640E-01 0.28900168E+03</pdfrwt>
<pdfrwt beam="2">  1        2 0.10503124E+00 0.28900168E+03</pdfrwt>
<totfact> 0.52885760E+03</totfact>
</mgrwt>
</event>
<event>
 5    0  0.3040647E+000  0.2275692E+03  0.7546771E-02  0.1128362E+00
          2   -1    0    0  502    0 -0.00000000000E+00  0.00000000000E+00  0.12471908575E+04  0.12471908575E+04  0.00000000000E+00 0. -1.
         21   -1    0    0  503  502  0.00000000000E+00 -0.00000000000E+00 -0.33137657629E+03  0.33137657629E+03  0.00000000000E+00 0.  1.
         25    1    1    2    0    0 -0.20126284962E+03 -0.67124614661E+02 -0.26457591774E+03  0.36143860444E+03  0.12500000000E+03 0.  0.
         21    1    1    2  503  501  0.22351108955E+02  0.42647049138E+01  0.11979418451E+01  0.22785847453E+02  0.00000000000E+00 0.  1.
          2    1    1    2  501    0  0.17891174066E+03  0.62859909747E+02  0.11791922571E+04  0.11943429819E+04  0.00000000000E+00 0. -1.
<mgrwt>
<rscale>  4 0.22756916E+03</rscale>
<asrwt>0</asrwt>
<pdfrwt beam="1">  1       21 0.50981012E-01 0.22756916E+03</pdfrwt>
<pdfrwt beam="2">  1        2 0.19187551E+00 0.22756916E+03</pdfrwt>
<totfact> 0.86091855E+02</totfact>
</mgrwt>
</event>
<event>
 5    0  0.3040647E+000  0.6896065E+03  0.7546771E-02  0.9735173E-01
          2   -1    0    0  502    0 -0.00000000000E+00  0.00000000000E+00  0.31548968909E+04  0.31548968909E+04  0.00000000000E+00 0.  1.
         21   -1    0    0  503  502  0.00000000000E+00 -0.00000000000E+00 -0.37420921679E+03  0.37420921679E+03  0.00000000000E+00 0. -1.
         25    1    1    2    0    0  0.92677257318E+03 -0.88226028566E+02  0.86875129335E+03  0.12794706109E+04  0.12500000000E+03 0.  0.
         21    1    1    2  503  501 -0.34760484115E+03 -0.12801006408E+03  0.18233896232E+03  0.41287189209E+03  0.00000000000E+00 0. -1.
          2    1    1    2  501    0 -0.57916773202E+03  0.21623609265E+03  0.17295974184E+04  0.18367636047E+04  0.00000000000E+00 0.  1.
<mgrwt>
<rscale>  4 0.68960649E+03</rscale>
<asrwt>0</asrwt>
<pdfrwt beam="1">  1       21 0.57570651E-01 0.68960649E+03</pdfrwt>
<pdfrwt beam="2">  1        2 0.48536874E+00 0.68960649E+03</pdfrwt>
<totfact> 0.47717398E+01</totfact>
</mgrwt>
</event>
<event>
 5    0  0.3040647E+000  0.2501626E+03  0.7546771E-02  0.1113202E+00
         21   -1    0    0  503  502  0.00000000000E+00  0.00000000000E+00  0.22362586960E+03  0.22362586960E+03  0.00000000000E+00 0. -1.
          2   -1    0    0  502    0 -0.00000000000E+00 -0.00000000000E+00 -0.28233787834E+03  0.28233787834E+03  0.00000000000E+00 0.  1.
         25    1    1    2    0    0 -0.73656186209E+02  0.19302955642E+03 -0.67014962514E+02  0.25060257106E+03  0.12500000000E+03 0.  0.
         21    1    1    2  503  501 -0.16756659546E+02  0.17764782160E+02  0.89071700928E+01  0.25994437932E+02  0.00000000000E+00 0. -1.
          2    1    1    2  501    0  0.90412845754E+02 -0.21079433858E+03 -0.60421631795E+00  0.22936673894E+03  0.00000000000E+00 0.  1.
<mgrwt>
<rscale>  4 0.25016260E+03</rscale>
<asrwt>0</asrwt>
<pdfrwt beam="1">  1       21 0.34403980E-01 0.25016260E+03</pdfrwt>
<pdfrwt beam="2">  1        2 0.43436597E-01 0.25016260E+03</pdfrwt>
<totfact> 0.11656334E+04</totfact>
</mgrwt>
</event>
<event>
 5    0  0.3040647E+000  0.2152265E+03  0.7546771E-02  0.1137493E+00
         21   -1    0    0  501  502  0.00000000000E+00  0.00000000000E+00  0.33867452870E+03  0.33867452870E+03  0.00000000000E+00 0. -1.
         -4   -1    0    0    0  501 -0.00000000000E+00 -0.00000000000E+00 -0.60135684071E+03  0.60135684071E+03  0.00000000000E+00 0. -1.
         25    1    1    2    0    0 -0.20241377151E+03  0.16079485117E+03 -0.40861652607E+03  0.49941844623E+03  0.12500000000E+03 0.  0.
         21    1    1    2  503  502  0.79656542064E+02 -0.15166292836E+03  0.23346163203E+03  0.28957061688E+03  0.00000000000E+00 0. -1.
         -4    1    1    2    0  503  0.12275722945E+03 -0.91319228105E+01 -0.87527417965E+02  0.15104230630E+03  0.00000000000E+00 0. -1.
<mgrwt>
<rscale>  4 0.21522650E+03</rscale>
<asrwt>0</asrwt>
<pdfrwt beam="1">  1       21 0.52103774E-01 0.21522650E+03</pdfrwt>
<pdfrwt beam="2">  1       -4 0.92516436E-01 0.21522650E+03</pdfrwt>
<totfact> 0.14975143E+02</totfact>
</mgrwt>
</event>
<event>
 5    0  0.3040647E+000  0.2808993E+03  0.7546771E-02  0.1095199E+00
         21   -1    0    0  501  502  0.00000000000E+00  0.00000000000E+00  0.12821016281E+03  0.12821016281E+03  0.00000000000E+00 0. -1.
         -1   -1    0    0    0  501 -0.00000000000E+00 -0.00000000000E+00 -0.10712231633E+04  0.10712231633E+04  0.00000000000E+00 0.  1.
         25    1    1    2    0    0 -0.22735321825E+03 -0.17113930281E+03 -0.18214165087E+03  0.36024814752E+03  0.12500000000E+03 0.  0.
         21    1    1    2  503  502  0.37939668485E+02  0.16570422447E+02 -0.14977749291E+01  0.41427535222E+02  0.00000000000E+00 0. -1.
         -1    1    1    2    0  503  0.18941354976E+03  0.15456888036E+03 -0.75937357464E+03  0.79775764332E+03  0.00000000000E+00 0.  1.
<mgrwt>
<rscale>  4 0.28089931E+03</rscale>
<asrwt>0</asrwt>
<pdfrwt beam="1">  1       21 0.19724641E-01 0.28089931E+03</pdfrwt>
<pdfrwt beam="2">  1       -1 0.16480356E+00 0.28089931E+03</pdfrwt>
<totfact> 0.63747816E+02</totfact>
</mgrwt>
</event>
<event>
 5    0  0.4600498E+000  0.3206676E+03  0.7546771E-02  0.1075342E+00
          1   -1    0    0  502    0 -0.00000000000E+00  0.00000000000E+00  0.23226305360E+04  0.23226305360E+04  0.00000000000E+00 0.  1.
         21   -1    0    0  503  502  0.00000000000E+00 -0.00000000000E+00 -0.28040059010E+03  0.28040059010E+03  0.00000000000E+00 0.  1.
         25    1    1    2    0    0 -0.24352295706E+03 -0.16329908302E+03 -0.16452113635E+03  0.35869517063E+03  0.12500000000E+03 0.  0.
         21    1    1    2  503  501 -0.12713428712E+02  0.16303799317E+02  0.30205109113E+01  0.20894224751E+02  0.00000000000E+00 0. -1.
          1    1    1    2  501    0  0.25623638577E+03  0.14699528370E+03  0.22037305713E+04  0.22234417307E+04  0.00000000000E+00 0.  1.
<mgrwt>
<rscale>  4 0.32066765E+03</rscale>
<asrwt>0</asrwt>
<pdfrwt beam="1">  1       21 0.43138554E-01 0.32066765E+03</pdfrwt>
<pdfrwt beam="2">  1        1 0.35732776E+00 0.32066765E+03</pdfrwt>
<totfact> 0.11255971E+02</totfact>
</mgrwt>
</event>
<event>
 5    0  0.3040647E+000  0.2244623E+03  0.7546771E-02  0.1130599E+00
         21   -1    0    0  503  502  0.00000000000E+00  0.00000000000E+00  0.26914693172E+03  0.26914693172E+03  0.00000000000E+00 0.  1.
          1   -1    0    0  502    0 -0.00000000000E+00 -0.00000000000E+00 -0.55555784752E+03  0.55555784752E+03  0.00000000000E+00 0. -1.
         25    1    1    2    0    0  0.47958556719E+02  0.29397564590E+03 -0.69635263569E+02  0.33044783776E+03  0.12500000000E+03 0.  0.
         21    1    1    2  503  501 -0.14437364414E+02 -0.12971369982E+03  0.80230291139E+02  0.15320241848E+03  0.00000000000E+00 0.  1.
          1    1    1    2  501    0 -0.33521192305E+02 -0.16426194608E+03 -0.29700594337E+03  0.34105452300E+03  0.00000000000E+00 0. -1.
<mgrwt>
<rscale>  4 0.22446228E+03</rscale>
<asrwt>0</asrwt>
<pdfrwt beam="1">  1       21 0.41407220E-01 0.22446228E+03</pdfrwt>
<pdfrwt beam="2">  1        1 0.85470438E-01 0.22446228E+03</pdfrwt>
<totfact> 0.24041907E+03</totfact>
</mgrwt>
</event>
<event>
 5    0  0.3040647E+000  0.2061456E+03  0.7546771E-02  0.1144655E+00
         21   -1    0    0  503  502  0.00000000000E+00  0.00000000000E+00  0.62095601284E+03  0.62095601284E+03  0.00000000000E+00 0.  1.
          2   -1    0    0  502    0 -0.00000000000E+00 -0.00000000000E+00 -0.84730678347E+03  0.84730678347E+03  0.00000000000E+00 0.  1.
         25    1    1    2    0    0  0.20822223023E+03  0.11845555403E+02  0.37375350004E+02  0.24600555102E+03  0.12500000000E+03 0.  0.
         21    1    1    2  503  501 -0.15502224935E+03 -0.33350821167E+02  0.46499074813E+03  0.49128461294E+03  0.00000000000E+00 0.  1.
          2    1    1    2  501    0 -0.53199980880E+02  0.21505265764E+02 -0.72871686876E+03  0.73097263234E+03  0.00000000000E+00 0.  1.
<mgrwt>
<rscale>  4 0.20614559E+03</rscale>
<asrwt>0</asrwt>
<pdfrwt beam="1">  1       21 0.95531695E-01 0.20614559E+03</pdfrwt>
<pdfrwt beam="2">  1        2 0.13035489E+00 0.20614559E+03</pdfrwt>
<totfact> 0.37766063E+02</totfact>
</mgrwt>
</event>
<event>
 5    0  0.3040647E+000  0.9843083E+03  0.7546771E-02  0.9325925E-01
          2   -1    0    0  502    0 -0.00000000000E+00  0.00000000000E+00  0.23795725156E+04  0.23795725156E+04  0.00000000000E+00 0. -1.
         21   -1    0    0  503  502  0.00000000000E+00 -0.00000000000E+00 -0.65281850796E+03  0.65281850796E+03  0.00000000000E+00 0. -1.
         25    1    1    2    0    0  0.37368472658E+03  0.91322152257E+03  0.80856983182E+02  0.99788610367E+03  0.12500000000E+03 0.  0.
         21    1    1    2  503  501 -0.11242130579E+03  0.25959563560E+02 -0.69546432419E+01  0.11558899601E+03  0.00000000000E+00 0. -1.
          2    1    1    2  501    0 -0.26126342079E+03 -0.93918108612E+03  0.16528516677E+04  0.19189159239E+04  0.00000000000E+00 0. -1.
<mgrwt>
<rscale>  4 0.98430825E+03</rscale>
<asrwt>0</asrwt>
<pdfrwt beam="1">  1       21 0.10043362E+00 0.98430825E+03</pdfrwt>
<pdfrwt beam="2">  1        2 0.36608807E+00 0.98430825E+03</pdfrwt>
<totfact> 0.35055818E+01</totfact>
</mgrwt>
</event>
<event>
 5    0  0.3040647E+000  0.4388810E+03  0.7546771E-02  0.1031091E+00
          2   -1    0    0  502    0 -0.00000000000E+00  0.00000000000E+00  0.11003726773E+04  0.11003726773E+04  0.00000000000E+00 0.  1.
         21   -1    0    0  503  502  0.00000000000E+00 -0.00000000000E+00 -0.19953750651E+03  0.19953750651E+03  0.00000000000E+00 0.  1.
         25    1    1    2    0    0  0.17429596148E+03  0.38579661740E+03  0.64168355128E+03  0.77884587190E+03  0.12500000000E+03 0.  0.
         21    1    1    2  503  501  0.21757122495E+02 -0.17940366315E+02 -0.34400200569E+01  0.28408851803E+02  0.00000000000E+00 0.  1.
          2    1    1    2  501    0 -0.19605308397E+03 -0.36785625108E+03  0.26259163955E+03  0.49265546009E+03  0.00000000000E+00 0.  1.
<mgrwt>
<rscale>  4 0.43888098E+03</rscale>
<asrwt>0</asrwt>
<pdfrwt beam="1">  1       21 0.30698078E-01 0.43888098E+03</pdfrwt>
<pdfrwt beam="2">  1        2 0.16928810E+00 0.43888098E+03</pdfrwt>
<totfact> 0.27451802E+03</totfact>
</mgrwt>
</event>
<event>
 5    0  0.3040647E+000  0.3346126E+03  0.7546771E-02  0.1069114E+00
          2   -1    0    0  502    0 -0.00000000000E+00  0.00000000000E+00  0.20419771767E+04  0.20419771767E+04  0.00000000000E+00 0. -1.
         21   -1    0    0  503  502  0.00000000000E+00 -0.00000000000E+00 -0.24676411009E+03  0.24676411009E+03  0.00000000000E+00 0. -1.
         25    1    1    2    0    0 -0.21805617770E+03 -0.18870204296E+03 -0.43326767482E+02  0.31726828778E+03  0.12500000000E+03 0.  0.
         21    1    1    2  503  501 -0.38769956533E+02  0.11423422631E+02 -0.46020368225E+02  0.61249313512E+02  0.00000000000E+00 0.  1.
          2    1    1    2  501    0  0.25682613423E+03  0.17727862033E+03  0.18845602023E+04  0.19102236855E+04  0.00000000000E+00 0. -1.
<mgrwt>
<rscale>  4 0.33461255E+03</rscale>
<asrwt>0</asrwt>
<pdfrwt beam="1">  1       21 0.37963711E-01 0.33461255E+03</pdfrwt>
<pdfrwt beam="2">  1        2 0.31415032E+00 0.33461255E+03</pdfrwt>
<totfact> 0.56412464E+02</totfact>
</mgrwt>
</event>
<event>
 5    0  0.3040647E+000  0.2061549E+03  0.7546771E-02  0.1144648E+00
         21   -1    0    0  503  502  0.00000000000E+00  0.00000000000E+00  0.55030220839E+02  0.55030220839E+02  0.00000000000E+00 0.  1.
          1   -1    0    0  502    0 -0.00000000000E+00 -0.00000000000E+00 -0.16735791779E+04  0.16735791779E+04  0.00000000000E+00 0.  1.
         25    1    1    2    0    0 -0.38561523724E+01  0.21134994457E+03 -0.82780681487E+03  0.86346557067E+03  0.12500000000E+03 0.  0.
         21    1    1    2  503  501  0.70422136855E+02 -0.14046111352E+03 -0.15055405475E+03  0.21761232771E+03  0.00000000000E+00 0.  1.
          1    1    1    2  501    0 -0.66565984482E+02 -0.70888831053E+02 -0.64018808742E+03  0.64753150034E+03  0.00000000000E+00 0.  1.
<mgrwt>
<rscale>  4 0.20615489E+03</rscale>
<asrwt>0</asrwt>
<pdfrwt beam="1">  1       21 0.84661872E-02 0.20615489E+03</pdfrwt>
<pdfrwt beam="2">  1        1 0.25747374E+00 0.20615489E+03</pdfrwt>
<totfact> 0.67751312E+03</totfact>
</mgrwt>
</event>
<event>
 5    0  0.3040647E+000  0.2722899E+03  0.7546771E-02  0.1099976E+00
          1   -1    0    0  502    0 -0.00000000000E+00  0.00000000000E+00  0.33235134079E+03  0.33235134079E+03  0.00000000000E+00 0. -1.
         21   -1    0    0  503  502  0.00000000000E+00 -0.00000000000E+00 -0.27024657239E+03  0.27024657239E+03  0.00000000000E+00 0. -1.
         25    1    1    2    0    0 -0.22713034680E+03  0.69519900015E+02 -0.58997148071E+02  0.27482153194E+03  0.12500000000E+03 0.  0.
         21    1    1    2  503  501 -0.14891641958E+02 -0.34389473601E+02 -0.22951572788E+02  0.43945097431E+02  0.00000000000E+00 0.  1.
          1    1    1    2  501    0  0.24202198876E+03 -0.35130426414E+02  0.14405348926E+03  0.28383128381E+03  0.00000000000E+00 0. -1.
<mgrwt>
<rscale>  4 0.27228995E+03</rscale>
<asrwt>0</asrwt>
<pdfrwt beam="1">  1       21 0.41576396E-01 0.27228995E+03</pdfrwt>
<pdfrwt beam="2">  1        1 0.51130976E-01 0.27228995E+03</pdfrwt>
<totfact> 0.45915134E+03</totfact>
</mgrwt>
</event>
