<event>
 5    0  0.1943430E+001  0.2317368E+03  0.7546771E-02  0.1125423E+00
         21   -1    0    0  503  501  0.00000000000E+00  0.00000000000E+00  0.94753088649E+02  0.94753088649E+02  0.00000000000E+00 0. -1.
         21   -1    0    0  504  502 -0.00000000000E+00 -0.00000000000E+00 -0.95377173632E+03  0.95377173632E+03  0.00000000000E+00 0. -1.
         25    1    1    2    0    0  0.21092228287E+03  0.49164144067E+02 -0.17862498911E+03  0.30730637677E+03  0.12500000000E+03 0.  0.
         21    1    1    2  503  502 -0.44958177325E+02 -0.10748871180E+01 -0.45498126283E+03  0.45719836244E+03  0.00000000000E+00 0. -1.
         21    1    1    2  504  501 -0.16596410554E+03 -0.48089256949E+02 -0.22541239573E+03  0.28402008575E+03  0.00000000000E+00 0. -1.
<mgrwt>
<rscale>  4 0.23173679E+03</rscale>
<asrwt>0</asrwt>
<pdfrwt beam="1">  1       21 0.14577398E-01 0.23173679E+03</pdfrwt>
<pdfrwt beam="2">  1       21 0.14673412E+00 0.23173679E+03</pdfrwt>
<totfact> 0.12740727E+04</totfact>
</mgrwt>
</event>
<event>
 5    0  0.1943430E+001  0.2539508E+03  0.7546771E-02  0.1110833E+00
         21   -1    0    0  504  501  0.00000000000E+00  0.00000000000E+00  0.47011580414E+03  0.47011580414E+03  0.00000000000E+00 0.  1.
         21   -1    0    0  503  502 -0.00000000000E+00 -0.00000000000E+00 -0.21647972200E+03  0.21647972200E+03  0.00000000000E+00 0.  1.
         25    1    1    2    0    0  0.16641044354E+03  0.17049927834E+03  0.73493050106E+02  0.27890619937E+03  0.12500000000E+03 0.  0.
         21    1    1    2  503  501 -0.13933972369E+03 -0.16318814970E+03  0.25174698124E+03  0.33079067908E+03  0.00000000000E+00 0.  1.
         21    1    1    2  504  502 -0.27070719854E+02 -0.73111286335E+01 -0.71603949205E+02  0.76898647693E+02  0.00000000000E+00 0.  1.
<mgrwt>
<rscale>  4 0.25395081E+03</rscale>
<asrwt>0</asrwt>
<pdfrwt beam="1">  1       21 0.72325508E-01 0.25395081E+03</pdfrwt>
<pdfrwt beam="2">  1       21 0.33304573E-01 0.25395081E+03</pdfrwt>
<totfact> 0.14442513E+04</totfact>
</mgrwt>
</event>
<event>
 5    0  0.1943430E+001  0.2457687E+03  0.7546771E-02  0.1116008E+00
         21   -1    0    0  504  501  0.00000000000E+00  0.00000000000E+00  0.21342756193E+03  0.21342756193E+03  0.00000000000E+00 0. -1.
         21   -1    0    0  501  502 -0.00000000000E+00 -0.00000000000E+00 -0.58609602682E+03  0.58609602682E+03  0.00000000000E+00 0.  1.
         25    1    1    2    0    0 -0.28296242025E+02  0.20970595692E+03  0.11074441993E+03  0.26956741685E+03  0.12500000000E+03 0.  0.
         21    1    1    2  503  502  0.11401767763E+02 -0.19264010480E+03 -0.42272129130E+03  0.46468645387E+03  0.00000000000E+00 0.  1.
         21    1    1    2  504  503  0.16894474262E+02 -0.17065852122E+02 -0.60691593520E+02  0.65269718042E+02  0.00000000000E+00 0.  1.
<mgrwt>
<rscale>  4 0.24576872E+03</rscale>
<asrwt>0</asrwt>
<pdfrwt beam="1">  1       21 0.32835009E-01 0.24576872E+03</pdfrwt>
<pdfrwt beam="2">  1       21 0.90168620E-01 0.24576872E+03</pdfrwt>
<totfact> 0.90226196E+03</totfact>
</mgrwt>
</event>
<event>
 5    0  0.1943430E+001  0.2337232E+03  0.7546771E-02  0.1124046E+00
         21   -1    0    0  503  501  0.00000000000E+00  0.00000000000E+00  0.23971486026E+03  0.23971486026E+03  0.00000000000E+00 0. -1.
         21   -1    0    0  504  502 -0.00000000000E+00 -0.00000000000E+00 -0.35687508189E+03  0.35687508189E+03  0.00000000000E+00 0. -1.
         25    1    1    2    0    0 -0.21875515393E+03  0.52165590453E+02 -0.51072870085E+01  0.25734442015E+03  0.12500000000E+03 0.  0.
         21    1    1    2  503  502  0.17592588635E+03 -0.46151960514E+02  0.35650853934E+02  0.18533996961E+03  0.00000000000E+00 0. -1.
         21    1    1    2  504  501  0.42829267578E+02 -0.60136299391E+01 -0.14770378855E+03  0.15390555240E+03  0.00000000000E+00 0. -1.
<mgrwt>
<rscale>  4 0.23372316E+03</rscale>
<asrwt>0</asrwt>
<pdfrwt beam="1">  1       21 0.36879209E-01 0.23372316E+03</pdfrwt>
<pdfrwt beam="2">  1       21 0.54903859E-01 0.23372316E+03</pdfrwt>
<totfact> 0.21698478E+04</totfact>
</mgrwt>
</event>
<event>
 5    0  0.1943430E+001  0.2464449E+03  0.7546771E-02  0.1115572E+00
         21   -1    0    0  504  501  0.00000000000E+00  0.00000000000E+00  0.62765147214E+03  0.62765147214E+03  0.00000000000E+00 0. -1.
         21   -1    0    0  503  502 -0.00000000000E+00 -0.00000000000E+00 -0.12656712354E+03  0.12656712354E+03  0.00000000000E+00 0.  1.
         25    1    1    2    0    0  0.20838589645E+03  0.62081367206E+02  0.41550552569E+03  0.48533351406E+03  0.12500000000E+03 0.  0.
         21    1    1    2  503  501 -0.17888481899E+03 -0.10124609991E+03  0.74353022258E+02  0.21858390410E+03  0.00000000000E+00 0.  1.
         21    1    1    2  504  502 -0.29501077459E+02  0.39164732701E+02  0.11225800656E+02  0.50301177513E+02  0.00000000000E+00 0.  1.
<mgrwt>
<rscale>  4 0.24644490E+03</rscale>
<asrwt>0</asrwt>
<pdfrwt beam="1">  1       21 0.96561764E-01 0.24644490E+03</pdfrwt>
<pdfrwt beam="2">  1       21 0.19471865E-01 0.24644490E+03</pdfrwt>
<totfact> 0.20991407E+04</totfact>
</mgrwt>
</event>
<event>
 5    0  0.1943430E+001  0.2991810E+03  0.7546771E-02  0.1085651E+00
         21   -1    0    0  502  501  0.00000000000E+00  0.00000000000E+00  0.14753814258E+04  0.14753814258E+04  0.00000000000E+00 0.  1.
         21   -1    0    0  503  502 -0.00000000000E+00 -0.00000000000E+00 -0.24071871157E+03  0.24071871157E+03  0.00000000000E+00 0. -1.
         25    1    1    2    0    0 -0.22732148446E+03 -0.14902761388E+03  0.13686921645E+04  0.14010094676E+04  0.12500000000E+03 0.  0.
         21    1    1    2  503  504  0.20768667920E+03  0.10164719194E+03 -0.92288529974E+02  0.24896401570E+03  0.00000000000E+00 0. -1.
         21    1    1    2  504  501  0.19634805258E+02  0.47380421947E+02 -0.41740920285E+02  0.66126654139E+02  0.00000000000E+00 0. -1.
<mgrwt>
<rscale>  4 0.29918103E+03</rscale>
<asrwt>0</asrwt>
<pdfrwt beam="1">  1       21 0.22698175E+00 0.29918103E+03</pdfrwt>
<pdfrwt beam="2">  1       21 0.37033649E-01 0.29918103E+03</pdfrwt>
<totfact> 0.57675289E+02</totfact>
</mgrwt>
</event>
<event>
 5    0  0.1943430E+001  0.2633481E+03  0.7546771E-02  0.1105148E+00
         21   -1    0    0  504  501  0.00000000000E+00  0.00000000000E+00  0.29377139579E+02  0.29377139579E+02  0.00000000000E+00 0.  1.
         21   -1    0    0  501  502 -0.00000000000E+00 -0.00000000000E+00 -0.21785733816E+04  0.21785733816E+04  0.00000000000E+00 0.  1.
         25    1    1    2    0    0  0.21841605367E+03  0.77599131716E+02 -0.12707569358E+04  0.12977578309E+04  0.12500000000E+03 0.  0.
         21    1    1    2  503  502 -0.23320128311E+02 -0.17007598295E+02 -0.18670680293E+03  0.18892463324E+03  0.00000000000E+00 0.  1.
         21    1    1    2  504  503 -0.19509592536E+03 -0.60591533422E+02 -0.69173250326E+03  0.72126805702E+03  0.00000000000E+00 0.  1.
<mgrwt>
<rscale>  4 0.26334805E+03</rscale>
<asrwt>0</asrwt>
<pdfrwt beam="1">  1       21 0.45195596E-02 0.26334805E+03</pdfrwt>
<pdfrwt beam="2">  1       21 0.33516516E+00 0.26334805E+03</pdfrwt>
<totfact> 0.63371048E+03</totfact>
</mgrwt>
</event>
<event>
 5    0  0.1943430E+001  0.3303978E+03  0.7546771E-02  0.1070961E+00
         21   -1    0    0  504  501  0.00000000000E+00  0.00000000000E+00  0.19999122244E+03  0.19999122244E+03  0.00000000000E+00 0. -1.
         21   -1    0    0  503  502 -0.00000000000E+00 -0.00000000000E+00 -0.11153287410E+04  0.11153287410E+04  0.00000000000E+00 0.  1.
         25    1    1    2    0    0 -0.13638041138E+03 -0.28639337566E+03 -0.49449026143E+03  0.60063832785E+03  0.12500000000E+03 0.  0.
         21    1    1    2  503  501  0.11152938146E+03  0.28145795105E+03 -0.98559229862E+01  0.30291008626E+03  0.00000000000E+00 0. -1.
         21    1    1    2  504  502  0.24851029925E+02  0.49354246131E+01 -0.41099133418E+03  0.41177154937E+03  0.00000000000E+00 0.  1.
<mgrwt>
<rscale>  4 0.33039777E+03</rscale>
<asrwt>0</asrwt>
<pdfrwt beam="1">  1       21 0.30767881E-01 0.33039777E+03</pdfrwt>
<pdfrwt beam="2">  1       21 0.17158904E+00 0.33039777E+03</pdfrwt>
<totfact> 0.19008511E+03</totfact>
</mgrwt>
</event>
<event>
 5    0  0.1943430E+001  0.2437424E+03  0.7546771E-02  0.1117325E+00
         21   -1    0    0  503  501  0.00000000000E+00  0.00000000000E+00  0.28286478613E+03  0.28286478613E+03  0.00000000000E+00 0.  1.
         21   -1    0    0  504  502 -0.00000000000E+00 -0.00000000000E+00 -0.38883542831E+03  0.38883542831E+03  0.00000000000E+00 0.  1.
         25    1    1    2    0    0 -0.89042941270E+02  0.18673290749E+03  0.17329888226E+03  0.29741440235E+03  0.12500000000E+03 0.  0.
         21    1    1    2  503  502 -0.22470720114E+02  0.48993676635E+01 -0.89700730467E+01  0.24686013781E+02  0.00000000000E+00 0.  1.
         21    1    1    2  504  501  0.11151366138E+03 -0.19163227516E+03 -0.27029945140E+03  0.34959979832E+03  0.00000000000E+00 0.  1.
<mgrwt>
<rscale>  4 0.24374236E+03</rscale>
<asrwt>0</asrwt>
<pdfrwt beam="1">  1       21 0.43517659E-01 0.24374236E+03</pdfrwt>
<pdfrwt beam="2">  1       21 0.59820835E-01 0.24374236E+03</pdfrwt>
<totfact> 0.12833923E+04</totfact>
</mgrwt>
</event>
<event>
 5    0  0.1943430E+001  0.2370209E+03  0.7546771E-02  0.1121793E+00
         21   -1    0    0  503  501  0.00000000000E+00  0.00000000000E+00  0.39361300778E+03  0.39361300778E+03  0.00000000000E+00 0. -1.
         21   -1    0    0  504  502 -0.00000000000E+00 -0.00000000000E+00 -0.49696621118E+03  0.49696621118E+03  0.00000000000E+00 0. -1.
         25    1    1    2    0    0 -0.36166420641E+02  0.21102515993E+03  0.31270430717E+03  0.39905965948E+03  0.12500000000E+03 0.  0.
         21    1    1    2  503  502 -0.18935997852E+02 -0.68964865039E+02 -0.27406525843E+03  0.28324281191E+03  0.00000000000E+00 0. -1.
         21    1    1    2  504  501  0.55102418492E+02 -0.14206029489E+03 -0.14199225214E+03  0.20827674757E+03  0.00000000000E+00 0. -1.
<mgrwt>
<rscale>  4 0.23702088E+03</rscale>
<asrwt>0</asrwt>
<pdfrwt beam="1">  1       21 0.60555847E-01 0.23702088E+03</pdfrwt>
<pdfrwt beam="2">  1       21 0.76456340E-01 0.23702088E+03</pdfrwt>
<totfact> 0.37406763E+03</totfact>
</mgrwt>
</event>
<event>
 5    0  0.1943430E+001  0.3047103E+03  0.7546771E-02  0.1082909E+00
         21   -1    0    0  504  501  0.00000000000E+00  0.00000000000E+00  0.17326213727E+03  0.17326213727E+03  0.00000000000E+00 0.  1.
         21   -1    0    0  503  502 -0.00000000000E+00 -0.00000000000E+00 -0.64838368848E+03  0.64838368848E+03  0.00000000000E+00 0.  1.
         25    1    1    2    0    0  0.70223078373E+02  0.28017015067E+03 -0.16228550192E+03  0.35410193193E+03  0.12500000000E+03 0.  0.
         21    1    1    2  503  501 -0.72813520180E+02 -0.25792339780E+03 -0.15803116299E+03  0.31112720281E+03  0.00000000000E+00 0.  1.
         21    1    1    2  504  502  0.25904418073E+01 -0.22246752874E+02 -0.15480488630E+03  0.15641669101E+03  0.00000000000E+00 0. -1.
<mgrwt>
<rscale>  4 0.30471030E+03</rscale>
<asrwt>0</asrwt>
<pdfrwt beam="1">  1       21 0.26655714E-01 0.30471030E+03</pdfrwt>
<pdfrwt beam="2">  1       21 0.99751335E-01 0.30471030E+03</pdfrwt>
<totfact> 0.10381514E+04</totfact>
</mgrwt>
</event>
<event>
 5    0  0.1943430E+001  0.2741095E+03  0.7546771E-02  0.1098950E+00
         21   -1    0    0  504  501  0.00000000000E+00  0.00000000000E+00  0.89044702585E+03  0.89044702585E+03  0.00000000000E+00 0. -1.
         21   -1    0    0  503  502 -0.00000000000E+00 -0.00000000000E+00 -0.12001488074E+04  0.12001488074E+04  0.00000000000E+00 0.  1.
         25    1    1    2    0    0  0.26015298917E+03 -0.29808226378E+01 -0.13151523714E+03  0.31719035402E+03  0.12500000000E+03 0.  0.
         21    1    1    2  503  501 -0.16557366866E+03  0.18663878893E+03  0.76666177478E+03  0.80623752964E+03  0.00000000000E+00 0. -1.
         21    1    1    2  504  502 -0.94579320512E+02 -0.18365796629E+03 -0.94484831921E+03  0.96716794961E+03  0.00000000000E+00 0.  1.
<mgrwt>
<rscale>  4 0.27410952E+03</rscale>
<asrwt>0</asrwt>
<pdfrwt beam="1">  1       21 0.13699185E+00 0.27410952E+03</pdfrwt>
<pdfrwt beam="2">  1       21 0.18463828E+00 0.27410952E+03</pdfrwt>
<totfact> 0.57783738E+01</totfact>
</mgrwt>
</event>
<event>
 5    0  0.1943430E+001  0.2561890E+03  0.7546771E-02  0.1109455E+00
         21   -1    0    0  503  501  0.00000000000E+00  0.00000000000E+00  0.16793747117E+03  0.16793747117E+03  0.00000000000E+00 0.  1.
         21   -1    0    0  504  502 -0.00000000000E+00 -0.00000000000E+00 -0.43384739833E+03  0.43384739833E+03  0.00000000000E+00 0.  1.
         25    1    1    2    0    0 -0.49964873871E+02  0.22224001269E+03 -0.40451538741E+02  0.26296090745E+03  0.12500000000E+03 0.  0.
         21    1    1    2  503  502  0.73802750005E+02 -0.20561053647E+03 -0.17225244328E+03  0.27819676999E+03  0.00000000000E+00 0.  1.
         21    1    1    2  504  501 -0.23837876134E+02 -0.16629476220E+02 -0.53205945141E+02  0.60627192053E+02  0.00000000000E+00 0.  1.
<mgrwt>
<rscale>  4 0.25618900E+03</rscale>
<asrwt>0</asrwt>
<pdfrwt beam="1">  1       21 0.25836534E-01 0.25618900E+03</pdfrwt>
<pdfrwt beam="2">  1       21 0.66745753E-01 0.25618900E+03</pdfrwt>
<totfact> 0.28335715E+04</totfact>
</mgrwt>
</event>
