<event>
 5    0  0.2159162E+000  0.2822494E+03  0.7546771E-02  0.1094467E+00
         21   -1    0    0  502  501  0.00000000000E+00  0.00000000000E+00  0.47889255355E+03  0.47889255355E+03  0.00000000000E+00 0.  1.
         21   -1    0    0  503  502 -0.00000000000E+00 -0.00000000000E+00 -0.16333040344E+03  0.16333040344E+03  0.00000000000E+00 0. -1.
         25    1    1    2    0    0 -0.19360467720E+03 -0.16296310591E+03  0.24800342365E+03  0.37572655358E+03  0.12500000000E+03 0.  0.
         21    1    1    2  503  504  0.26719992685E+02  0.41354207724E+02  0.79744134769E-02  0.49235440175E+02  0.00000000000E+00 0.  1.
         21    1    1    2  504  501  0.16688468452E+03  0.12160889818E+03  0.67550752050E+02  0.21726096324E+03  0.00000000000E+00 0. -1.
<mgrwt>
<rscale>  4 0.28224944E+03</rscale>
<asrwt>0</asrwt>
<pdfrwt beam="1">  1       21 0.73675777E-01 0.28224944E+03</pdfrwt>
<pdfrwt beam="2">  1       21 0.25127754E-01 0.28224944E+03</pdfrwt>
<totfact> 0.23731887E+04</totfact>
</mgrwt>
</event>
<event>
 5    0  0.2414061E+000  0.2103433E+03  0.7546771E-02  0.1141294E+00
         21   -1    0    0  502  501  0.00000000000E+00  0.00000000000E+00  0.77893969970E+03  0.77893969970E+03  0.00000000000E+00 0.  1.
         21   -1    0    0  503  502 -0.00000000000E+00 -0.00000000000E+00 -0.97188224533E+02  0.97188224533E+02  0.00000000000E+00 0.  1.
         25    1    1    2    0    0 -0.21034298242E+03  0.52706158143E+02  0.53026135979E+03  0.58636526078E+03  0.12500000000E+03 0.  0.
         21    1    1    2  503  504  0.12920420924E+03 -0.47967212875E+01  0.14651251490E+03  0.19540382095E+03  0.00000000000E+00 0.  1.
         21    1    1    2  504  501  0.81138773177E+02 -0.47909436855E+02  0.49776004824E+01  0.94358842506E+02  0.00000000000E+00 0.  1.
<mgrwt>
<rscale>  4 0.21034326E+03</rscale>
<asrwt>0</asrwt>
<pdfrwt beam="1">  1       21 0.11983687E+00 0.21034326E+03</pdfrwt>
<pdfrwt beam="2">  1       21 0.14952035E-01 0.21034326E+03</pdfrwt>
<totfact> 0.20677552E+04</totfact>
</mgrwt>
</event>
<event>
 5    0  0.2159162E+000  0.2512378E+03  0.7546771E-02  0.1112525E+00
         21   -1    0    0  502  501  0.00000000000E+00  0.00000000000E+00  0.67864345816E+03  0.67864345816E+03  0.00000000000E+00 0. -1.
         21   -1    0    0  503  502 -0.00000000000E+00 -0.00000000000E+00 -0.89102515955E+02  0.89102515955E+02  0.00000000000E+00 0. -1.
         25    1    1    2    0    0 -0.15817015723E+03  0.14992537392E+03  0.36548970977E+03  0.44351228205E+03  0.12500000000E+03 0.  0.
         21    1    1    2  503  504  0.42203871036E+02 -0.98916541359E+02  0.97381186556E+02  0.14508185407E+03  0.00000000000E+00 0. -1.
         21    1    1    2  504  501  0.11596628620E+03 -0.51008832561E+02  0.12667004588E+03  0.17915183799E+03  0.00000000000E+00 0. -1.
<mgrwt>
<rscale>  4 0.25123777E+03</rscale>
<asrwt>0</asrwt>
<pdfrwt beam="1">  1       21 0.10440668E+00 0.25123777E+03</pdfrwt>
<pdfrwt beam="2">  1       21 0.13708080E-01 0.25123777E+03</pdfrwt>
<totfact> 0.33199148E+04</totfact>
</mgrwt>
</event>
<event>
 5    0  0.2735335E+000  0.2589026E+03  0.7546771E-02  0.1107804E+00
         21   -1    0    0  502  501  0.00000000000E+00  0.00000000000E+00  0.11590855867E+03  0.11590855867E+03  0.00000000000E+00 0. -1.
         21   -1    0    0  503  502 -0.00000000000E+00 -0.00000000000E+00 -0.70200571015E+03  0.70200571015E+03  0.00000000000E+00 0. -1.
         25    1    1    2    0    0  0.34234775976E+02 -0.25469102408E+03 -0.32664742105E+03  0.43400815121E+03  0.12500000000E+03 0.  0.
         21    1    1    2  503  504  0.12641700769E+02  0.21114376865E+03 -0.15821372787E+03  0.26414595838E+03  0.00000000000E+00 0. -1.
         21    1    1    2  504  501 -0.46876476746E+02  0.43547255428E+02 -0.10123600255E+03  0.11976015923E+03  0.00000000000E+00 0. -1.
<mgrwt>
<rscale>  4 0.25890262E+03</rscale>
<asrwt>0</asrwt>
<pdfrwt beam="1">  1       21 0.17832086E-01 0.25890262E+03</pdfrwt>
<pdfrwt beam="2">  1       21 0.10800088E+00 0.25890262E+03</pdfrwt>
<totfact> 0.18785247E+04</totfact>
</mgrwt>
</event>
<event>
 5    0  0.2430375E+000  0.2864833E+03  0.7546771E-02  0.1092200E+00
         21   -1    0    0  502  501  0.00000000000E+00  0.00000000000E+00  0.26439265351E+04  0.26439265351E+04  0.00000000000E+00 0. -1.
         21   -1    0    0  503  502 -0.00000000000E+00 -0.00000000000E+00 -0.56913878319E+02  0.56913878319E+02  0.00000000000E+00 0. -1.
         25    1    1    2    0    0 -0.57368805630E+01 -0.25771062592E+03  0.22833373652E+04  0.23012392752E+04  0.12500000000E+03 0.  0.
         21    1    1    2  503  504  0.55701021390E+01  0.24225810716E+02  0.18223895026E+02  0.30822496535E+02  0.00000000000E+00 0. -1.
         21    1    1    2  504  501  0.16677842399E+00  0.23348481521E+03  0.28545139654E+03  0.36877864164E+03  0.00000000000E+00 0. -1.
<mgrwt>
<rscale>  4 0.28648330E+03</rscale>
<asrwt>0</asrwt>
<pdfrwt beam="1">  1       21 0.40675783E+00 0.28648330E+03</pdfrwt>
<pdfrwt beam="2">  1       21 0.87559834E-02 0.28648330E+03</pdfrwt>
<totfact> 0.71822313E+02</totfact>
</mgrwt>
</event>
<event>
 5    0  0.2159162E+000  0.2733143E+03  0.7546771E-02  0.1099398E+00
         21   -1    0    0  502  501  0.00000000000E+00  0.00000000000E+00  0.74040744037E+03  0.74040744037E+03  0.00000000000E+00 0. -1.
         21   -1    0    0  503  502 -0.00000000000E+00 -0.00000000000E+00 -0.44564814471E+03  0.44564814471E+03  0.00000000000E+00 0.  1.
         25    1    1    2    0    0 -0.63744875080E+01  0.24297128987E+03  0.67065908932E+03  0.72421288022E+03  0.12500000000E+03 0.  0.
         21    1    1    2  503  504 -0.45370228718E+02 -0.17139934886E+03 -0.28050171347E+03  0.33183942759E+03  0.00000000000E+00 0.  1.
         21    1    1    2  504  501  0.51744716226E+02 -0.71571941008E+02 -0.95398080182E+02  0.13000327726E+03  0.00000000000E+00 0.  1.
<mgrwt>
<rscale>  4 0.27331425E+03</rscale>
<asrwt>0</asrwt>
<pdfrwt beam="1">  1       21 0.11390884E+00 0.27331425E+03</pdfrwt>
<pdfrwt beam="2">  1       21 0.68561253E-01 0.27331425E+03</pdfrwt>
<totfact> 0.10866714E+03</totfact>
</mgrwt>
</event>
<event>
 5    0  0.2450437E+000  0.2440719E+03  0.7546771E-02  0.1117110E+00
         21   -1    0    0  502  501  0.00000000000E+00  0.00000000000E+00  0.47655676180E+03  0.47655676180E+03  0.00000000000E+00 0.  1.
         21   -1    0    0  503  502 -0.00000000000E+00 -0.00000000000E+00 -0.11465185718E+03  0.11465185718E+03  0.00000000000E+00 0.  1.
         25    1    1    2    0    0 -0.17473230118E+03 -0.11582199027E+03  0.13616801488E+03  0.27948674169E+03  0.12500000000E+03 0.  0.
         21    1    1    2  503  504  0.25238754261E+02  0.30437266811E+02  0.22973606730E+02  0.45729733585E+02  0.00000000000E+00 0.  1.
         21    1    1    2  504  501  0.14949354692E+03  0.85384723457E+02  0.20276328301E+03  0.26599214369E+03  0.00000000000E+00 0.  1.
<mgrwt>
<rscale>  4 0.24407194E+03</rscale>
<asrwt>0</asrwt>
<pdfrwt beam="1">  1       21 0.73316424E-01 0.24407194E+03</pdfrwt>
<pdfrwt beam="2">  1       21 0.17638747E-01 0.24407194E+03</pdfrwt>
<totfact> 0.47598740E+04</totfact>
</mgrwt>
</event>
<event>
 5    0  0.2951006E+000  0.2155474E+03  0.7546771E-02  0.1137247E+00
         21   -1    0    0  502  501  0.00000000000E+00  0.00000000000E+00  0.12642554436E+03  0.12642554436E+03  0.00000000000E+00 0.  1.
         21   -1    0    0  503  502 -0.00000000000E+00 -0.00000000000E+00 -0.71687240142E+03  0.71687240142E+03  0.00000000000E+00 0.  1.
         25    1    1    2    0    0 -0.21481891122E+03  0.29414853364E+02 -0.53718674474E+02  0.25597479213E+03  0.12500000000E+03 0.  0.
         21    1    1    2  503  504  0.48242728747E+02  0.39083759617E+01 -0.41457723920E+02  0.63728950660E+02  0.00000000000E+00 0.  1.
         21    1    1    2  504  501  0.16657618248E+03 -0.33323229325E+02 -0.49527045867E+03  0.52359420300E+03  0.00000000000E+00 0.  1.
<mgrwt>
<rscale>  4 0.21554738E+03</rscale>
<asrwt>0</asrwt>
<pdfrwt beam="1">  1       21 0.19450084E-01 0.21554738E+03</pdfrwt>
<pdfrwt beam="2">  1       21 0.11028806E+00 0.21554738E+03</pdfrwt>
<totfact> 0.15549004E+04</totfact>
</mgrwt>
</event>
<event>
 5    0  0.2159162E+000  0.2412960E+03  0.7546771E-02  0.1118932E+00
         21   -1    0    0  502  501  0.00000000000E+00  0.00000000000E+00  0.31006763981E+03  0.31006763981E+03  0.00000000000E+00 0.  1.
         21   -1    0    0  503  502 -0.00000000000E+00 -0.00000000000E+00 -0.42204290236E+03  0.42204290236E+03  0.00000000000E+00 0. -1.
         25    1    1    2    0    0  0.19628269981E+03 -0.63811306850E+02  0.22410559583E+03  0.32931307172E+03  0.12500000000E+03 0.  0.
         21    1    1    2  503  504 -0.91590849119E+02  0.44754617045E+02 -0.23443505616E+03  0.25563969752E+03  0.00000000000E+00 0. -1.
         21    1    1    2  504  501 -0.10469185069E+03  0.19056689805E+02 -0.10164580222E+03  0.14715777294E+03  0.00000000000E+00 0. -1.
<mgrwt>
<rscale>  4 0.24129604E+03</rscale>
<asrwt>0</asrwt>
<pdfrwt beam="1">  1       21 0.47702714E-01 0.24129604E+03</pdfrwt>
<pdfrwt beam="2">  1       21 0.64929677E-01 0.24129604E+03</pdfrwt>
<totfact> 0.88935846E+03</totfact>
</mgrwt>
</event>
<event>
 5    0  0.2159162E+000  0.2377743E+03  0.7546771E-02  0.1121284E+00
         21   -1    0    0  502  501  0.00000000000E+00  0.00000000000E+00  0.14497155330E+04  0.14497155330E+04  0.00000000000E+00 0. -1.
         21   -1    0    0  503  502 -0.00000000000E+00 -0.00000000000E+00 -0.12570266126E+03  0.12570266126E+03  0.00000000000E+00 0.  1.
         25    1    1    2    0    0  0.18657843979E+03  0.78103184086E+02  0.13444463497E+04  0.13653104441E+04  0.12500000000E+03 0.  0.
         21    1    1    2  503  504 -0.16736546592E+03 -0.59649098580E+02 -0.32895815643E+02  0.18069684234E+03  0.00000000000E+00 0.  1.
         21    1    1    2  504  501 -0.19212973867E+02 -0.18454085506E+02  0.12462337641E+02  0.29410907775E+02  0.00000000000E+00 0.  1.
<mgrwt>
<rscale>  4 0.23777431E+03</rscale>
<asrwt>0</asrwt>
<pdfrwt beam="1">  1       21 0.22303315E+00 0.23777431E+03</pdfrwt>
<pdfrwt beam="2">  1       21 0.19338872E-01 0.23777431E+03</pdfrwt>
<totfact> 0.22662449E+03</totfact>
</mgrwt>
</event>
<event>
 5    0  0.2159162E+000  0.2533937E+03  0.7546771E-02  0.1111179E+00
         21   -1    0    0  502  501  0.00000000000E+00  0.00000000000E+00  0.70754245606E+03  0.70754245606E+03  0.00000000000E+00 0. -1.
         21   -1    0    0  503  502 -0.00000000000E+00 -0.00000000000E+00 -0.14997907024E+03  0.14997907024E+03  0.00000000000E+00 0.  1.
         25    1    1    2    0    0  0.21650251566E+03 -0.41352203345E+02  0.57932919428E+03  0.63232164233E+03  0.12500000000E+03 0.  0.
         21    1    1    2  503  504 -0.55257272978E+02  0.19962924193E+02  0.96390739404E+01  0.59538191992E+02  0.00000000000E+00 0.  1.
         21    1    1    2  504  501 -0.16124524268E+03  0.21389279152E+02 -0.31404882404E+02  0.16566169198E+03  0.00000000000E+00 0.  1.
<mgrwt>
<rscale>  4 0.25339365E+03</rscale>
<asrwt>0</asrwt>
<pdfrwt beam="1">  1       21 0.10885268E+00 0.25339365E+03</pdfrwt>
<pdfrwt beam="2">  1       21 0.23073704E-01 0.25339365E+03</pdfrwt>
<totfact> 0.11376850E+04</totfact>
</mgrwt>
</event>
<event>
 5    0  0.2159162E+000  0.2861267E+03  0.7546771E-02  0.1092389E+00
         21   -1    0    0  502  501  0.00000000000E+00  0.00000000000E+00  0.47329544072E+02  0.47329544072E+02  0.00000000000E+00 0. -1.
         21   -1    0    0  503  502 -0.00000000000E+00 -0.00000000000E+00 -0.23344615301E+04  0.23344615301E+04  0.00000000000E+00 0. -1.
         25    1    1    2    0    0 -0.23337792417E+03  0.11658226571E+03 -0.15024446337E+04  0.15300397242E+04  0.12500000000E+03 0.  0.
         21    1    1    2  503  504 -0.19675897573E+02 -0.68931713358E+02 -0.13409187934E+03  0.15205049871E+03  0.00000000000E+00 0. -1.
         21    1    1    2  504  501  0.25305382175E+03 -0.47650552356E+02 -0.65059547290E+03  0.69970085122E+03  0.00000000000E+00 0. -1.
<mgrwt>
<rscale>  4 0.28612668E+03</rscale>
<asrwt>0</asrwt>
<pdfrwt beam="1">  1       21 0.72814678E-02 0.28612668E+03</pdfrwt>
<pdfrwt beam="2">  1       21 0.35914795E+00 0.28612668E+03</pdfrwt>
<totfact> 0.19614128E+03</totfact>
</mgrwt>
</event>
<event>
 5    0  0.2159162E+000  0.3631658E+03  0.7546771E-02  0.1057337E+00
         21   -1    0    0  502  501  0.00000000000E+00  0.00000000000E+00  0.57119464271E+03  0.57119464271E+03  0.00000000000E+00 0.  1.
         21   -1    0    0  503  502 -0.00000000000E+00 -0.00000000000E+00 -0.57044021489E+03  0.57044021489E+03  0.00000000000E+00 0.  1.
         25    1    1    2    0    0 -0.28164568460E+03  0.19219808763E+03  0.44351190818E+03  0.57322963046E+03  0.12500000000E+03 0.  0.
         21    1    1    2  503  504  0.18812639957E+03 -0.11654215445E+03 -0.35935437663E+03  0.42202983779E+03  0.00000000000E+00 0.  1.
         21    1    1    2  504  501  0.93519285030E+02 -0.75655933182E+02 -0.83403103731E+02  0.14637538936E+03  0.00000000000E+00 0.  1.
<mgrwt>
<rscale>  4 0.36316580E+03</rscale>
<asrwt>0</asrwt>
<pdfrwt beam="1">  1       21 0.87876099E-01 0.36316580E+03</pdfrwt>
<pdfrwt beam="2">  1       21 0.87760033E-01 0.36316580E+03</pdfrwt>
<totfact> 0.10952193E+03</totfact>
</mgrwt>
</event>
