<LesHouchesEvents version="3.0">
  <!--
  <scalesfunctionalform>
    muR  H_T/2 := sum_i mT(i)/2, i=final state
    muF1 H_T/2 := sum_i mT(i)/2, i=final state
    muF2 H_T/2 := sum_i mT(i)/2, i=final state
    QES  H_T/2 := sum_i mT(i)/2, i=final state
  </scalesfunctionalform>
HERWIG6   
  -->
  <header>
       52
  </header>
  <init>
   2212   2212 0.65000000D+04 0.65000000D+04 -1 -1   244800   244800 -4   1
 0.48677598D-04 0.16707857D-05 0.17456057D-05     66
  </init>
  <event>
  5     66 0.17456057E-05 0.61540683E+02 0.75467711E-02 0.93606317E-01
        1 -1    0    0  502    0 0.00000000E+00 0.00000000E+00 0.20783355E+04 0.20783356E+04 0.32000000E+00 0.0000E+00 0.9000E+01
       -1 -1    0    0    0  501 0.00000000E+00 0.00000000E+00 -.54937370E+03 0.54937379E+03 0.32000000E+00 0.0000E+00 0.9000E+01
       25  1    1    2    0    0 0.36094412E+03 0.37653036E+03 0.43623431E+03 0.69136181E+03 0.12500000E+03 0.0000E+00 0.9000E+01
        1  1    1    2  502    0 0.10000209E+02 -.60731108E+02 0.13729567E+04 0.13743357E+04 0.32000000E+00 0.0000E+00 0.9000E+01
       -1  1    1    2    0  501 -.37094433E+03 -.31579925E+03 -.28022918E+03 0.56201189E+03 0.32000000E+00 0.0000E+00 0.9000E+01
#aMCatNLO 1  0  0  1  4 0.83453125D+01 0.00000000D+00  -5  6  0 0.00000000D+00 0.00000000D+00 0.00000000D+00 0.00000000D+00 0.00000000D+00
  <mgrwgt>
 0.5665793413D-02   13    2    0
 0.106854248039952D+04 0.000000000000000D+00 0.000000000000000D+00 0.106854248039952D+04
 0.106854248039952D+04 0.000000000000000D+00 0.000000000000000D+00 -.106854248039952D+04
 0.538048300516634D+03 0.360994736188286D+03 0.376567843029362D+03 0.418381850634340D+02
 0.707483943006299D+03 0.999886772244630D+01 -.607229631226620D+02 0.704802294268125D+03
 0.891552717276108D+03 -.370993603910732D+03 -.315844879906700D+03 -.746640479331559D+03
 0.000000000000000D+00 -.000000000000000D+00 0.000000000000000D+00 0.000000000000000D+00
 0.126471758673249D+04 0.000000000000000D+00 0.000000000000000D+00 0.126471758673249D+04
 0.106863938380906D+04 0.000000000000000D+00 0.000000000000000D+00 -.106863938380906D+04
 0.538245053027569D+03 0.362642459098620D+03 0.375263574355618D+03 0.418381850634340D+02
 0.707667122906107D+03 0.121653559063694D+02 -.624378647317879D+02 0.704802294268125D+03
 0.891189079017448D+03 -.368264362397448D+03 -.318005233559932D+03 -.746640479331559D+03
 0.196255715590426D+03 -.654345260754164D+01 0.517952393610226D+01 0.196078202923422D+03
0.232049237658D-04 0.000000000000D+00 0.000000000000D+00 0.253851004486D-04 0.000000000000D+00  6 1 -1 25 1 -1 21 0 0.31974394D+00 0.84519039D-01 0.29440991D+06 0.29440991D+06 0.29440991D+06 0.10851567D+01  1  2  2  1  6  1        1 0.112240091449D-04 0.100000000000D+01
0.864426934947D-05 0.000000000000D+00 -.891130172574D-07 0.253851004486D-04 0.000000000000D+00  6 1 -1 25 1 -1 21 2 0.31974394D+00 0.84519039D-01 0.29440991D+06 0.29440991D+06 0.29440991D+06 0.10851567D+01  1  2  3  1  6  1        1 0.492358124163D-05 0.100000000000D+01
-.119824509505D-04 0.000000000000D+00 0.000000000000D+00 0.253851004486D-04 0.000000000000D+00  6 1 -1 25 1 -1 21 2 0.31974394D+00 0.84519039D-01 0.29440991D+06 0.29440991D+06 0.29440991D+06 0.10851567D+01  1  2 15  1  6  1        1 -.682493434016D-05 0.100000000000D+01
0.445144300615D-08 0.000000000000D+00 0.000000000000D+00 0.253851004486D-04 0.000000000000D+00  6 1 -1 25 1 -1 21 2 0.37845898D+00 0.84519039D-01 0.29983252D+06 0.29983252D+06 0.29983252D+06 0.10845698D+01  1  2 12  1  6  1        1 0.139397192507D-08 0.100000000000D+01
0.205519531256D-01 0.000000000000D+00 0.000000000000D+00 0.253851004486D-04 0.000000000000D+00  6 1 -1 25 1 -1 21 2 0.39057974D+00 0.84519039D-01 0.29983252D+06 0.29983252D+06 0.29983252D+06 0.10845698D+01  1  2 12  1  6  1        1 0.567542101852D-02 0.100000000000D+01
-.111070298834D-01 0.000000000000D+00 0.000000000000D+00 0.253851004486D-04 0.000000000000D+00  6 1 -1 25 1 -1 21 2 0.31974394D+00 0.84519039D-01 0.29440991D+06 0.29440991D+06 0.29440991D+06 0.10851567D+01  1  2  4  1  6  1        1 -.632631420579D-02 0.100000000000D+01
-.255027521267D-01 0.000000000000D+00 -.272537125428D-04 0.253851004486D-04 0.000000000000D+00  6 1 -1 25 1 -1 21 2 0.37845592D+00 0.84519039D-01 0.29440991D+06 0.29440991D+06 0.29440991D+06 0.10851567D+01  1  2  5  1  6  1        1 -.800698484778D-02 0.100000000000D+01
0.251495210401D-01 0.000000000000D+00 0.268709852612D-04 0.253851004486D-04 0.000000000000D+00  6 1 -1 25 1 -1 21 2 0.31974394D+00 0.84519039D-01 0.29440991D+06 0.29440991D+06 0.29440991D+06 0.10851567D+01  1  2  6  1  6  1        1 0.143246010765D-01 0.100000000000D+01
0.206939685241D-04 0.000000000000D+00 0.000000000000D+00 0.253851004486D-04 0.104305493073D-05  6 1 -1 25 1 -1 21 2 0.37844614D+00 0.84526704D-01 0.29983252D+06 0.29983252D+06 0.29983252D+06 0.10845698D+01  1  2 11  1  6  1        1 0.647995855091D-05 0.100000000000D+01
0.111500444074D-09 0.000000000000D+00 0.000000000000D+00 0.253851004486D-04 0.000000000000D+00  6 21 -1 25 1 -1 -1 2 0.37845898D+00 0.84519039D-01 0.29983252D+06 0.29983252D+06 0.29983252D+06 0.10845698D+01  1  2 12  5  6  1        1 0.122266210952D-10 0.100000000000D+01
0.588383296919D-03 0.000000000000D+00 0.000000000000D+00 0.253851004486D-04 0.000000000000D+00  6 21 -1 25 1 -1 -1 2 0.39057974D+00 0.84519039D-01 0.29983252D+06 0.29983252D+06 0.29983252D+06 0.10845698D+01  1  2 12  5  6  1        1 0.534148003065D-04 0.100000000000D+01
-.638539758828D-03 0.000000000000D+00 -.682629353381D-06 0.253851004486D-04 0.000000000000D+00  6 21 -1 25 1 -1 -1 2 0.37845592D+00 0.84519039D-01 0.29440991D+06 0.29440991D+06 0.29440991D+06 0.10851567D+01  1  2  5  5  6  1        1 -.702705122487D-04 0.100000000000D+01
0.111313483095D-05 0.000000000000D+00 0.000000000000D+00 0.253851004486D-04 0.260510949764D-07  6 21 -1 25 1 -1 -1 2 0.37844614D+00 0.84526704D-01 0.29983252D+06 0.29983252D+06 0.29983252D+06 0.10845698D+01  1  2 11  5  6  1        1 0.122062365150D-06 0.100000000000D+01
  </mgrwgt>
  </event>
  <event>
  5     66 0.17456057E-05 0.76132702E+02 0.75467711E-02 0.82774895E-01
        1 -1    0    0  502    0 0.00000000E+00 0.00000000E+00 0.19611716E+04 0.19611716E+04 0.32000000E+00 0.0000E+00 0.9000E+01
       -1 -1    0    0    0  501 0.00000000E+00 0.00000000E+00 -.51406081E+03 0.51406091E+03 0.32000000E+00 0.0000E+00 0.9000E+01
       25  1    1    2    0    0 -.79752003E+01 0.47521287E+03 0.41452093E+03 0.64291794E+03 0.12500000E+03 0.0000E+00 0.9000E+01
        1  1    1    2  502    0 0.77935926E+02 -.50521931E+03 0.13826233E+04 0.14740990E+04 0.32000000E+00 0.0000E+00 0.9000E+01
       -1  1    1    2    0  501 -.69960726E+02 0.30006438E+02 -.35003345E+03 0.35821559E+03 0.32000000E+00 0.0000E+00 0.9000E+01
#aMCatNLO 1  0  0  2  5 0.75120210D+01 0.00000000D+00  -5  6  0 0.00000000D+00 0.00000000D+00 0.00000000D+00 0.00000000D+00 0.00000000D+00
  <mgrwgt>
 0.3011941758D-02    3    2    0
 0.100407250452375D+04 0.000000000000000D+00 0.000000000000000D+00 0.100407250452375D+04
 0.100407250452375D+04 0.000000000000000D+00 0.000000000000000D+00 -.100407250452375D+04
 0.493727635884890D+03 -.796322371490629D+01 0.475184783692474D+03 0.477282605139312D+02
 0.820581224682526D+03 0.779320268318007D+02 -.505194031892803D+03 0.641918324738634D+03
 0.693836148480089D+03 -.699688031168944D+02 0.300092482003293D+02 -.689646585252566D+03
 0.000000000000000D+00 0.000000000000000D+00 0.000000000000000D+00 0.000000000000000D+00
 0.316986453983556D+04 0.000000000000000D+00 0.000000000000000D+00 0.316986453983556D+04
 0.148122393911534D+04 0.000000000000000D+00 0.000000000000000D+00 -.148122393911534D+04
 0.509905119934925D+03 -.310601063647178D+03 0.381611351698828D+03 0.477282605139312D+02
 0.105459048255758D+04 -.487511768909695D+03 -.680025165299277D+03 0.641918324738634D+03
 0.888023140296212D+03 -.546966465315563D+03 -.117474980192473D+03 -.689646585252566D+03
 0.219856973616219D+04 0.134507929787244D+04 0.415888793792923D+03 0.168864060072022D+04
0.852287966772D-02 0.000000000000D+00 0.000000000000D+00 0.103937837138D-04 0.000000000000D+00  6 1 -1 25 1 -1 21 0 0.30171871D+00 0.79086288D-01 0.29090794D+06 0.29090794D+06 0.29090794D+06 0.10855421D+01  1  2  2  2  6  2       -1 0.566445685014D-02 0.100000000000D+01
0.263403338452D-02 0.000000000000D+00 -.327301020498D-04 0.103937837138D-04 0.000000000000D+00  6 1 -1 25 1 -1 21 2 0.30171871D+00 0.79086288D-01 0.29090794D+06 0.29090794D+06 0.29090794D+06 0.10855421D+01  1  2  3  2  6  2       -1 0.206293971488D-02 0.100000000000D+01
-.602085717510D-02 0.000000000000D+00 0.000000000000D+00 0.103937837138D-04 0.000000000000D+00  6 1 -1 25 1 -1 21 2 0.30171871D+00 0.79086288D-01 0.29090794D+06 0.29090794D+06 0.29090794D+06 0.10855421D+01  1  2 15  2  6  2       -1 -.471545480674D-02 0.100000000000D+01
  </mgrwgt>
  </event>
  <event>
  5     66 0.17456057E-05 0.10071003E+03 0.75467711E-02 0.94658626E-01
        1 -1    0    0  502    0 0.00000000E+00 0.00000000E+00 0.83722361E+03 0.83722368E+03 0.32000000E+00 0.0000E+00 0.9000E+01
       -1 -1    0    0    0  501 0.00000000E+00 0.00000000E+00 -.11692557E+04 0.11692558E+04 0.32000000E+00 0.0000E+00 0.9000E+01
       25  1    1    2    0    0 0.47659974E+03 -.52202686E+02 0.65158554E+01 0.49551982E+03 0.12500000E+03 0.0000E+00 0.9000E+01
        1  1    1    2  502    0 -.39222420E+03 -.27556363E+01 0.51731054E+03 0.64919775E+03 0.32000000E+00 0.0000E+00 0.9000E+01
       -1  1    1    2    0  501 -.84375536E+02 0.54958322E+02 -.85585850E+03 0.86176187E+03 0.32000000E+00 0.0000E+00 0.9000E+01
#aMCatNLO 1  0  0  2  5 0.63612253D+01 0.00000000D+00  -5  6  0 0.00000000D+00 0.00000000D+00 0.00000000D+00 0.00000000D+00 0.00000000D+00
  <mgrwgt>
 0.3681387825D-02   13    4    0
 0.989408209910088D+03 0.000000000000000D+00 0.000000000000000D+00 0.989408209910088D+03
 0.989408209910088D+03 0.000000000000000D+00 0.000000000000000D+00 -.989408209910088D+03
 0.503541617818629D+03 0.476578931461137D+03 -.522102075026805D+02 0.898653281042821D+02
 0.745011698954989D+03 -.392191181440979D+03 -.275540433496557D+01 0.633420015887310D+03
 0.730263103046557D+03 -.843877500201580D+02 0.549656118376460D+02 -.723285343991592D+03
 0.000000000000000D+00 0.000000000000000D+00 -.000000000000000D+00 -.000000000000000D+00
 0.989430778930948D+03 0.000000000000000D+00 0.000000000000000D+00 0.989430778930948D+03
 0.156892005672492D+04 0.000000000000000D+00 0.000000000000000D+00 -.156892005672492D+04
 0.502630306398324D+03 0.475767443956005D+03 -.508112879816364D+02 0.898653281042821D+02
 0.745640500217400D+03 -.393393407029878D+03 -.682893255775586D+00 0.633420015887310D+03
 0.730555837771604D+03 -.855659147941918D+02 0.569966445904351D+02 -.723285343991592D+03
 0.579524191268539D+03 0.319187786806552D+01 -.550246335302311D+01 -.579489277793971D+03
 0.989408209910088D+03 0.000000000000000D+00 0.000000000000000D+00 0.989408209910088D+03
 0.989408209910088D+03 0.000000000000000D+00 0.000000000000000D+00 -.989408209910088D+03
 0.503541617818629D+03 0.476578931461137D+03 -.522102075026805D+02 0.898653281042821D+02
 0.745011698954989D+03 -.392191181440979D+03 -.275540433496557D+01 0.633420015887310D+03
 0.000000000000000D+00 0.000000000000000D+00 -.000000000000000D+00 -.000000000000000D+00
 0.730263103046557D+03 -.843877500201580D+02 0.549656118376460D+02 -.723285343991592D+03
 0.989430778930948D+03 0.000000000000000D+00 0.000000000000000D+00 0.989430778930948D+03
 0.156892005672492D+04 0.000000000000000D+00 0.000000000000000D+00 -.156892005672492D+04
 0.502630306398324D+03 0.475767443956005D+03 -.508112879816364D+02 0.898653281042821D+02
 0.745640500217400D+03 -.393393407029878D+03 -.682893255775586D+00 0.633420015887310D+03
 0.579524191268539D+03 0.319187786806552D+01 -.550246335302311D+01 -.579489277793971D+03
 0.730555837771604D+03 -.855659147941918D+02 0.569966445904351D+02 -.723285343991592D+03
0.590614200772D-05 0.000000000000D+00 0.000000000000D+00 0.146231669317D-04 0.000000000000D+00  6 1 -1 25 1 -1 21 0 0.12880364D+00 0.17988550D+00 0.24421814D+06 0.24421814D+06 0.24421814D+06 0.10912244D+01  1  2  2  2  6  2       -1 0.305664844755D-05 0.100000000000D+01
0.135481446159D-05 0.000000000000D+00 -.226811404325D-07 0.146231669317D-04 0.000000000000D+00  6 1 -1 25 1 -1 21 2 0.12880364D+00 0.17988550D+00 0.24421814D+06 0.24421814D+06 0.24421814D+06 0.10912244D+01  1  2  3  2  6  2       -1 0.834929074743D-06 0.100000000000D+01
-.450174573358D-05 0.000000000000D+00 0.000000000000D+00 0.146231669317D-04 0.000000000000D+00  6 1 -1 25 1 -1 21 2 0.12880364D+00 0.17988550D+00 0.24421814D+06 0.24421814D+06 0.24421814D+06 0.10912244D+01  1  2 15  2  6  2       -1 -.277428275725D-05 0.100000000000D+01
0.161218419948D-07 0.000000000000D+00 0.000000000000D+00 0.146231669317D-04 0.000000000000D+00  6 1 -1 25 1 -1 21 2 0.12880364D+00 0.28524830D+00 0.24855109D+06 0.24855109D+06 0.24855109D+06 0.10906491D+01  1  2 12  2  6  2       -1 0.134062365741D-08 0.100000000000D+01
0.378645281802D-01 0.000000000000D+00 0.000000000000D+00 0.146231669317D-04 0.000000000000D+00  6 1 -1 25 1 -1 21 2 0.12880364D+00 0.28595763D+00 0.24855109D+06 0.24855109D+06 0.24855109D+06 0.10906491D+01  1  2 12  2  6  2       -1 0.310423011564D-02 0.100000000000D+01
-.329133509523D-01 0.000000000000D+00 0.000000000000D+00 0.146231669317D-04 0.000000000000D+00  6 1 -1 25 1 -1 21 2 0.12880364D+00 0.17988550D+00 0.24421814D+06 0.24421814D+06 0.24421814D+06 0.10912244D+01  1  2  4  2  6  2       -1 -.202834516728D-01 0.100000000000D+01
-.433792080856D-01 0.000000000000D+00 -.414417184570D-05 0.146231669317D-04 0.000000000000D+00  6 1 -1 25 1 -1 21 2 0.12880364D+00 0.28524905D+00 0.24421814D+06 0.24421814D+06 0.24421814D+06 0.10912244D+01  1  2  5  2  6  2       -1 -.361672138483D-02 0.100000000000D+01
0.391467855756D-01 0.000000000000D+00 0.373963370659D-05 0.146231669317D-04 0.000000000000D+00  6 1 -1 25 1 -1 21 2 0.12880364D+00 0.17988550D+00 0.24421814D+06 0.24421814D+06 0.24421814D+06 0.10912244D+01  1  2  6  2  6  2       -1 0.241249192317D-01 0.100000000000D+01
0.457979457140D-02 0.000000000000D+00 0.000000000000D+00 0.146231669317D-04 0.207616372438D-05  6 1 -1 25 1 -1 21 2 0.12880658D+00 0.28524725D+00 0.24855109D+06 0.24855109D+06 0.24855109D+06 0.10906491D+01  1  2 11  2  6  2       -1 0.380830056357D-03 0.100000000000D+01
0.853409311979D-09 0.000000000000D+00 0.000000000000D+00 0.146231669317D-04 0.000000000000D+00  6 1 21 25 1 1 -1 2 0.12880364D+00 0.28524830D+00 0.24855109D+06 0.24855109D+06 0.24855109D+06 0.10906491D+01  3  4 12  6  5  2       -1 0.595044404690D-09 0.100000000000D+01
0.200435787382D-02 0.000000000000D+00 0.000000000000D+00 0.146231669317D-04 0.000000000000D+00  6 1 21 25 1 1 -1 2 0.12880364D+00 0.28595763D+00 0.24855109D+06 0.24855109D+06 0.24855109D+06 0.10906491D+01  3  4 12  6  5  2       -1 0.138247110458D-02 0.100000000000D+01
-.229604450995D-02 0.000000000000D+00 -.219365627331D-06 0.146231669317D-04 0.000000000000D+00  6 1 21 25 1 1 -1 2 0.12880364D+00 0.28524905D+00 0.24421814D+06 0.24421814D+06 0.24421814D+06 0.10912244D+01  3  4  5  6  5  2       -1 -.160594040581D-02 0.100000000000D+01
0.278141382105D-03 0.000000000000D+00 0.000000000000D+00 0.146231669317D-04 0.629898298256D-07  6 1 21 25 1 1 -1 2 0.12880658D+00 0.28524725D+00 0.24855109D+06 0.24855109D+06 0.24855109D+06 0.10906491D+01  3  4 11  6  5  2       -1 0.193931550124D-03 0.100000000000D+01
  </mgrwgt>
  </event>
  <event>
  6     66 0.17456057E-05 0.27381710E+03 0.75467711E-02 0.91461327E-01
        1 -1    0    0  503    0 0.00000000E+00 0.00000000E+00 0.72928988E+03 0.72928995E+03 0.32000000E+00 0.0000E+00 0.9000E+01
       -1 -1    0    0    0  501 0.00000000E+00 0.00000000E+00 -.27942844E+04 0.27942844E+04 0.32000000E+00 0.0000E+00 0.9000E+01
       25  1    1    2    0    0 0.43730222E+02 -.54734587E+03 -.10827417E+02 0.56324246E+03 0.12500000E+03 0.0000E+00 0.9000E+01
        1  1    1    2  502    0 -.25816877E+03 0.11449471E+03 0.25468681E+03 0.38029676E+03 0.32000000E+00 0.0000E+00 0.9000E+01
       -1  1    1    2    0  501 0.22127446E+03 0.41718627E+03 -.24209821E+04 0.24666093E+04 0.32000000E+00 0.0000E+00 0.9000E+01
       21  1    1    2  503  502 -.68359170E+01 0.15664891E+02 0.11212823E+03 0.11342584E+03 0.75000000E+00 0.0000E+00 0.9000E+01
#aMCatNLO 2  0  0  1  4 0.17091476D+02 0.00000000D+00  -5  6  0 0.00000000D+00 0.00000000D+00 0.00000000D+00 0.00000000D+00 0.00000000D+00
  <mgrwgt>
 0.5202233477D-04    3    2    0
 0.131234116254651D+04 0.000000000000000D+00 0.000000000000000D+00 0.131234116254651D+04
 0.131234116254651D+04 0.000000000000000D+00 0.000000000000000D+00 -.131234116254651D+04
 0.719543113374063D+03 0.417819742640950D+02 -.543070805269287D+03 0.453261137860728D+03
 0.706579288390893D+03 -.259956445293250D+03 0.118685131231190D+03 0.646212640667230D+03
 0.119855992332806D+04 0.218174471029155D+03 0.424385674038097D+03 -.109947377852796D+04
 0.000000000000000D+00 -.000000000000000D+00 0.000000000000000D+00 0.000000000000000D+00
 0.155243641111098D+04 0.000000000000000D+00 0.000000000000000D+00 0.155243641111098D+04
 0.131267319113527D+04 0.000000000000000D+00 0.000000000000000D+00 -.131267319113527D+04
 0.722908398279101D+03 0.436603681087890D+02 -.547375251052017D+03 0.453261137860728D+03
 0.705208870847560D+03 -.258117981977914D+03 0.114472188515925D+03 0.646212640667230D+03
 0.119662070374087D+04 0.221293530845356D+03 0.417238171979434D+03 -.109947377852796D+04
 0.240371629378723D+03 -.683591697623156D+01 0.156648905566589D+02 0.239763219975717D+03
-.127752411393D-06 0.000000000000D+00 0.000000000000D+00 0.513707858749D-06 0.000000000000D+00  6 1 -1 25 1 -1 21 2 0.11220902D+00 0.42978099D+00 0.44549387D+06 0.44549387D+06 0.44549387D+06 0.10720713D+01  1  2 13  1  6  1        1 -.587335608247D-09 0.100000000000D+01
-.300816549017D-01 0.000000000000D+00 0.000000000000D+00 0.513707858749D-06 0.000000000000D+00  6 1 -1 25 1 -1 21 2 0.11275860D+00 0.42978099D+00 0.44549387D+06 0.44549387D+06 0.44549387D+06 0.10720713D+01  1  2 13  1  6  1        1 -.137252004336D-03 0.100000000000D+01
0.412619314769D-01 0.000000000000D+00 0.000000000000D+00 0.513707858749D-06 0.148292273065D-07  6 1 -1 25 1 -1 21 2 0.11219840D+00 0.42988972D+00 0.44549387D+06 0.44549387D+06 0.44549387D+06 0.10720713D+01  1  2  1  1  6  1        1 0.189274926437D-03 0.100000000000D+01
  </mgrwgt>
  </event>
  <event>
  5     66 0.17456057E-05 0.74049248E+02 0.75467711E-02 0.92616310E-01
        1 -1    0    0  502    0 0.00000000E+00 0.00000000E+00 0.18761979E+04 0.18761979E+04 0.32000000E+00 0.0000E+00 0.9000E+01
       -1 -1    0    0    0  501 0.00000000E+00 0.00000000E+00 -.54267710E+03 0.54267719E+03 0.32000000E+00 0.0000E+00 0.9000E+01
       25  1    1    2    0    0 0.43566797E+03 0.29245340E+03 0.65158667E+03 0.84588756E+03 0.12500000E+03 0.0000E+00 0.9000E+01
        1  1    1    2  502    0 -.50430855E+03 -.26469805E+03 0.10516253E+04 0.11959549E+04 0.32000000E+00 0.0000E+00 0.9000E+01
       -1  1    1    2    0  501 0.68640580E+02 -.27755353E+02 -.36969124E+03 0.37703263E+03 0.32000000E+00 0.0000E+00 0.9000E+01
#aMCatNLO 1  0  0  1  4 0.14280425D+02 0.00000000D+00  -5  6  0 0.00000000D+00 0.00000000D+00 0.00000000D+00 0.00000000D+00 0.00000000D+00
  <mgrwgt>
 0.9528182858D-03   11    2    0
 0.100904397829212D+04 0.000000000000000D+00 0.000000000000000D+00 0.100904397829212D+04
 0.100904397829212D+04 0.000000000000000D+00 0.000000000000000D+00 -.100904397829212D+04
 0.583313769621405D+03 0.435611406842951D+03 0.292432247636941D+03 0.222162185351706D+03
 0.738500677883122D+03 -.504260571430757D+03 -.264672863940641D+03 0.470162527672735D+03
 0.696273509079713D+03 0.686491645878066D+02 -.277593836962997D+02 -.692324713024442D+03
 0.000000000000000D+00 0.000000000000000D+00 0.000000000000000D+00 0.000000000000000D+00
 0.110977725212545D+04 0.000000000000000D+00 0.000000000000000D+00 0.110977725212545D+04
 0.100957548292920D+04 0.000000000000000D+00 0.000000000000000D+00 -.100957548292920D+04
 0.580556972198450D+03 0.434586504394199D+03 0.288443983411714D+03 0.222162185351706D+03
 0.741221224660965D+03 -.505563611834555D+03 -.269743463033091D+03 0.470162527672735D+03
 0.696360284775484D+03 0.674228138134029D+02 -.325315558450641D+02 -.692324713024442D+03
 0.101214253419755D+03 0.355429362695304D+01 0.138310354664413D+02 0.100201769196246D+03
0.353325787439D-04 0.000000000000D+00 0.000000000000D+00 0.409996861758D-05 0.000000000000D+00  6 1 -1 25 1 -1 21 0 0.28864583D+00 0.83488793D-01 0.34981303D+06 0.34981303D+06 0.34981303D+06 0.10796503D+01  1  2  2  1  6  1        1 0.236225582224D-04 0.100000000000D+01
0.119003100904D-04 0.000000000000D+00 -.135686405658D-06 0.409996861758D-05 0.000000000000D+00  6 1 -1 25 1 -1 21 2 0.28864583D+00 0.83488793D-01 0.34981303D+06 0.34981303D+06 0.34981303D+06 0.10796503D+01  1  2  3  1  6  1        1 0.927419145507D-05 0.100000000000D+01
-.212547635904D-04 0.000000000000D+00 0.000000000000D+00 0.409996861758D-05 0.000000000000D+00  6 1 -1 25 1 -1 21 2 0.28864583D+00 0.83488793D-01 0.34981303D+06 0.34981303D+06 0.34981303D+06 0.10796503D+01  1  2 15  1  6  1        1 -.165643370108D-04 0.100000000000D+01
0.101693852358D-07 0.000000000000D+00 0.000000000000D+00 0.409996861758D-05 0.000000000000D+00  6 1 -1 25 1 -1 21 2 0.31753313D+00 0.83488793D-01 0.35912011D+06 0.35912011D+06 0.35912011D+06 0.10788192D+01  1  2 12  1  6  1        1 0.591960770693D-08 0.100000000000D+01
0.650146280045D-02 0.000000000000D+00 0.000000000000D+00 0.409996861758D-05 0.000000000000D+00  6 1 -1 25 1 -1 21 2 0.31805131D+00 0.83488793D-01 0.35912011D+06 0.35912011D+06 0.35912011D+06 0.10788192D+01  1  2 12  1  6  1        1 0.376490451523D-02 0.100000000000D+01
-.531354203095D-02 0.000000000000D+00 0.000000000000D+00 0.409996861758D-05 0.000000000000D+00  6 1 -1 25 1 -1 21 2 0.28864583D+00 0.83488793D-01 0.34981303D+06 0.34981303D+06 0.34981303D+06 0.10796503D+01  1  2  4  1  6  1        1 -.414096823741D-02 0.100000000000D+01
-.682732588362D-02 0.000000000000D+00 -.733312914806D-04 0.409996861758D-05 0.000000000000D+00  6 1 -1 25 1 -1 21 2 0.31751607D+00 0.83488793D-01 0.34981303D+06 0.34981303D+06 0.34981303D+06 0.10796503D+01  1  2  5  1  6  1        1 -.398846672811D-02 0.100000000000D+01
0.680371082148D-02 0.000000000000D+00 0.729993521285D-04 0.409996861758D-05 0.000000000000D+00  6 1 -1 25 1 -1 21 2 0.28864583D+00 0.83488793D-01 0.34981303D+06 0.34981303D+06 0.34981303D+06 0.10796503D+01  1  2  6  1  6  1        1 0.530229181292D-02 0.100000000000D+01
0.160001179511D-09 0.000000000000D+00 0.000000000000D+00 0.409996861758D-05 0.000000000000D+00  6 21 -1 25 1 -1 -1 2 0.31753313D+00 0.83488793D-01 0.35912011D+06 0.35912011D+06 0.35912011D+06 0.10788192D+01  1  2 12  5  6  1        1 0.442534227640D-10 0.100000000000D+01
0.103808399910D-03 0.000000000000D+00 0.000000000000D+00 0.409996861758D-05 0.000000000000D+00  6 21 -1 25 1 -1 -1 2 0.31805131D+00 0.83488793D-01 0.35912011D+06 0.35912011D+06 0.35912011D+06 0.10788192D+01  1  2 12  5  6  1        1 0.284860667194D-04 0.100000000000D+01
-.107099534470D-03 0.000000000000D+00 -.114268775240D-05 0.409996861758D-05 0.000000000000D+00  6 21 -1 25 1 -1 -1 2 0.31751607D+00 0.83488793D-01 0.34981303D+06 0.34981303D+06 0.34981303D+06 0.10796503D+01  1  2  5  5  6  1        1 -.297675200862D-04 0.100000000000D+01
  </mgrwgt>
  </event>
  <event>
  5     66 0.17456057E-05 0.20924953E+03 0.75467711E-02 0.92065114E-01
        1 -1    0    0  502    0 0.00000000E+00 0.00000000E+00 0.29014222E+04 0.29014223E+04 0.32000000E+00 0.0000E+00 0.9000E+01
       -1 -1    0    0    0  501 0.00000000E+00 0.00000000E+00 -.42268079E+03 0.42268091E+03 0.32000000E+00 0.0000E+00 0.9000E+01
       25  1    1    2    0    0 -.54056795E+02 -.51184862E+03 0.17085009E+04 0.17887178E+04 0.12500000E+03 0.0000E+00 0.9000E+01
        1  1    1    2  502    0 0.10852083E+03 0.29240685E+03 0.10956270E+04 0.11391563E+04 0.32000000E+00 0.0000E+00 0.9000E+01
       -1  1    1    2    0  501 -.54464038E+02 0.21944177E+03 -.32538642E+03 0.39622903E+03 0.32000000E+00 0.0000E+00 0.9000E+01
#aMCatNLO 1  0  0  1  2 0.15229054D+03 0.00000000D+00  -5  6  0 0.00000000D+00 0.00000000D+00 0.00000000D+00 0.00000000D+00 0.00000000D+00
  <mgrwgt>
 0.2352363229D-03    9    2    0
 0.110741847247909D+04 0.000000000000000D+00 0.000000000000000D+00 0.110741847247909D+04
 0.110741847247909D+04 0.000000000000000D+00 0.000000000000000D+00 -.110741847247909D+04
 0.772591476102406D+03 -.540116931450581D+02 -.511778145880490D+03 0.562528626248323D+03
 0.483338602435525D+03 0.108482256878433D+03 0.292302911804057D+03 0.369332928802399D+03
 0.958906866420241D+03 -.544705637333744D+02 0.219475234076433D+03 -.931861555050722D+03
 0.000000000000000D+00 0.000000000000000D+00 -.000000000000000D+00 0.000000000000000D+00
 0.145557533854443D+04 0.000000000000000D+00 0.000000000000000D+00 0.145557533854443D+04
 0.112681295739714D+04 0.000000000000000D+00 0.000000000000000D+00 -.112681295739714D+04
 0.756285217255858D+03 -.960245218463362D+02 -.480294873692295D+03 0.562528626248323D+03
 0.490563365281694D+03 0.817198785131334D+02 0.312357910920376D+03 0.369332928802399D+03
 0.973217880459120D+03 -.107564463570280D+03 0.259262359860878D+03 -.931861555050722D+03
 0.362321832944895D+03 0.121869106903483D+03 -.913253970889599D+02 0.328762381147296D+03
0.309250144618D-03 0.000000000000D+00 0.000000000000D+00 0.119541544469D-05 0.000000000000D+00  6 1 -1 25 1 -1 21 0 0.44637266D+00 0.65027824D-01 0.28489001D+06 0.28489001D+06 0.28489001D+06 0.10862163D+01  1  2  2  1  6  1        1 0.679063434122D-04 0.100000000000D+01
0.258747421764D-04 0.000000000000D+00 -.118760198277D-05 0.119541544469D-05 0.000000000000D+00  6 1 -1 25 1 -1 21 2 0.44637266D+00 0.65027824D-01 0.28489001D+06 0.28489001D+06 0.28489001D+06 0.10862163D+01  1  2  3  1  6  1        1 0.670361537006D-05 0.100000000000D+01
-.200607541741D-03 0.000000000000D+00 0.000000000000D+00 0.119541544469D-05 0.000000000000D+00  6 1 -1 25 1 -1 21 2 0.44637266D+00 0.65027824D-01 0.28489001D+06 0.28489001D+06 0.28489001D+06 0.10862163D+01  1  2 15  1  6  1        1 -.519733024197D-04 0.100000000000D+01
0.887642460982D-08 0.000000000000D+00 0.000000000000D+00 0.119541544469D-05 0.000000000000D+00  6 1 -1 25 1 -1 21 2 0.58973562D+00 0.65027824D-01 0.39775122D+06 0.39775122D+06 0.39775122D+06 0.10756042D+01  1  2 12  1  6  1        1 0.390009047092D-09 0.100000000000D+01
-.580091511018D-03 0.000000000000D+00 0.000000000000D+00 0.119541544469D-05 0.000000000000D+00  6 1 -1 25 1 -1 21 2 0.44637266D+00 0.65027824D-01 0.28489001D+06 0.28489001D+06 0.28489001D+06 0.10862163D+01  1  2  4  1  6  1        1 -.150289820969D-03 0.100000000000D+01
-.171878229133D-02 0.000000000000D+00 -.194322349950D-03 0.119541544469D-05 0.000000000000D+00  6 1 -1 25 1 -1 21 2 0.58859492D+00 0.65027824D-01 0.28489001D+06 0.28489001D+06 0.28489001D+06 0.10862163D+01  1  2  5  1  6  1        1 -.808493141714D-04 0.100000000000D+01
0.171376242751D-02 0.000000000000D+00 0.187119409058D-03 0.119541544469D-05 0.000000000000D+00  6 1 -1 25 1 -1 21 2 0.44637266D+00 0.65027824D-01 0.28489001D+06 0.28489001D+06 0.28489001D+06 0.10862163D+01  1  2  6  1  6  1        1 0.444000719750D-03 0.100000000000D+01
0.325134557975D-09 0.000000000000D+00 0.000000000000D+00 0.119541544469D-05 0.000000000000D+00  6 21 -1 25 1 -1 -1 2 0.58973562D+00 0.65027824D-01 0.39775122D+06 0.39775122D+06 0.39775122D+06 0.10756042D+01  1  2 12  5  6  1        1 0.132997993528D-11 0.100000000000D+01
-.588041763532D-04 0.000000000000D+00 -.708179823314D-05 0.119541544469D-05 0.000000000000D+00  6 21 -1 25 1 -1 -1 2 0.58859492D+00 0.65027824D-01 0.28489001D+06 0.28489001D+06 0.28489001D+06 0.10862163D+01  1  2  5  5  6  1        1 -.262309393452D-06 0.100000000000D+01
  </mgrwgt>
  </event>
  <event>
  5     66 0.17456057E-05 0.31045655E+02 0.75467711E-02 0.94484546E-01
        1 -1    0    0  502    0 0.00000000E+00 0.00000000E+00 0.20046376E+04 0.20046377E+04 0.32000000E+00 0.0000E+00 0.9000E+01
       -1 -1    0    0    0  501 0.00000000E+00 0.00000000E+00 -.55465013E+03 0.55465022E+03 0.32000000E+00 0.0000E+00 0.9000E+01
       25  1    1    2    0    0 -.46707399E+03 0.11877089E+03 0.36221937E+03 0.61570489E+03 0.12500000E+03 0.0000E+00 0.9000E+01
        1  1    1    2  502    0 0.47541679E+03 -.88870767E+02 0.14764576E+04 0.15536558E+04 0.32000000E+00 0.0000E+00 0.9000E+01
       -1  1    1    2    0  501 -.83428017E+01 -.29900121E+02 -.38868947E+03 0.38992720E+03 0.32000000E+00 0.0000E+00 0.9000E+01
#aMCatNLO 1  0  0  1  2 0.48042351D+02 0.00000000D+00  -5  6  0 0.00000000D+00 0.00000000D+00 0.00000000D+00 0.00000000D+00 0.00000000D+00
  <mgrwgt>
 0.2647441573D-02    4    2    0
 0.105445372897983D+04 0.000000000000000D+00 0.000000000000000D+00 0.105445372897983D+04
 0.105445372897983D+04 0.000000000000000D+00 0.000000000000000D+00 -.105445372897983D+04
 0.498132101191237D+03 -.467051811083050D+03 0.118770234292004D+03 0.163348537630926D+02
 0.870272682928122D+03 0.475395384024289D+03 -.888667648061072D+02 0.723516737617180D+03
 0.740502673840305D+03 -.834357294123873D+01 -.299034694858970D+02 -.739851591380272D+03
 0.000000000000000D+00 -.000000000000000D+00 0.000000000000000D+00 -.000000000000000D+00
 0.113280817158158D+04 0.000000000000000D+00 0.000000000000000D+00 0.113280817158158D+04
 0.157921785199139D+04 0.000000000000000D+00 0.000000000000000D+00 -.157921785199139D+04
 0.438089852672363D+03 -.415411624197378D+03 0.588563849444346D+02 0.163348537630926D+02
 0.947062379846448D+03 0.575636060808543D+03 -.205167753813886D+03 0.723516737617180D+03
 0.754077648602409D+03 0.740945784480574D+02 -.125549656703721D+03 -.739851591380272D+03
 0.572796142451752D+03 -.234319015059222D+03 0.271861025573172D+03 -.446409680409808D+03
0.610419401536D-02 0.000000000000D+00 0.000000000000D+00 0.530772214019D-04 0.000000000000D+00  6 1 -1 25 1 -1 21 0 0.30840580D+00 0.85330798D-01 0.25630929D+06 0.25630929D+06 0.25630929D+06 0.10896457D+01  1  2  2  1  6  1        1 0.327345510666D-02 0.100000000000D+01
0.377699225892D-02 0.000000000000D+00 -.234417122902D-04 0.530772214019D-04 0.000000000000D+00  6 1 -1 25 1 -1 21 2 0.30840580D+00 0.85330798D-01 0.25630929D+06 0.25630929D+06 0.25630929D+06 0.10896457D+01  1  2  3  1  6  1        1 0.240488768154D-02 0.100000000000D+01
-.475345580282D-02 0.000000000000D+00 0.000000000000D+00 0.530772214019D-04 0.000000000000D+00  6 1 -1 25 1 -1 21 2 0.30840580D+00 0.85330798D-01 0.25630929D+06 0.25630929D+06 0.25630929D+06 0.10896457D+01  1  2 15  1  6  1        1 -.302662185181D-02 0.100000000000D+01
-.672094677114D-05 0.000000000000D+00 0.000000000000D+00 0.530772214019D-04 0.000000000000D+00  6 1 -1 25 1 -1 21 2 0.30840580D+00 0.85330798D-01 0.25630929D+06 0.25630929D+06 0.25630929D+06 0.10896457D+01  1  2  4  1  6  1        1 -.427936331086D-05 0.100000000000D+01
  </mgrwgt>
  </event>
  <event>
  6     66 0.17456057E-05 0.12675087E+03 0.75467711E-02 0.94314087E-01
        1 -1    0    0  502    0 0.00000000E+00 0.00000000E+00 0.29366067E+04 0.29366068E+04 0.32000000E+00 0.0000E+00 0.9000E+01
       21 -1    0    0  503  501 0.00000000E+00 0.00000000E+00 -.54598225E+03 0.54598276E+03 0.75000000E+00 0.0000E+00 0.9000E+01
       25  1    1    2    0    0 -.16067344E+03 -.42153772E+03 0.24099756E+04 0.24550188E+04 0.12500000E+03 0.0000E+00 0.9000E+01
        1  1    1    2  502    0 0.47435482E+00 0.36067145E+01 0.33862868E+03 0.33864837E+03 0.32000000E+00 0.0000E+00 0.9000E+01
        1  1    1    2  503    0 -.10102594E+03 0.79516098E+02 -.19040125E+03 0.22974287E+03 0.32000000E+00 0.0000E+00 0.9000E+01
       -1  1    1    2    0  501 0.26122502E+03 0.33841491E+03 -.16757850E+03 0.45917950E+03 0.32000000E+00 0.0000E+00 0.9000E+01
#aMCatNLO 2  0  0  2  1 0.12419758D+03 0.00000000D+00  -5  6  0 0.00000000D+00 0.00000000D+00 0.00000000D+00 0.00000000D+00 0.00000000D+00
  <mgrwgt>
 0.1413417643D-03    1    2    0
 0.987773810071072D+03 0.000000000000000D+00 0.000000000000000D+00 0.987773810071072D+03
 0.987773810071072D+03 0.000000000000000D+00 0.000000000000000D+00 -.987773810071072D+03
 0.885230598692320D+03 -.206103371938937D+03 -.385859557597915D+03 0.759369484998512D+03
 0.115029959795925D+03 -.539375147113921D+01 0.821576192791072D+01 0.114609337977600D+03
 0.000000000000000D+00 -.000000000000000D+00 0.000000000000000D+00 -.000000000000000D+00
 0.975287061653898D+03 0.211497123410076D+03 0.377643795670004D+03 -.873978822976111D+03
 0.996538561093223D+03 0.000000000000000D+00 0.000000000000000D+00 0.996538561093223D+03
 0.160890506731988D+04 0.000000000000000D+00 0.000000000000000D+00 -.160890506731988D+04
 0.892094330894406D+03 -.160706794103742D+03 -.421590567726473D+03 0.759369484998512D+03
 0.114666776890350D+03 0.473181249988696D+00 0.359798141495608D+01 0.114609337977600D+03
 0.625717018741123D+03 -.101025935913163D+03 0.795160981619580D+02 -.612366506226660D+03
 0.972965501887226D+03 0.261259548766917D+03 0.338476488149559D+03 -.873978822976111D+03
0.128257023421D-03 0.000000000000D+00 0.000000000000D+00 0.218627951707D-04 0.290811630358D-09  6 1 21 25 1 1 -1 2 0.45178568D+00 0.83997306D-01 0.26417023D+06 0.26417023D+06 0.26417023D+06 0.10886624D+01  1  2  1  6  5  2       -1 0.141341764283D-03 0.100000000000D+01
  </mgrwgt>
  </event>
  <event>
  5     66 0.17456057E-05 0.93288956E+02 0.75467711E-02 0.94436470E-01
        1 -1    0    0  502    0 0.00000000E+00 0.00000000E+00 0.84365432E+03 0.84365438E+03 0.32000000E+00 0.0000E+00 0.9000E+01
       -1 -1    0    0    0  501 0.00000000E+00 0.00000000E+00 -.10169356E+04 0.10169357E+04 0.32000000E+00 0.0000E+00 0.9000E+01
       25  1    1    2    0    0 0.30593514E+03 0.39361081E+03 -.11035858E+03 0.52567080E+03 0.12500000E+03 0.0000E+00 0.9000E+01
        1  1    1    2  502    0 -.27114036E+03 -.30706726E+03 0.56623905E+03 0.69888064E+03 0.32000000E+00 0.0000E+00 0.9000E+01
       -1  1    1    2    0  501 -.34794781E+02 -.86543553E+02 -.62916178E+03 0.63603861E+03 0.32000000E+00 0.0000E+00 0.9000E+01
#aMCatNLO 1  0  0  2  1 0.12419758D+03 0.00000000D+00  -5  6  0 0.00000000D+00 0.00000000D+00 0.00000000D+00 0.00000000D+00 0.00000000D+00
  <mgrwgt>
 0.1059728385D-02    7    4    0
 0.926251713252806D+03 0.000000000000000D+00 0.000000000000000D+00 0.926251713252806D+03
 0.926251713252806D+03 0.000000000000000D+00 0.000000000000000D+00 -.926251713252806D+03
 0.517622395790344D+03 0.305925780056943D+03 0.393606040681109D+03 -.615763465920726D+02
 0.754856517722677D+03 -.271125893921906D+03 -.307050872409401D+03 0.634049583034386D+03
 0.580024512992591D+03 -.347998861350375D+02 -.865551682717086D+02 -.572473236442314D+03
 0.000000000000000D+00 0.000000000000000D+00 0.000000000000000D+00 -.000000000000000D+00
 0.954432033637498D+03 0.000000000000000D+00 0.000000000000000D+00 0.954432033637498D+03
 0.139654361626215D+04 0.000000000000000D+00 0.000000000000000D+00 -.139654361626215D+04
 0.467463726246155D+03 0.284487199792387D+03 0.343762595479205D+03 -.615763465920726D+02
 0.802454550254125D+03 -.305017893393669D+03 -.385847788884632D+03 0.634049583034386D+03
 0.593859598127918D+03 -.603473059743477D+02 -.145951425164517D+03 -.572473236442314D+03
 0.487197775271448D+03 0.808779995756303D+02 0.188036618569944D+03 -.442111582624651D+03
 0.926251713252806D+03 0.000000000000000D+00 0.000000000000000D+00 0.926251713252806D+03
 0.926251713252806D+03 0.000000000000000D+00 0.000000000000000D+00 -.926251713252806D+03
 0.517622395790344D+03 0.305925780056943D+03 0.393606040681109D+03 -.615763465920726D+02
 0.754856517722677D+03 -.271125893921906D+03 -.307050872409401D+03 0.634049583034386D+03
 0.000000000000000D+00 0.000000000000000D+00 0.000000000000000D+00 -.000000000000000D+00
 0.580024512992591D+03 -.347998861350375D+02 -.865551682717086D+02 -.572473236442314D+03
 0.954432033637498D+03 0.000000000000000D+00 0.000000000000000D+00 0.954432033637498D+03
 0.139654361626215D+04 0.000000000000000D+00 0.000000000000000D+00 -.139654361626215D+04
 0.467463726246155D+03 0.284487199792387D+03 0.343762595479205D+03 -.615763465920726D+02
 0.802454550254125D+03 -.305017893393669D+03 -.385847788884632D+03 0.634049583034386D+03
 0.487197775271448D+03 0.808779995756303D+02 0.188036618569944D+03 -.442111582624651D+03
 0.593859598127918D+03 -.603473059743477D+02 -.145951425164517D+03 -.572473236442314D+03
0.284751955604D-03 0.000000000000D+00 0.000000000000D+00 0.981187683443D-05 0.000000000000D+00  6 1 -1 25 1 -1 21 0 0.12979298D+00 0.15645164D+00 0.25849949D+06 0.25849949D+06 0.25849949D+06 0.10893685D+01  1  2  2  2  6  2       -1 0.225174019281D-03 0.100000000000D+01
0.638687216527D-04 0.000000000000D+00 -.109352248643D-05 0.981187683443D-05 0.000000000000D+00  6 1 -1 25 1 -1 21 2 0.12979298D+00 0.15645164D+00 0.25849949D+06 0.25849949D+06 0.25849949D+06 0.10893685D+01  1  2  3  2  6  2       -1 0.599362263528D-04 0.100000000000D+01
-.229788619886D-03 0.000000000000D+00 0.000000000000D+00 0.981187683443D-05 0.000000000000D+00  6 1 -1 25 1 -1 21 2 0.12979298D+00 0.15645164D+00 0.25849949D+06 0.25849949D+06 0.25849949D+06 0.10893685D+01  1  2 15  2  6  2       -1 -.215640181585D-03 0.100000000000D+01
-.489562661832D-04 0.000000000000D+00 0.000000000000D+00 0.981187683443D-05 0.000000000000D+00  6 1 -1 25 1 -1 21 2 0.12979298D+00 0.15645164D+00 0.25849949D+06 0.25849949D+06 0.25849949D+06 0.10893685D+01  1  2  4  2  6  2       -1 -.459419536734D-04 0.100000000000D+01
-.158174334760D-02 0.000000000000D+00 -.217205253650D-03 0.981187683443D-05 0.000000000000D+00  6 1 -1 25 1 -1 21 2 0.12979298D+00 0.23840937D+00 0.25849949D+06 0.25849949D+06 0.25849949D+06 0.10893685D+01  1  2  5  2  6  2       -1 -.320079552591D-03 0.100000000000D+01
0.155148250398D-02 0.000000000000D+00 0.199263150960D-03 0.981187683443D-05 0.000000000000D+00  6 1 -1 25 1 -1 21 2 0.12979298D+00 0.15645164D+00 0.25849949D+06 0.25849949D+06 0.25849949D+06 0.10893685D+01  1  2  6  2  6  2       -1 0.145595534300D-02 0.100000000000D+01
-.702789983588D-04 0.000000000000D+00 -.107415027621D-04 0.981187683443D-05 0.000000000000D+00  6 1 21 25 1 1 -1 2 0.12979298D+00 0.23840937D+00 0.25849949D+06 0.25849949D+06 0.25849949D+06 0.10893685D+01  3  4  5  6  5  2       -1 -.996755160010D-04 0.100000000000D+01
  </mgrwgt>
  </event>
  <event>
  6     66 0.17456057E-05 0.95039811E+02 0.75467711E-02 0.93253386E-01
        1 -1    0    0  502    0 0.00000000E+00 0.00000000E+00 0.21401255E+04 0.21401255E+04 0.32000000E+00 0.0000E+00 0.9000E+01
       -1 -1    0    0    0  501 0.00000000E+00 0.00000000E+00 -.15447343E+04 0.15447344E+04 0.32000000E+00 0.0000E+00 0.9000E+01
       25  1    1    2    0    0 0.36478651E+03 0.27933626E+03 -.29015729E+03 0.55759680E+03 0.12500000E+03 0.0000E+00 0.9000E+01
        1  1    1    2  502    0 0.77480872E+02 0.52455580E+02 0.19272035E+04 0.19294736E+04 0.32000000E+00 0.0000E+00 0.9000E+01
       -1  1    1    2    0  503 -.16626388E+03 -.69462642E+02 -.17506214E+03 0.25122816E+03 0.32000000E+00 0.0000E+00 0.9000E+01
       21  1    1    2  503  501 -.27600350E+03 -.26232920E+03 -.86659291E+03 0.94656135E+03 0.75000000E+00 0.0000E+00 0.9000E+01
#aMCatNLO 2  0  0  5  2 0.83933054D+02 0.00000000D+00  -5  6  0 0.00000000D+00 0.00000000D+00 0.00000000D+00 0.00000000D+00 0.00000000D+00
  <mgrwgt>
 0.1221562571D-02    3    2    0
 0.181822040792475D+04 0.000000000000000D+00 0.000000000000000D+00 0.181822040792475D+04
 0.181822040792475D+04 -.000000000000000D+00 -.000000000000000D+00 -.181822040792475D+04
 0.611796768209519D+03 0.365653274861361D+03 0.279986504989608D+03 -.382851831912135D+03
 0.164640251786464D+04 0.798188205886210D+02 0.542095114672792D+02 0.164357279594710D+04
 0.137824152977535D+04 -.445472095449983D+03 -.334196016456887D+03 -.126072096403496D+04
 0.000000000000000D+00 0.000000000000000D+00 0.000000000000000D+00 -.000000000000000D+00
 0.181822040792475D+04 0.000000000000000D+00 0.000000000000000D+00 0.181822040792475D+04
 0.181822040792475D+04 -.000000000000000D+00 -.000000000000000D+00 -.181822040792475D+04
 0.612524099249404D+03 0.364783594729520D+03 0.279334065389862D+03 -.385313094885544D+03
 0.163963903862294D+04 0.774846244395224D+02 0.524583825803626D+02 0.163696683779754D+04
 0.282718257993689D+03 -.165985823593745D+03 -.693342456113173D+02 -.218107959860252D+03
 0.110155941998348D+04 -.276282395575297D+03 -.262458202358907D+03 -.103354578305174D+04
-.662515825616D-09 0.000000000000D+00 0.000000000000D+00 0.838680425096D-04 0.000000000000D+00  6 1 -1 25 1 -1 21 2 0.32925008D+00 0.23765144D+00 0.31960946D+06 0.31960946D+06 0.31960946D+06 0.10825233D+01  1  2 13  4  6  5       -1 -.163688105985D-10 0.100000000000D+01
-.136045970869D+00 0.000000000000D+00 0.000000000000D+00 0.838680425096D-04 0.000000000000D+00  6 1 -1 25 1 -1 21 2 0.32925008D+00 0.23765144D+00 0.31960946D+06 0.31960946D+06 0.31960946D+06 0.10825233D+01  1  2 13  4  6  5       -1 -.336129439288D-02 0.100000000000D+01
0.185487837216D+00 0.000000000000D+00 0.000000000000D+00 0.838680425096D-04 0.107762248002D-07  6 1 -1 25 1 -1 21 2 0.32925008D+00 0.23765144D+00 0.31960946D+06 0.31960946D+06 0.31960946D+06 0.10825233D+01  1  2  1  4  6  5       -1 0.458285697989D-02 0.100000000000D+01
  </mgrwgt>
  </event>
  <event>
  5     66 0.17456057E-05 0.63071643E+02 0.75467711E-02 0.90836380E-01
        1 -1    0    0  502    0 0.00000000E+00 0.00000000E+00 0.10854209E+04 0.10854209E+04 0.32000000E+00 0.0000E+00 0.9000E+01
       -1 -1    0    0    0  501 0.00000000E+00 0.00000000E+00 -.18081949E+04 0.18081950E+04 0.32000000E+00 0.0000E+00 0.9000E+01
       25  1    1    2    0    0 0.46655933E+03 -.35249175E+02 -.93289414E+03 0.10511121E+04 0.12500000E+03 0.0000E+00 0.9000E+01
        1  1    1    2  502    0 -.48490003E+03 0.95603812E+02 0.96541940E+03 0.10845750E+04 0.32000000E+00 0.0000E+00 0.9000E+01
       -1  1    1    2    0  501 0.18340692E+02 -.60354637E+02 -.75529929E+03 0.75792888E+03 0.32000000E+00 0.0000E+00 0.9000E+01
#aMCatNLO 1  0  0  1  4 0.41018870D+02 0.00000000D+00  -5  6  0 0.00000000D+00 0.00000000D+00 0.00000000D+00 0.00000000D+00 0.00000000D+00
  <mgrwgt>
 0.2841386229D-02    7    2    0
 0.140094706670491D+04 0.000000000000000D+00 0.000000000000000D+00 0.140094706670491D+04
 0.140094706670491D+04 0.000000000000000D+00 0.000000000000000D+00 -.140094706670491D+04
 0.844949358320962D+03 0.466563485700571D+03 -.352577637256787D+02 -.692379824976871D+03
 0.136912523986045D+04 -.484902636757220D+03 0.956043265320011D+02 0.127680584586585D+04
 0.587819535228406D+03 0.183391510566493D+02 -.603465628063224D+02 -.584426020888977D+03
 0.000000000000000D+00 -.000000000000000D+00 -.000000000000000D+00 0.000000000000000D+00
 0.167077267768033D+04 0.000000000000000D+00 0.000000000000000D+00 0.167077267768033D+04
 0.155140289412172D+04 0.000000000000000D+00 0.000000000000000D+00 -.155140289412172D+04
 0.910625737045031D+03 0.578119467447102D+03 0.151403186322488D+01 -.692379824976871D+03
 0.132355901027530D+04 -.313799141469432D+03 0.152004554065879D+03 0.127680584586585D+04
 0.592907786768106D+03 0.933670982677671D+02 -.356153713891658D+02 -.584426020888977D+03
 0.395083037713615D+03 -.357687424245437D+03 -.117903214539938D+03 0.119369783558620D+03
0.417955159154D-01 0.000000000000D+00 0.000000000000D+00 0.516074803959D-04 0.000000000000D+00  6 1 -1 25 1 -1 21 0 0.16698784D+00 0.27818384D+00 0.27123910D+06 0.27123910D+06 0.27123910D+06 0.10878050D+01  1  2  2  1  6  1        1 0.213224011189D-02 0.100000000000D+01
0.942045043311D-02 0.000000000000D+00 -.160505786127D-03 0.516074803959D-04 0.000000000000D+00  6 1 -1 25 1 -1 21 2 0.16698784D+00 0.27818384D+00 0.27123910D+06 0.27123910D+06 0.27123910D+06 0.10878050D+01  1  2  3  1  6  1        1 0.568696035014D-03 0.100000000000D+01
-.305096970655D-01 0.000000000000D+00 0.000000000000D+00 0.516074803959D-04 0.000000000000D+00  6 1 -1 25 1 -1 21 2 0.16698784D+00 0.27818384D+00 0.27123910D+06 0.27123910D+06 0.27123910D+06 0.10878050D+01  1  2 15  1  6  1        1 -.184181678719D-02 0.100000000000D+01
-.173762084526D-02 0.000000000000D+00 0.000000000000D+00 0.516074803959D-04 0.000000000000D+00  6 1 -1 25 1 -1 21 2 0.16698784D+00 0.27818384D+00 0.27123910D+06 0.27123910D+06 0.27123910D+06 0.10878050D+01  1  2  4  1  6  1        1 -.104897116340D-03 0.100000000000D+01
-.680702033299D-01 0.000000000000D+00 -.445573413366D-01 0.516074803959D-04 0.000000000000D+00  6 1 -1 25 1 -1 21 2 0.21198083D+00 0.27818384D+00 0.27123910D+06 0.27123910D+06 0.27123910D+06 0.10878050D+01  1  2  5  1  6  1        1 -.255407644008D-02 0.100000000000D+01
0.777168752604D-01 0.000000000000D+00 0.433186773123D-01 0.516074803959D-04 0.000000000000D+00  6 1 -1 25 1 -1 21 2 0.16698784D+00 0.27818384D+00 0.27123910D+06 0.27123910D+06 0.27123910D+06 0.10878050D+01  1  2  6  1  6  1        1 0.469163116224D-02 0.100000000000D+01
-.153396975071D-02 0.000000000000D+00 -.145663143076D-02 0.516074803959D-04 0.000000000000D+00  6 21 -1 25 1 -1 -1 2 0.21198083D+00 0.27818384D+00 0.27123910D+06 0.27123910D+06 0.27123910D+06 0.10878050D+01  1  2  5  5  6  1        1 -.503907364418D-04 0.100000000000D+01
  </mgrwgt>
  </event>
  <event>
  6     66 -.17456057E-05 0.55468382E+02 0.75467711E-02 0.91673025E-01
        1 -1    0    0  502    0 0.00000000E+00 0.00000000E+00 0.26186265E+04 0.26186265E+04 0.32000000E+00 0.0000E+00 0.9000E+01
       -1 -1    0    0    0  501 0.00000000E+00 0.00000000E+00 -.75980460E+03 0.75980467E+03 0.32000000E+00 0.0000E+00 0.9000E+01
       25  1    1    2    0    0 0.56602984E+03 0.16795091E+03 0.16179221E+03 0.62481918E+03 0.12500000E+03 0.0000E+00 0.9000E+01
        1  1    1    2  502    0 0.58713985E+02 -.19079003E+02 0.20285894E+04 0.20295286E+04 0.32000000E+00 0.0000E+00 0.9000E+01
       -1  1    1    2    0  503 -.57557940E+03 -.14679524E+03 -.31353015E+03 0.67167086E+03 0.32000000E+00 0.0000E+00 0.9000E+01
       21  1    1    2  503  501 -.49164429E+02 -.20766630E+01 -.18029506E+02 0.52412587E+02 0.75000000E+00 0.0000E+00 0.9000E+01
#aMCatNLO 2  0  0  5  2 0.10981399D+02 0.00000000D+00  -5  6  0 0.00000000D+00 0.00000000D+00 0.00000000D+00 0.00000000D+00 0.00000000D+00
  <mgrwgt>
 -.1476475972D-02    6    2    0
 0.141054762875883D+04 0.000000000000000D+00 0.000000000000000D+00 0.141054762875883D+04
 0.141054762875883D+04 -.000000000000000D+00 -.000000000000000D+00 -.141054762875883D+04
 0.641733756383449D+03 0.566179331919182D+03 0.167986453436218D+03 -.217758420391685D+03
 0.109409136588686D+04 0.589073053893524D+02 -.190319001683607D+02 0.109233860732646D+04
 0.108527013524734D+04 -.625086637308535D+03 -.148954553267858D+03 -.874580186934778D+03
 0.000000000000000D+00 -.000000000000000D+00 0.000000000000000D+00 0.000000000000000D+00
 0.141054762875883D+04 0.000000000000000D+00 0.000000000000000D+00 0.141054762875883D+04
 0.141054762875883D+04 -.000000000000000D+00 -.000000000000000D+00 -.141054762875883D+04
 0.641679962949325D+03 0.566064787182338D+03 0.167959158083722D+03 -.217918683867790D+03
 0.109380890621300D+04 0.587120351837009D+02 -.190784319361402D+02 0.109206539807391D+04
 0.101117326109861D+04 -.575728129512806D+03 -.146839537373443D+03 -.818197185959742D+03
 0.744331272567159D+02 -.490486928532330D+02 -.204118877413888D+01 -.559495282463758D+02
-.373170891011D-08 0.000000000000D+00 0.000000000000D+00 0.256333005807D-04 0.000000000000D+00  6 1 -1 25 1 -1 21 2 0.40286562D+00 0.11689302D+00 0.42806099D+06 0.42806099D+06 0.42806099D+06 0.10733113D+01  1  2 13  4  6  5       -1 -.414967198236D-09 0.100000000000D+01
-.724329073570D-01 0.000000000000D+00 0.000000000000D+00 0.256333005807D-04 0.000000000000D+00  6 1 -1 25 1 -1 21 2 0.40286562D+00 0.11689302D+00 0.42806099D+06 0.42806099D+06 0.42806099D+06 0.10733113D+01  1  2 13  4  6  5       -1 -.805456195809D-02 0.100000000000D+01
-.481498854562D-01 0.000000000000D+00 0.000000000000D+00 0.256333005807D-04 0.000000000000D+00  6 1 -1 25 1 -1 21 2 0.40286562D+00 0.11689302D+00 0.42781605D+06 0.42781605D+06 0.42781605D+06 0.10733291D+01  1  2  8  4  6  5       -1 -.535474405766D-02 0.100000000000D+01
-.578791409834D-01 0.000000000000D+00 0.000000000000D+00 0.256333005807D-04 0.000000000000D+00  6 1 -1 25 1 -1 21 2 0.40286562D+00 0.11689302D+00 0.42781605D+06 0.42781605D+06 0.42781605D+06 0.10733291D+01  1  2  9  4  6  5       -1 -.643673361437D-02 0.100000000000D+01
0.619845607798D-01 0.000000000000D+00 0.000000000000D+00 0.256333005807D-04 0.000000000000D+00  6 1 -1 25 1 -1 21 2 0.40286562D+00 0.11689302D+00 0.42781605D+06 0.42781605D+06 0.42781605D+06 0.10733291D+01  1  2 10  4  6  5       -1 0.689329694885D-02 0.100000000000D+01
0.103203550703D+00 0.000000000000D+00 0.000000000000D+00 0.256333005807D-04 0.884678305374D-06  6 1 -1 25 1 -1 21 2 0.40286562D+00 0.11689302D+00 0.42806099D+06 0.42806099D+06 0.42806099D+06 0.10733113D+01  1  2  1  4  6  5       -1 0.114762671245D-01 0.100000000000D+01
  </mgrwgt>
  </event>
  <event>
  5     66 0.17456057E-05 0.28788150E+02 0.75467711E-02 0.92558255E-01
        1 -1    0    0  502    0 0.00000000E+00 0.00000000E+00 0.10183768E+04 0.10183769E+04 0.32000000E+00 0.0000E+00 0.9000E+01
       -1 -1    0    0    0  501 0.00000000E+00 0.00000000E+00 -.80876269E+03 0.80876275E+03 0.32000000E+00 0.0000E+00 0.9000E+01
       25  1    1    2    0    0 0.49319941E+03 -.25402631E+03 0.97260870E+02 0.57693995E+03 0.12500000E+03 0.0000E+00 0.9000E+01
        1  1    1    2  502    0 -.26980585E+02 0.10061847E+02 0.55915874E+03 0.55989981E+03 0.32000000E+00 0.0000E+00 0.9000E+01
       -1  1    1    2    0  501 -.46621883E+03 0.24396446E+03 -.44680548E+03 0.69029986E+03 0.32000000E+00 0.0000E+00 0.9000E+01
#aMCatNLO 1  0  0  1  1 0.85316912D+02 0.00000000D+00  -5  6  0 0.00000000D+00 0.00000000D+00 0.00000000D+00 0.00000000D+00 0.00000000D+00
  <mgrwgt>
 0.5518087723D-03    7    2    0
 0.907538026324016D+03 0.000000000000000D+00 0.000000000000000D+00 0.907538026324016D+03
 0.907538026324016D+03 0.000000000000000D+00 0.000000000000000D+00 -.907538026324016D+03
 0.569627933092794D+03 0.493271759989909D+03 -.254064777487965D+03 0.313853755118070D+02
 0.498915534458015D+03 -.269735047100453D+02 0.100592068543673D+02 0.498084282952840D+03
 0.746532585097223D+03 -.466298255279863D+03 0.244005570633598D+03 -.529469658464647D+03
 0.000000000000000D+00 -.000000000000000D+00 -.000000000000000D+00 0.000000000000000D+00
 0.100080499867619D+04 0.000000000000000D+00 0.000000000000000D+00 0.100080499867619D+04
 0.928263068620323D+03 0.000000000000000D+00 0.000000000000000D+00 -.928263068620323D+03
 0.580777351602318D+03 0.514284119271610D+03 -.237074112891328D+03 0.313853755118070D+02
 0.498777793134354D+03 -.875045677100263D+01 0.247944248900850D+02 0.498084282952840D+03
 0.737524944969063D+03 -.439191677770763D+03 0.265924040646670D+03 -.529469658464647D+03
 0.111987977590773D+03 -.663419847298448D+02 -.536443526454267D+02 0.725419300558628D+02
0.153057430114D-03 0.000000000000D+00 0.000000000000D+00 0.128547960728D-04 0.000000000000D+00  6 1 -1 25 1 -1 21 0 0.15667336D+00 0.12442504D+00 0.31575006D+06 0.31575006D+06 0.31575006D+06 0.10829116D+01  1  2  2  1  6  1        1 0.162099191103D-03 0.100000000000D+01
0.922978891682D-04 0.000000000000D+00 -.587780832584D-06 0.128547960728D-04 0.000000000000D+00  6 1 -1 25 1 -1 21 2 0.15667336D+00 0.12442504D+00 0.31575006D+06 0.31575006D+06 0.31575006D+06 0.10829116D+01  1  2  3  1  6  1        1 0.114631560377D-03 0.100000000000D+01
-.923592833007D-04 0.000000000000D+00 0.000000000000D+00 0.128547960728D-04 0.000000000000D+00  6 1 -1 25 1 -1 21 2 0.15667336D+00 0.12442504D+00 0.31575006D+06 0.31575006D+06 0.31575006D+06 0.10829116D+01  1  2 15  1  6  1        1 -.114707810281D-03 0.100000000000D+01
-.129209024608D-04 0.000000000000D+00 0.000000000000D+00 0.128547960728D-04 0.000000000000D+00  6 1 -1 25 1 -1 21 2 0.15667336D+00 0.12442504D+00 0.31575006D+06 0.31575006D+06 0.31575006D+06 0.10829116D+01  1  2  4  1  6  1        1 -.160474223615D-04 0.100000000000D+01
-.178924614059D-02 0.000000000000D+00 -.329642614365D-03 0.128547960728D-04 0.000000000000D+00  6 1 -1 25 1 -1 21 2 0.17486479D+00 0.12442504D+00 0.31575006D+06 0.31575006D+06 0.31575006D+06 0.10829116D+01  1  2  5  1  6  1        1 -.181569862386D-02 0.100000000000D+01
0.181646562501D-02 0.000000000000D+00 0.327663666817D-03 0.128547960728D-04 0.000000000000D+00  6 1 -1 25 1 -1 21 2 0.15667336D+00 0.12442504D+00 0.31575006D+06 0.31575006D+06 0.31575006D+06 0.10829116D+01  1  2  6  1  6  1        1 0.225600271949D-02 0.100000000000D+01
-.302064005483D-04 0.000000000000D+00 -.580366906277D-05 0.128547960728D-04 0.000000000000D+00  6 21 -1 25 1 -1 -1 2 0.17486479D+00 0.12442504D+00 0.31575006D+06 0.31575006D+06 0.31575006D+06 0.10829116D+01  1  2  5  5  6  1        1 -.344708421640D-04 0.100000000000D+01
  </mgrwgt>
  </event>
  <event>
  5     66 -.17456057E-05 0.18932311E+03 0.75467711E-02 0.91628151E-01
        1 -1    0    0  502    0 0.00000000E+00 0.00000000E+00 0.12838137E+04 0.12838137E+04 0.32000000E+00 0.0000E+00 0.9000E+01
       -1 -1    0    0    0  501 0.00000000E+00 0.00000000E+00 -.65482335E+03 0.65482343E+03 0.32000000E+00 0.0000E+00 0.9000E+01
       25  1    1    2    0    0 -.45505542E+03 -.45975172E+03 -.40191164E+02 0.66006621E+03 0.12500000E+03 0.0000E+00 0.9000E+01
        1  1    1    2  502    0 0.25020424E+03 0.32128411E+03 0.86964082E+03 0.96026085E+03 0.32000000E+00 0.0000E+00 0.9000E+01
       -1  1    1    2    0  501 0.20485118E+03 0.13846760E+03 -.20045932E+03 0.31831011E+03 0.32000000E+00 0.0000E+00 0.9000E+01
#aMCatNLO 1  0  0  4  1 0.10899918D+02 0.00000000D+00  -5  6  0 0.00000000D+00 0.00000000D+00 0.00000000D+00 0.00000000D+00 0.00000000D+00
  <mgrwgt>
 -.6679369953D-04    8    2    0
 0.916881291204312D+03 0.000000000000000D+00 0.000000000000000D+00 0.916881291204312D+03
 0.916881291204312D+03 -.000000000000000D+00 -.000000000000000D+00 -.916881291204312D+03
 0.711578410711576D+03 -.455073055970359D+03 -.459757616456177D+03 -.268794126481858D+03
 0.716836104461949D+03 0.250186281532017D+03 0.321261056840463D+03 0.589959455006115D+03
 0.405348067235100D+03 0.204886774438342D+03 0.138496559615714D+03 -.321165328524258D+03
 0.000000000000000D+00 0.000000000000000D+00 0.000000000000000D+00 0.000000000000000D+00
 0.916881291204312D+03 0.000000000000000D+00 0.000000000000000D+00 0.916881291204312D+03
 0.916881291204312D+03 -.000000000000000D+00 -.000000000000000D+00 -.916881291204312D+03
 0.711337061538806D+03 -.454970778419731D+03 -.459626283140039D+03 -.268552947758314D+03
 0.626848064771717D+03 0.214271194673785D+03 0.290291239071355D+03 0.512598622666442D+03
 0.405294249207617D+03 0.204945042488819D+03 0.138571380886335D+03 -.321027927755946D+03
 0.902832068904843D+02 0.357545412571273D+02 0.307636631823488D+02 0.769822528478178D+02
0.102847428004D-05 0.000000000000D+00 0.000000000000D+00 0.995430067834D-07 0.000000000000D+00  6 1 -1 25 1 -1 21 0 0.19750981D+00 0.10074206D+00 0.43122254D+06 0.43122254D+06 0.43122254D+06 0.10730824D+01  1  2  2  3  6  4        1 0.113441923112D-05 0.100000000000D+01
0.635242689935D-07 0.000000000000D+00 -.394961203886D-08 0.995430067834D-07 0.000000000000D+00  6 1 -1 25 1 -1 21 2 0.19750981D+00 0.10074206D+00 0.43122254D+06 0.43122254D+06 0.43122254D+06 0.10730824D+01  1  2  3  3  6  4        1 0.806837309171D-07 0.100000000000D+01
-.630175377121D-06 0.000000000000D+00 0.000000000000D+00 0.995430067834D-07 0.000000000000D+00  6 1 -1 25 1 -1 21 2 0.19750981D+00 0.10074206D+00 0.43122254D+06 0.43122254D+06 0.43122254D+06 0.10730824D+01  1  2 15  3  6  4        1 -.800401190974D-06 0.100000000000D+01
0.465069596039D-07 0.000000000000D+00 0.000000000000D+00 0.995430067834D-07 0.000000000000D+00  6 1 -1 25 1 -1 21 2 0.19750981D+00 0.10074206D+00 0.43169160D+06 0.43169160D+06 0.43169160D+06 0.10730486D+01  1  2 12  3  6  4        1 0.590620510730D-07 0.100000000000D+01
0.203397825215D-03 0.000000000000D+00 0.000000000000D+00 0.995430067834D-07 0.000000000000D+00  6 1 -1 25 1 -1 21 2 0.19750981D+00 0.10074206D+00 0.43169160D+06 0.43169160D+06 0.43169160D+06 0.10730486D+01  1  2 12  3  6  4        1 0.258307419864D-03 0.100000000000D+01
-.283969965435D-03 0.000000000000D+00 0.000000000000D+00 0.995430067834D-07 0.000000000000D+00  6 1 -1 25 1 -1 21 2 0.19750981D+00 0.10074206D+00 0.43122254D+06 0.43122254D+06 0.43122254D+06 0.10730824D+01  1  2  4  3  6  4        1 -.360677212706D-03 0.100000000000D+01
-.206543518228D-03 0.000000000000D+00 0.000000000000D+00 0.995430067834D-07 0.000000000000D+00  6 1 -1 25 1 -1 21 2 0.19750981D+00 0.10074206D+00 0.43122254D+06 0.43122254D+06 0.43122254D+06 0.10730824D+01  1  2  5  3  6  4        1 -.262335984521D-03 0.100000000000D+01
0.234180438278D-03 0.000000000000D+00 -.000000000000D+00 0.995430067834D-07 0.000000000000D+00  6 1 -1 25 1 -1 21 2 0.19750981D+00 0.10074206D+00 0.43122254D+06 0.43122254D+06 0.43122254D+06 0.10730824D+01  1  2  6  3  6  4        1 0.297438314009D-03 0.100000000000D+01
  </mgrwgt>
  </event>
  <event>
  5     66 0.17456057E-05 0.48344638E+02 0.75467711E-02 0.90614418E-01
        1 -1    0    0  502    0 0.00000000E+00 0.00000000E+00 0.17191255E+04 0.17191255E+04 0.32000000E+00 0.0000E+00 0.9000E+01
       -1 -1    0    0    0  501 0.00000000E+00 0.00000000E+00 -.26177171E+03 0.26177191E+03 0.32000000E+00 0.0000E+00 0.9000E+01
       25  1    1    2    0    0 0.43726031E+03 -.26464375E+03 0.58885997E+03 0.78969232E+03 0.12500000E+03 0.0000E+00 0.9000E+01
        1  1    1    2  502    0 -.38675352E+02 -.29065905E+02 0.64700227E+03 0.64880864E+03 0.32000000E+00 0.0000E+00 0.9000E+01
       -1  1    1    2    0  501 -.39858496E+03 0.29370965E+03 0.22149153E+03 0.54239647E+03 0.32000000E+00 0.0000E+00 0.9000E+01
#aMCatNLO 1  0  0  2  1 0.11578359D+03 0.00000000D+00  -5  6  0 0.00000000D+00 0.00000000D+00 0.00000000D+00 0.00000000D+00 0.00000000D+00
  <mgrwgt>
 0.1766638477D-02    7    4    0
 0.670834293541220D+03 0.000000000000000D+00 0.000000000000000D+00 0.670834293541220D+03
 0.670834293541220D+03 0.000000000000000D+00 0.000000000000000D+00 -.670834293541220D+03
 0.526407669410371D+03 0.437336944541324D+03 -.264722581734871D+03 0.117637610032964D+02
 0.254953247134534D+03 -.386472043466014D+02 -.290447515466546D+02 0.250327693690146D+03
 0.560307670537535D+03 -.398689740194722D+03 0.293767333281525D+03 -.262091454693443D+03
 0.000000000000000D+00 0.000000000000000D+00 0.000000000000000D+00 -.000000000000000D+00
 0.808915327639442D+03 0.000000000000000D+00 0.000000000000000D+00 0.808915327639442D+03
 0.878780485746365D+03 0.000000000000000D+00 0.000000000000000D+00 -.878780485746365D+03
 0.548315276963309D+03 0.382829671161593D+03 -.371924319931776D+03 0.117637610032964D+02
 0.271256947430222D+03 -.653352759348391D+02 -.815333000647763D+02 0.250327693690146D+03
 0.556123140534462D+03 -.455312332681454D+03 0.182405308373307D+03 -.262091454693443D+03
 0.312000448457815D+03 0.137817937454700D+03 0.271052311623245D+03 -.698651581069229D+02
 0.670834293541220D+03 0.000000000000000D+00 0.000000000000000D+00 0.670834293541220D+03
 0.670834293541220D+03 0.000000000000000D+00 0.000000000000000D+00 -.670834293541220D+03
 0.526407669410371D+03 0.437336944541324D+03 -.264722581734871D+03 0.117637610032964D+02
 0.254953247134534D+03 -.386472043466014D+02 -.290447515466546D+02 0.250327693690146D+03
 0.000000000000000D+00 0.000000000000000D+00 0.000000000000000D+00 -.000000000000000D+00
 0.560307670537535D+03 -.398689740194722D+03 0.293767333281525D+03 -.262091454693443D+03
 0.808915327639442D+03 0.000000000000000D+00 0.000000000000000D+00 0.808915327639442D+03
 0.878780485746365D+03 0.000000000000000D+00 0.000000000000000D+00 -.878780485746365D+03
 0.548315276963309D+03 0.382829671161593D+03 -.371924319931776D+03 0.117637610032964D+02
 0.271256947430222D+03 -.653352759348391D+02 -.815333000647763D+02 0.250327693690146D+03
 0.312000448457815D+03 0.137817937454700D+03 0.271052311623245D+03 -.698651581069229D+02
 0.556123140534462D+03 -.455312332681454D+03 0.182405308373307D+03 -.262091454693443D+03
0.322996361532D-03 0.000000000000D+00 0.000000000000D+00 0.102354177958D-05 0.000000000000D+00  6 1 -1 25 1 -1 21 0 0.26448086D+00 0.40272589D-01 0.28614521D+06 0.28614521D+06 0.28614521D+06 0.10860744D+01  1  2  2  2  6  2       -1 0.110268079672D-02 0.100000000000D+01
0.967079129122D-04 0.000000000000D+00 -.124039107518D-05 0.102354177958D-05 0.000000000000D+00  6 1 -1 25 1 -1 21 2 0.26448086D+00 0.40272589D-01 0.28614521D+06 0.28614521D+06 0.28614521D+06 0.10860744D+01  1  2  3  2  6  2       -1 0.389433530752D-03 0.100000000000D+01
-.176918264706D-03 0.000000000000D+00 0.000000000000D+00 0.102354177958D-05 0.000000000000D+00  6 1 -1 25 1 -1 21 2 0.26448086D+00 0.40272589D-01 0.28614521D+06 0.28614521D+06 0.28614521D+06 0.10860744D+01  1  2 15  2  6  2       -1 -.712432958217D-03 0.100000000000D+01
-.408531575192D-04 0.000000000000D+00 0.000000000000D+00 0.102354177958D-05 0.000000000000D+00  6 1 -1 25 1 -1 21 2 0.26448086D+00 0.40272589D-01 0.28614521D+06 0.28614521D+06 0.28614521D+06 0.10860744D+01  1  2  4  2  6  2       -1 -.164511764301D-03 0.100000000000D+01
-.397633243091D-03 0.000000000000D+00 -.264522068957D-03 0.102354177958D-05 0.000000000000D+00  6 1 -1 25 1 -1 21 2 0.26448086D+00 0.63993678D-01 0.28614521D+06 0.28614521D+06 0.28614521D+06 0.10860744D+01  1  2  5  2  6  2       -1 -.686290090804D-03 0.100000000000D+01
0.492416157994D-03 0.000000000000D+00 0.238487074996D-03 0.102354177958D-05 0.000000000000D+00  6 1 -1 25 1 -1 21 2 0.26448086D+00 0.40272589D-01 0.28614521D+06 0.28614521D+06 0.28614521D+06 0.10860744D+01  1  2  6  2  6  2       -1 0.198291284790D-02 0.100000000000D+01
-.102150733776D-04 0.000000000000D+00 -.140502260827D-04 0.102354177958D-05 0.000000000000D+00  6 1 21 25 1 1 -1 2 0.26448086D+00 0.63993678D-01 0.28614521D+06 0.28614521D+06 0.28614521D+06 0.10860744D+01  3  4  5  6  5  2       -1 -.145153885413D-03 0.100000000000D+01
  </mgrwgt>
  </event>
  <event>
  5     66 -.17456057E-05 0.62230811E+02 0.75467711E-02 0.94005097E-01
        1 -1    0    0  502    0 0.00000000E+00 0.00000000E+00 0.84743140E+03 0.84743147E+03 0.32000000E+00 0.0000E+00 0.9000E+01
       -1 -1    0    0    0  501 0.00000000E+00 0.00000000E+00 -.58643949E+03 0.58643957E+03 0.32000000E+00 0.0000E+00 0.9000E+01
       25  1    1    2    0    0 0.41313014E+03 -.19572654E+03 0.22040717E+03 0.52267553E+03 0.12500000E+03 0.0000E+00 0.9000E+01
        1  1    1    2  502    0 -.47086825E+03 0.21892050E+03 0.32993940E+03 0.61522614E+03 0.32000000E+00 0.0000E+00 0.9000E+01
       -1  1    1    2    0  501 0.57738114E+02 -.23193957E+02 -.28935465E+03 0.29596937E+03 0.32000000E+00 0.0000E+00 0.9000E+01
#aMCatNLO 1  0  0  2  5 0.15367777D+01 0.00000000D+00  -5  6  0 0.00000000D+00 0.00000000D+00 0.00000000D+00 0.00000000D+00 0.00000000D+00
  <mgrwgt>
 -.1145565129D-02   13    4    0
 0.704959107611003D+03 0.000000000000000D+00 0.000000000000000D+00 0.704959107611003D+03
 0.704959107611003D+03 0.000000000000000D+00 0.000000000000000D+00 -.704959107611003D+03
 0.490733942587405D+03 0.413090196600597D+03 -.195708518930729D+03 0.127473399177236D+03
 0.564563757586241D+03 -.470835970116717D+03 0.218905490390747D+03 0.221644110909658D+03
 0.354620515048360D+03 0.577457735161199D+02 -.231969714600172D+02 -.349117510086894D+03
 0.000000000000000D+00 0.000000000000000D+00 0.000000000000000D+00 -.000000000000000D+00
 0.704962163537491D+03 0.000000000000000D+00 0.000000000000000D+00 0.704962163537491D+03
 0.928844530696336D+03 0.000000000000000D+00 0.000000000000000D+00 -.928844530696336D+03
 0.490299693873657D+03 0.412556808102155D+03 -.195745248737650D+03 0.127473399177236D+03
 0.565059689019819D+03 -.471450146972226D+03 0.218863197395333D+03 0.221644110909658D+03
 0.354559669854043D+03 0.573601918806987D+02 -.232235230993244D+02 -.349117510086894D+03
 0.223887641486308D+03 0.153314698937198D+01 0.105574441641248D+00 -.223882367158845D+03
 0.704959107611003D+03 0.000000000000000D+00 0.000000000000000D+00 0.704959107611003D+03
 0.704959107611003D+03 0.000000000000000D+00 0.000000000000000D+00 -.704959107611003D+03
 0.490733942587405D+03 0.413090196600597D+03 -.195708518930729D+03 0.127473399177236D+03
 0.564563757586241D+03 -.470835970116717D+03 0.218905490390747D+03 0.221644110909658D+03
 0.000000000000000D+00 0.000000000000000D+00 0.000000000000000D+00 -.000000000000000D+00
 0.354620515048360D+03 0.577457735161199D+02 -.231969714600172D+02 -.349117510086894D+03
 0.704962163537491D+03 0.000000000000000D+00 0.000000000000000D+00 0.704962163537491D+03
 0.928844530696336D+03 0.000000000000000D+00 0.000000000000000D+00 -.928844530696336D+03
 0.490299693873657D+03 0.412556808102155D+03 -.195745248737650D+03 0.127473399177236D+03
 0.565059689019819D+03 -.471450146972226D+03 0.218863197395333D+03 0.221644110909658D+03
 0.223887641486308D+03 0.153314698937198D+01 0.105574441641248D+00 -.223882367158845D+03
 0.354559669854043D+03 0.573601918806987D+02 -.232235230993244D+02 -.349117510086894D+03
0.317372944895D-06 0.000000000000D+00 0.000000000000D+00 0.853326212960D-06 0.000000000000D+00  6 1 -1 25 1 -1 21 0 0.13037407D+00 0.90221471D-01 0.27844377D+06 0.27844377D+06 0.27844377D+06 0.10869559D+01  1  2  2  2  6  2       -1 0.973322799343D-06 0.100000000000D+01
0.866051600195D-07 0.000000000000D+00 -.121879567461D-08 0.853326212960D-06 0.000000000000D+00  6 1 -1 25 1 -1 21 2 0.13037407D+00 0.90221471D-01 0.27844377D+06 0.27844377D+06 0.27844377D+06 0.10869559D+01  1  2  3  2  6  2       -1 0.313801219047D-06 0.100000000000D+01
-.240674751789D-06 0.000000000000D+00 0.000000000000D+00 0.853326212960D-06 0.000000000000D+00  6 1 -1 25 1 -1 21 2 0.13037407D+00 0.90221471D-01 0.27844377D+06 0.27844377D+06 0.27844377D+06 0.10869559D+01  1  2 15  2  6  2       -1 -.872050008200D-06 0.100000000000D+01
0.102849895986D-09 0.000000000000D+00 0.000000000000D+00 0.853326212960D-06 0.000000000000D+00  6 1 -1 25 1 -1 21 2 0.13037407D+00 0.11887473D+00 0.27911887D+06 0.27911887D+06 0.27911887D+06 0.10868776D+01  1  2 12  2  6  2       -1 0.198520542672D-09 0.100000000000D+01
0.257411517791D-05 0.000000000000D+00 0.000000000000D+00 0.853326212960D-06 0.000000000000D+00  6 1 -1 25 1 -1 21 2 0.13037407D+00 0.11893145D+00 0.27911887D+06 0.27911887D+06 0.27911887D+06 0.10868776D+01  1  2 12  2  6  2       -1 0.496273700376D-05 0.100000000000D+01
-.119368311415D-01 0.000000000000D+00 0.000000000000D+00 0.853326212960D-06 0.000000000000D+00  6 1 -1 25 1 -1 21 2 0.13037407D+00 0.90221471D-01 0.27844377D+06 0.27844377D+06 0.27844377D+06 0.10869559D+01  1  2  4  2  6  2       -1 -.432513739702D-01 0.100000000000D+01
-.114275836876D-01 0.000000000000D+00 -.354690848426D-06 0.853326212960D-06 0.000000000000D+00  6 1 -1 25 1 -1 21 2 0.13037407D+00 0.11887478D+00 0.27844377D+06 0.27844377D+06 0.27844377D+06 0.10869559D+01  1  2  5  2  6  2       -1 -.220635581773D-01 0.100000000000D+01
0.110064193190D-01 0.000000000000D+00 0.341615378005D-06 0.853326212960D-06 0.000000000000D+00  6 1 -1 25 1 -1 21 2 0.13037407D+00 0.90221471D-01 0.27844377D+06 0.27844377D+06 0.27844377D+06 0.10869559D+01  1  2  6  2  6  2       -1 0.398801618620D-01 0.100000000000D+01
0.125363580009D-01 0.000000000000D+00 0.000000000000D+00 0.853326212960D-06 0.259426209213D-05  6 1 -1 25 1 -1 21 2 0.13037464D+00 0.11887458D+00 0.27911887D+06 0.27911887D+06 0.27911887D+06 0.10868776D+01  1  2 11  2  6  2       -1 0.241975429849D-01 0.100000000000D+01
0.374053688553D-11 0.000000000000D+00 0.000000000000D+00 0.853326212960D-06 0.000000000000D+00  6 1 21 25 1 1 -1 2 0.13037407D+00 0.11887473D+00 0.27911887D+06 0.27911887D+06 0.27911887D+06 0.10868776D+01  3  4 12  6  5  2       -1 0.476019783613D-10 0.100000000000D+01
0.936177200591D-07 0.000000000000D+00 0.000000000000D+00 0.853326212960D-06 0.000000000000D+00  6 1 21 25 1 1 -1 2 0.13037407D+00 0.11893145D+00 0.27911887D+06 0.27911887D+06 0.27911887D+06 0.10868776D+01  3  4 12  6  5  2       -1 0.118981647293D-05 0.100000000000D+01
-.415598655894D-03 0.000000000000D+00 -.128996221014D-07 0.853326212960D-06 0.000000000000D+00  6 1 21 25 1 1 -1 2 0.13037407D+00 0.11887478D+00 0.27844377D+06 0.27844377D+06 0.27844377D+06 0.10869559D+01  3  4  5  6  5  2       -1 -.529072682173D-02 0.100000000000D+01
0.422430529984D-03 0.000000000000D+00 0.000000000000D+00 0.853326212960D-06 0.436976028555D-07  6 1 21 25 1 1 -1 2 0.13037464D+00 0.11887458D+00 0.27911887D+06 0.27911887D+06 0.27911887D+06 0.10868776D+01  3  4 11  6  5  2       -1 0.537582111994D-02 0.100000000000D+01
  </mgrwgt>
  </event>
  <event>
  5     66 0.17456057E-05 0.76493690E+02 0.75467711E-02 0.91040249E-01
        1 -1    0    0  502    0 0.00000000E+00 0.00000000E+00 0.14979148E+04 0.14979148E+04 0.32000000E+00 0.0000E+00 0.9000E+01
       -1 -1    0    0    0  501 0.00000000E+00 0.00000000E+00 -.50655010E+03 0.50655020E+03 0.32000000E+00 0.0000E+00 0.9000E+01
       25  1    1    2    0    0 -.37552162E+03 -.27237369E+03 0.33364199E+03 0.58493239E+03 0.12500000E+03 0.0000E+00 0.9000E+01
        1  1    1    2  502    0 0.44490270E+03 0.24018475E+03 0.97224179E+03 0.10958473E+04 0.32000000E+00 0.0000E+00 0.9000E+01
       -1  1    1    2    0  501 -.69381081E+02 0.32188940E+02 -.31451907E+03 0.32368535E+03 0.32000000E+00 0.0000E+00 0.9000E+01
#aMCatNLO 1  0  0  5  2 0.29202790D+02 0.00000000D+00  -5  6  0 0.00000000D+00 0.00000000D+00 0.00000000D+00 0.00000000D+00 0.00000000D+00
  <mgrwgt>
 0.1124677118D-02    6    2    0
 0.871073496022850D+03 0.000000000000000D+00 0.000000000000000D+00 0.871073496022850D+03
 0.871073496022850D+03 -.000000000000000D+00 -.000000000000000D+00 -.871073496022850D+03
 0.483127008518873D+03 -.375488427114076D+03 -.272364778742668D+03 0.511133521132175D+02
 0.707559000015878D+03 0.444877609817975D+03 0.240171209770020D+03 0.495016606573680D+03
 0.551460983510949D+03 -.693891827038984D+02 0.321935689726481D+02 -.546129958686897D+03
 0.000000000000000D+00 -.000000000000000D+00 0.000000000000000D+00 0.000000000000000D+00
 0.871073496022850D+03 0.000000000000000D+00 0.000000000000000D+00 0.871073496022850D+03
 0.871073496022850D+03 -.000000000000000D+00 -.000000000000000D+00 -.871073496022850D+03
 0.483423500965158D+03 -.381141155809676D+03 -.269742157981706D+03 0.662335570888189D+01
 0.661044440588402D+03 0.436873533604999D+03 0.243884753720009D+03 0.432020248334781D+03
 0.265676765115061D+03 0.142380993942597D+03 0.120085854408616D+03 -.189449686346729D+03
 0.332002285377080D+03 -.198113371737920D+03 -.942284501469200D+02 -.249193917696934D+03
0.108408626568D-02 0.000000000000D+00 0.000000000000D+00 0.433935015091D-05 0.000000000000D+00  6 1 -1 25 1 -1 21 0 0.23044844D+00 0.77930795D-01 0.28221412D+06 0.28221412D+06 0.28221412D+06 0.10865211D+01  1  2  2  4  6  5       -1 0.151318196188D-02 0.100000000000D+01
0.301924590402D-03 0.000000000000D+00 -.416317670670D-05 0.433935015091D-05 0.000000000000D+00  6 1 -1 25 1 -1 21 2 0.23044844D+00 0.77930795D-01 0.28221412D+06 0.28221412D+06 0.28221412D+06 0.10865211D+01  1  2  3  4  6  5       -1 0.497510337725D-03 0.100000000000D+01
-.712705495361D-03 0.000000000000D+00 0.000000000000D+00 0.433935015091D-05 0.000000000000D+00  6 1 -1 25 1 -1 21 2 0.23044844D+00 0.77930795D-01 0.28221412D+06 0.28221412D+06 0.28221412D+06 0.10865211D+01  1  2 15  4  6  5       -1 -.117439374919D-02 0.100000000000D+01
-.397036568533D-04 0.000000000000D+00 0.000000000000D+00 0.433935015091D-05 0.000000000000D+00  6 1 -1 25 1 -1 21 2 0.23044844D+00 0.77930795D-01 0.28221412D+06 0.28221412D+06 0.28221412D+06 0.10865211D+01  1  2  4  4  6  5       -1 -.654235539534D-04 0.100000000000D+01
-.295517979848D-03 0.000000000000D+00 0.000000000000D+00 0.433935015091D-05 0.000000000000D+00  6 1 -1 25 1 -1 21 2 0.23044844D+00 0.77930795D-01 0.28221412D+06 0.28221412D+06 0.28221412D+06 0.10865211D+01  1  2  5  4  6  5       -1 -.486953546124D-03 0.100000000000D+01
0.510230222827D-03 0.000000000000D+00 -.000000000000D+00 0.433935015091D-05 0.000000000000D+00  6 1 -1 25 1 -1 21 2 0.23044844D+00 0.77930795D-01 0.28221412D+06 0.28221412D+06 0.28221412D+06 0.10865211D+01  1  2  6  4  6  5       -1 0.840755667296D-03 0.100000000000D+01
  </mgrwgt>
  </event>
  <event>
  6     66 0.17456057E-05 0.44474933E+02 0.75467711E-02 0.95407936E-01
        1 -1    0    0  502    0 0.00000000E+00 0.00000000E+00 0.31163927E+03 0.31163944E+03 0.32000000E+00 0.0000E+00 0.9000E+01
       -1 -1    0    0    0  501 -.00000000E+00 -.00000000E+00 -.11756440E+04 0.11756440E+04 0.32000000E+00 0.0000E+00 0.9000E+01
       25  1    1    2    0    0 0.26059656E+03 0.37726046E+03 -.24062396E+03 0.53269214E+03 0.12500000E+03 0.0000E+00 0.9000E+01
        1  1    1    2  502    0 -.32577755E+02 -.46646615E+02 0.10606880E+03 0.12036574E+03 0.32000000E+00 0.0000E+00 0.9000E+01
       -1  1    1    2    0  503 -.18346166E+03 -.26589715E+03 -.54195320E+03 0.63093015E+03 0.32000000E+00 0.0000E+00 0.9000E+01
       21  1    1    2  503  501 -.44557145E+02 -.64716701E+02 -.18749635E+03 0.20329544E+03 0.75000000E+00 0.0000E+00 0.9000E+01
#aMCatNLO 2  0  0  5  2 0.21165471D+02 0.00000000D+00  -5  6  0 0.00000000D+00 0.00000000D+00 0.00000000D+00 0.00000000D+00 0.00000000D+00
  <mgrwgt>
 0.8290797220D-03    3    2    0
 0.605290829012480D+03 0.000000000000000D+00 0.000000000000000D+00 0.605290829012480D+03
 0.605290829012480D+03 -.000000000000000D+00 -.000000000000000D+00 -.605290829012480D+03
 0.483668905486123D+03 0.261088739400496D+03 0.377974361927628D+03 0.853150749739276D+02
 0.223596711734979D+03 -.323428726784960D+02 -.463064674131364D+02 0.216344954092565D+03
 0.503316040803859D+03 -.228745866722000D+03 -.331667894514491D+03 -.301660029066492D+03
 0.000000000000000D+00 0.000000000000000D+00 0.000000000000000D+00 -.000000000000000D+00
 0.605290829012480D+03 0.000000000000000D+00 0.000000000000000D+00 0.605290829012480D+03
 0.605290829012480D+03 -.000000000000000D+00 -.000000000000000D+00 -.605290829012480D+03
 0.482795935524756D+03 0.260630473393735D+03 0.377309903488364D+03 0.847107338380602D+02
 0.223420977132746D+03 -.325548338410094D+02 -.466137984853743D+02 0.216065428996172D+03
 0.388298435767454D+03 -.183464837240621D+03 -.265901505932596D+03 -.215436110850762D+03
 0.116066309600006D+03 -.446108023121049D+02 -.647945990703944D+02 -.853400519834708D+02
-.648588858853D-07 0.000000000000D+00 0.000000000000D+00 0.133562504154D-05 0.000000000000D+00  6 1 -1 25 1 -1 21 2 0.47944519D-01 0.18086832D+00 0.21803394D+06 0.21803394D+06 0.21803394D+06 0.10949573D+01  1  2 13  4  6  5       -1 -.162941880912D-06 0.100000000000D+01
-.705058291645D-03 0.000000000000D+00 0.000000000000D+00 0.133562504154D-05 0.000000000000D+00  6 1 -1 25 1 -1 21 2 0.47944519D-01 0.18086832D+00 0.21803394D+06 0.21803394D+06 0.21803394D+06 0.10949573D+01  1  2 13  4  6  5       -1 -.177128426776D-02 0.100000000000D+01
0.103513767336D-02 0.000000000000D+00 0.000000000000D+00 0.133562504154D-05 0.172396602360D-07  6 1 -1 25 1 -1 21 2 0.47944519D-01 0.18086832D+00 0.21803394D+06 0.21803394D+06 0.21803394D+06 0.10949573D+01  1  2  1  4  6  5       -1 0.260052693162D-02 0.100000000000D+01
  </mgrwgt>
  </event>
  <event>
  5     66 0.17456057E-05 0.18143404E+03 0.75467711E-02 0.91625334E-01
        1 -1    0    0  502    0 0.00000000E+00 0.00000000E+00 0.28475172E+04 0.28475172E+04 0.32000000E+00 0.0000E+00 0.9000E+01
       -1 -1    0    0    0  501 0.00000000E+00 0.00000000E+00 -.31194940E+03 0.31194956E+03 0.32000000E+00 0.0000E+00 0.9000E+01
       25  1    1    2    0    0 0.27192411E+02 0.53014919E+03 0.60991466E+03 0.81817998E+03 0.12500000E+03 0.0000E+00 0.9000E+01
        1  1    1    2  502    0 0.54349385E+02 -.17312488E+03 0.19646378E+04 0.19729997E+04 0.32000000E+00 0.0000E+00 0.9000E+01
       -1  1    1    2    0  501 -.81541796E+02 -.35702431E+03 -.38984719E+02 0.36828703E+03 0.32000000E+00 0.0000E+00 0.9000E+01
#aMCatNLO 1  0  0  1  2 0.21031046D+03 0.00000000D+00  -5  6  0 0.00000000D+00 0.00000000D+00 0.00000000D+00 0.00000000D+00 0.00000000D+00
  <mgrwgt>
 0.2881900937D-03    4    2    0
 0.942486901605385D+03 0.000000000000000D+00 0.000000000000000D+00 0.942486901605385D+03
 0.942486901605385D+03 0.000000000000000D+00 0.000000000000000D+00 -.942486901605385D+03
 0.550978276864735D+03 0.272080323726976D+02 0.530189067340351D+03 -.781750434858033D+02
 0.664203829029151D+03 0.543429714193504D+02 -.173104451661795D+03 0.638943203085509D+03
 0.669791697316885D+03 -.815510037920480D+02 -.357084615678556D+03 -.560768159599706D+03
 0.000000000000000D+00 0.000000000000000D+00 -.000000000000000D+00 -.000000000000000D+00
 0.102402591635792D+04 0.000000000000000D+00 0.000000000000000D+00 0.102402591635792D+04
 0.109442401978041D+04 0.000000000000000D+00 0.000000000000000D+00 -.109442401978041D+04
 0.555481439559831D+03 -.341771705333603D+02 0.534467223771288D+03 -.781750434858033D+02
 0.660933890891411D+03 -.191742534812095D+02 -.167980770813589D+03 0.638943203085509D+03
 0.680254574431786D+03 -.156450128535293D+03 -.351864625240759D+03 -.560768159599706D+03
 0.221780031255296D+03 0.209801552549863D+03 -.146218277169413D+02 -.703981034224877D+02
0.149277335303D-02 0.000000000000D+00 0.000000000000D+00 0.190605013842D-05 0.000000000000D+00  6 1 -1 25 1 -1 21 0 0.43807958D+00 0.47992229D-01 0.29872608D+06 0.29872608D+06 0.29872608D+06 0.10846886D+01  1  2  2  1  6  1        1 0.629546144104D-03 0.100000000000D+01
0.178555528863D-03 0.000000000000D+00 -.573264273187D-05 0.190605013842D-05 0.000000000000D+00  6 1 -1 25 1 -1 21 2 0.43807958D+00 0.47992229D-01 0.29872608D+06 0.29872608D+06 0.29872608D+06 0.10846886D+01  1  2  3  1  6  1        1 0.885966228458D-04 0.100000000000D+01
-.808356569142D-03 0.000000000000D+00 0.000000000000D+00 0.190605013842D-05 0.000000000000D+00  6 1 -1 25 1 -1 21 2 0.43807958D+00 0.47992229D-01 0.29872608D+06 0.29872608D+06 0.29872608D+06 0.10846886D+01  1  2 15  1  6  1        1 -.401094620464D-03 0.100000000000D+01
-.581598339266D-04 0.000000000000D+00 0.000000000000D+00 0.190605013842D-05 0.000000000000D+00  6 1 -1 25 1 -1 21 2 0.43807958D+00 0.47992229D-01 0.29872608D+06 0.29872608D+06 0.29872608D+06 0.10846886D+01  1  2  4  1  6  1        1 -.288580527524D-04 0.100000000000D+01
  </mgrwgt>
  </event>
  <event>
  5     66 -.17456057E-05 0.10122186E+03 0.75467711E-02 0.92439753E-01
        1 -1    0    0  502    0 0.00000000E+00 0.00000000E+00 0.20553235E+04 0.20553235E+04 0.32000000E+00 0.0000E+00 0.9000E+01
       -1 -1    0    0    0  501 0.00000000E+00 0.00000000E+00 -.42798551E+03 0.42798563E+03 0.32000000E+00 0.0000E+00 0.9000E+01
       25  1    1    2    0    0 0.45930545E+03 0.35066451E+03 0.93944886E+03 0.11100073E+04 0.12500000E+03 0.0000E+00 0.9000E+01
        1  1    1    2  502    0 0.33490365E+01 -.10121376E+03 0.82411761E+03 0.83031644E+03 0.32000000E+00 0.0000E+00 0.9000E+01
       -1  1    1    2    0  501 -.46265448E+03 -.24945075E+03 -.13622848E+03 0.54298540E+03 0.32000000E+00 0.0000E+00 0.9000E+01
#aMCatNLO 1  0  0  2  5 0.11298451D+03 0.00000000D+00  -5  6  0 0.00000000D+00 0.00000000D+00 0.00000000D+00 0.00000000D+00 0.00000000D+00
  <mgrwgt>
 -.5092989514D-04    1    2    0
 0.937895975164901D+03 0.000000000000000D+00 0.000000000000000D+00 0.937895975164901D+03
 0.937895975164901D+03 0.000000000000000D+00 0.000000000000000D+00 -.937895975164901D+03
 0.654619716342721D+03 0.459382847985278D+03 0.350668870838953D+03 0.280892710881030D+03
 0.384092502054173D+03 0.334747242134874D+01 -.101166490365753D+03 0.370514757856822D+03
 0.837079731932907D+03 -.462730320406627D+03 -.249502380473200D+03 -.651407468737851D+03
 0.000000000000000D+00 0.000000000000000D+00 -.000000000000000D+00 0.000000000000000D+00
 0.251183268104525D+04 0.000000000000000D+00 0.000000000000000D+00 0.251183268104525D+04
 0.135581640085534D+04 0.000000000000000D+00 0.000000000000000D+00 -.135581640085534D+04
 0.544596394562518D+03 0.123383012218523D+03 0.432245474516835D+03 0.280892710881030D+03
 0.436684029522865D+03 -.226620068293991D+03 -.453332162663719D+02 0.370514757856822D+03
 0.123465629336382D+04 -.104319530742745D+04 -.108572662198113D+03 -.651407468737851D+03
 0.165171236445139D+04 0.114643236350292D+04 -.278339596052350D+03 0.115601628018991D+04
-.538496821942D-04 0.000000000000D+00 0.000000000000D+00 0.130578090669D-05 0.000000000000D+00  6 1 -1 25 1 -1 21 2 0.31620363D+00 0.65843936D-01 0.37101723D+06 0.37101723D+06 0.37101723D+06 0.10777904D+01  1  2 14  2  6  2       -1 -.509298951384D-04 0.100000000000D+01
  </mgrwgt>
  </event>
  <event>
  5     66 -.17456057E-05 0.16122818E+03 0.75467711E-02 0.93934682E-01
        1 -1    0    0  502    0 0.00000000E+00 0.00000000E+00 0.30430451E+04 0.30430451E+04 0.32000000E+00 0.0000E+00 0.9000E+01
       -1 -1    0    0    0  501 0.00000000E+00 0.00000000E+00 -.14551560E+04 0.14551561E+04 0.32000000E+00 0.0000E+00 0.9000E+01
       25  1    1    2    0    0 0.43550538E+03 0.21079632E+03 0.50812812E+03 0.71268451E+03 0.12500000E+03 0.0000E+00 0.9000E+01
        1  1    1    2  502    0 -.39853812E+03 -.53874564E+02 0.24111213E+04 0.24444307E+04 0.32000000E+00 0.0000E+00 0.9000E+01
       -1  1    1    2    0  501 -.36967258E+02 -.15692175E+03 -.13313604E+04 0.13410860E+04 0.32000000E+00 0.0000E+00 0.9000E+01
#aMCatNLO 1  0  0  4  1 0.67502409D+01 0.00000000D+00  -5  6  0 0.00000000D+00 0.00000000D+00 0.00000000D+00 0.00000000D+00 0.00000000D+00
  <mgrwgt>
 -.4207242772D-02    9    2    0
 0.210430642317012D+04 0.000000000000000D+00 0.000000000000000D+00 0.210430642317012D+04
 0.210430642317012D+04 -.000000000000000D+00 -.000000000000000D+00 -.210430642317012D+04
 0.570039987021893D+03 0.435495741234558D+03 0.210805163254156D+03 0.274272181082719D+03
 0.170287085661740D+04 -.398525695630253D+03 -.538728841083800D+02 0.165470364011116D+04
 0.193570200270095D+04 -.369700456043042D+02 -.156932279145776D+03 -.192897582119388D+04
 0.000000000000000D+00 0.000000000000000D+00 0.000000000000000D+00 0.000000000000000D+00
 0.210430642317012D+04 0.000000000000000D+00 0.000000000000000D+00 0.210430642317012D+04
 0.210430642317012D+04 -.000000000000000D+00 -.000000000000000D+00 -.210430642317012D+04
 0.570054133432381D+03 0.435483792830447D+03 0.210803548063475D+03 0.274321791604679D+03
 0.164008329521611D+04 -.390287090072947D+03 -.506399632578577D+02 0.159216355839800D+04
 0.193553535354162D+04 -.370106169111022D+02 -.156937763593412D+03 -.192880736658787D+04
 0.629400641501323D+02 -.818608584639821D+01 -.322582121220490D+01 0.623220165851928D+02
0.253209207597D-02 0.000000000000D+00 0.000000000000D+00 0.184527658494D-03 0.000000000000D+00  6 1 -1 25 1 -1 21 0 0.46816079D+00 0.22387016D+00 0.28254484D+06 0.28254484D+06 0.28254484D+06 0.10864832D+01  1  2  2  3  6  4        1 0.162495480250D-04 0.100000000000D+01
0.477631066113D-03 0.000000000000D+00 -.972390028689D-05 0.184527658494D-03 0.000000000000D+00  6 1 -1 25 1 -1 21 2 0.46816079D+00 0.22387016D+00 0.28254484D+06 0.28254484D+06 0.28254484D+06 0.10864832D+01  1  2  3  3  6  4        1 0.361826538566D-05 0.100000000000D+01
-.174863614194D-02 0.000000000000D+00 0.000000000000D+00 0.184527658494D-03 0.000000000000D+00  6 1 -1 25 1 -1 21 2 0.46816079D+00 0.22387016D+00 0.28254484D+06 0.28254484D+06 0.28254484D+06 0.10864832D+01  1  2 15  3  6  4        1 -.132466878170D-04 0.100000000000D+01
0.451043179199D-09 0.000000000000D+00 0.000000000000D+00 0.184527658494D-03 0.000000000000D+00  6 1 -1 25 1 -1 21 2 0.46816079D+00 0.22387016D+00 0.28265673D+06 0.28265673D+06 0.28265673D+06 0.10864704D+01  1  2 12  3  6  4        1 0.341659806276D-11 0.100000000000D+01
0.384927639182D+00 0.000000000000D+00 0.000000000000D+00 0.184527658494D-03 0.000000000000D+00  6 1 -1 25 1 -1 21 2 0.46816079D+00 0.22387016D+00 0.28265673D+06 0.28265673D+06 0.28265673D+06 0.10864704D+01  1  2 12  3  6  4        1 0.291578076552D-02 0.100000000000D+01
-.138847387846D+01 0.000000000000D+00 0.000000000000D+00 0.184527658494D-03 0.000000000000D+00  6 1 -1 25 1 -1 21 2 0.46816079D+00 0.22387016D+00 0.28254484D+06 0.28254484D+06 0.28254484D+06 0.10864832D+01  1  2  4  3  6  4        1 -.105183002735D-01 0.100000000000D+01
-.616603345226D+00 0.000000000000D+00 0.000000000000D+00 0.184527658494D-03 0.000000000000D+00  6 1 -1 25 1 -1 21 2 0.46816079D+00 0.22387016D+00 0.28254484D+06 0.28254484D+06 0.28254484D+06 0.10864832D+01  1  2  5  3  6  4        1 -.467104151929D-02 0.100000000000D+01
0.639814594177D+00 0.000000000000D+00 -.000000000000D+00 0.184527658494D-03 0.000000000000D+00  6 1 -1 25 1 -1 21 2 0.46816079D+00 0.22387016D+00 0.28254484D+06 0.28254484D+06 0.28254484D+06 0.10864832D+01  1  2  6  3  6  4        1 0.484687693829D-02 0.100000000000D+01
0.424141384208D+00 0.000000000000D+00 0.000000000000D+00 0.184527658494D-03 0.679415495703D-04  6 1 -1 25 1 -1 21 2 0.46816079D+00 0.22387016D+00 0.28265673D+06 0.28265673D+06 0.28265673D+06 0.10864704D+01  1  2 11  3  6  4        1 0.321282018762D-02 0.100000000000D+01
  </mgrwgt>
  </event>
  <event>
  6     66 -.17456057E-05 0.48876935E+02 0.75467711E-02 0.94112793E-01
        1 -1    0    0  502    0 0.00000000E+00 0.00000000E+00 0.54055459E+03 0.54055469E+03 0.32000000E+00 0.0000E+00 0.9000E+01
       -1 -1    0    0    0  501 -.00000000E+00 -.00000000E+00 -.15458818E+04 0.15458818E+04 0.32000000E+00 0.0000E+00 0.9000E+01
       25  1    1    2    0    0 0.32197770E+03 0.39361328E+03 -.45778271E+03 0.69555091E+03 0.12500000E+03 0.0000E+00 0.9000E+01
        1  1    1    2  503    0 -.26409482E+03 -.23389169E+03 0.24144684E+03 0.42749044E+03 0.32000000E+00 0.0000E+00 0.9000E+01
       -1  1    1    2    0  501 -.19928201E+02 -.68674536E+02 -.84629752E+03 0.84931320E+03 0.32000000E+00 0.0000E+00 0.9000E+01
       21  1    1    2  502  503 -.37954679E+02 -.91047050E+02 0.57306213E+02 0.11408193E+03 0.75000000E+00 0.0000E+00 0.9000E+01
#aMCatNLO 2  0  0  4  1 0.34327654D+02 0.00000000D+00  -5  6  0 0.00000000D+00 0.00000000D+00 0.00000000D+00 0.00000000D+00 0.00000000D+00
  <mgrwgt>
 -.1396496329D-03    3    2    0
 0.914129979536938D+03 0.000000000000000D+00 0.000000000000000D+00 0.914129979536938D+03
 0.914129979536938D+03 -.000000000000000D+00 -.000000000000000D+00 -.914129979536938D+03
 0.542942503549376D+03 0.322473508271602D+03 0.394171804896064D+03 -.140715979364280D+03
 0.780218665409922D+03 -.303029392995448D+03 -.325992885813507D+03 0.640814318842699D+03
 0.505098790114578D+03 -.194441152761538D+02 -.681789190825572D+02 -.500098339478419D+03
 0.000000000000000D+00 0.000000000000000D+00 -.000000000000000D+00 0.000000000000000D+00
 0.914129979536938D+03 0.000000000000000D+00 0.000000000000000D+00 0.914129979536938D+03
 0.914129979536938D+03 -.000000000000000D+00 -.000000000000000D+00 -.914129979536938D+03
 0.541915033780811D+03 0.321938804768309D+03 0.393596581692896D+03 -.139585245286446D+03
 0.620418297274571D+03 -.264024567392875D+03 -.233793292717084D+03 0.510441561480437D+03
 0.504149390478190D+03 -.199415525149481D+02 -.687140519928756D+02 -.499046412131722D+03
 0.161777237540304D+03 -.379726848604858D+02 -.910892369829364D+02 0.128190095937730D+03
-.237692028187D-08 0.000000000000D+00 0.000000000000D+00 0.108305463705D-04 0.000000000000D+00  6 1 -1 25 1 -1 21 2 0.83162255D-01 0.23782797D+00 0.27380355D+06 0.27380355D+06 0.27380355D+06 0.10875000D+01  1  2 13  3  6  4        1 -.945779007767D-09 0.100000000000D+01
-.231380625194D-02 0.000000000000D+00 0.000000000000D+00 0.108305463705D-04 0.000000000000D+00  6 1 -1 25 1 -1 21 2 0.83162255D-01 0.23782797D+00 0.27380355D+06 0.27380355D+06 0.27380355D+06 0.10875000D+01  1  2 13  3  6  4        1 -.920665870799D-03 0.100000000000D+01
0.196284287243D-02 0.000000000000D+00 0.000000000000D+00 0.108305463705D-04 0.309730498076D-07  6 1 -1 25 1 -1 21 2 0.83162255D-01 0.23782797D+00 0.27380355D+06 0.27380355D+06 0.27380355D+06 0.10875000D+01  1  2  1  3  6  4        1 0.781017183644D-03 0.100000000000D+01
  </mgrwgt>
  </event>
  <event>
  5     66 0.17456057E-05 0.21956104E+02 0.75467711E-02 0.94034918E-01
        1 -1    0    0  502    0 0.00000000E+00 0.00000000E+00 0.31909225E+03 0.31909241E+03 0.32000000E+00 0.0000E+00 0.9000E+01
       -1 -1    0    0    0  501 0.00000000E+00 0.00000000E+00 -.11422978E+04 0.11422978E+04 0.32000000E+00 0.0000E+00 0.9000E+01
       25  1    1    2    0    0 -.28772050E+03 0.41610674E+03 -.42859993E+03 0.67472276E+03 0.12500000E+03 0.0000E+00 0.9000E+01
        1  1    1    2  502    0 0.15400512E+02 0.15691581E+02 0.84043554E+02 0.86872451E+02 0.32000000E+00 0.0000E+00 0.9000E+01
       -1  1    1    2    0  501 0.27231999E+03 -.43179832E+03 -.47864918E+03 0.69979505E+03 0.32000000E+00 0.0000E+00 0.9000E+01
#aMCatNLO 1  0  0  1  2 0.39751417D+02 0.00000000D+00  -5  6  0 0.00000000D+00 0.00000000D+00 0.00000000D+00 0.00000000D+00 0.00000000D+00
  <mgrwgt>
 0.5356309459D-03    5    2    0
 0.603737130328853D+03 0.000000000000000D+00 0.000000000000000D+00 0.603737130328853D+03
 0.603737130328853D+03 0.000000000000000D+00 0.000000000000000D+00 -.603737130328853D+03
 0.524524963867554D+03 -.287782382181742D+03 0.416229140589224D+03 -.586177511545480D+02
 0.162213882193194D+03 0.153792960219612D+02 0.156699635188369D+02 0.160721103385257D+03
 0.520735414596959D+03 0.272403086159781D+03 -.431899104108061D+03 -.102103352230709D+03
 0.000000000000000D+00 -.000000000000000D+00 0.000000000000000D+00 0.000000000000000D+00
 0.103034180928340D+04 0.000000000000000D+00 0.000000000000000D+00 0.103034180928340D+04
 0.824983063554806D+03 0.000000000000000D+00 0.000000000000000D+00 -.824983063554806D+03
 0.363425278495047D+03 -.226289810442918D+03 0.248615795935203D+03 -.586177511545480D+02
 0.171937132455295D+03 0.385200129896158D+02 -.474058334264346D+02 0.160721103385257D+03
 0.773856349224014D+03 0.362056507163910D+03 -.676271868642959D+03 -.102103352230709D+03
 0.546106112663852D+03 -.174286709710608D+03 0.475061906134191D+03 0.205358745728597D+03
0.366361881524D-03 0.000000000000D+00 0.000000000000D+00 0.527184066513D-06 0.000000000000D+00  6 1 -1 25 1 -1 21 0 0.49091131D-01 0.17573814D+00 0.27763559D+06 0.27763559D+06 0.27763559D+06 0.10870500D+01  1  2  2  1  6  1        1 0.808896063985D-03 0.100000000000D+01
0.169292860881D-03 0.000000000000D+00 -.140692609035D-05 0.527184066513D-06 0.000000000000D+00  6 1 -1 25 1 -1 21 2 0.49091131D-01 0.17573814D+00 0.27763559D+06 0.27763559D+06 0.27763559D+06 0.10870500D+01  1  2  3  1  6  1        1 0.441692574309D-03 0.100000000000D+01
-.237224207000D-03 0.000000000000D+00 0.000000000000D+00 0.527184066513D-06 0.000000000000D+00  6 1 -1 25 1 -1 21 2 0.49091131D-01 0.17573814D+00 0.27763559D+06 0.27763559D+06 0.27763559D+06 0.10870500D+01  1  2 15  1  6  1        1 -.618928465930D-03 0.100000000000D+01
-.121035184098D-03 0.000000000000D+00 -.223273888600D-03 0.527184066513D-06 0.000000000000D+00  6 1 -1 25 1 -1 21 2 0.10982920D+00 0.17573814D+00 0.27763559D+06 0.27763559D+06 0.27763559D+06 0.10870500D+01  1  2  5  1  6  1        1 -.101937151196D-03 0.100000000000D+01
0.352723101912D-05 0.000000000000D+00 -.195134654351D-04 0.527184066513D-06 0.000000000000D+00  6 21 -1 25 1 -1 -1 2 0.10982920D+00 0.17573814D+00 0.27763559D+06 0.27763559D+06 0.27763559D+06 0.10870500D+01  1  2  5  5  6  1        1 0.590792469529D-05 0.100000000000D+01
  </mgrwgt>
  </event>
  <event>
  5     66 -.17456057E-05 0.26275166E+02 0.75467711E-02 0.94762343E-01
        1 -1    0    0  502    0 0.00000000E+00 0.00000000E+00 0.53532612E+03 0.53532621E+03 0.32000000E+00 0.0000E+00 0.9000E+01
       -1 -1    0    0    0  501 -.00000000E+00 -.00000000E+00 -.11856185E+04 0.11856186E+04 0.32000000E+00 0.0000E+00 0.9000E+01
       25  1    1    2    0    0 0.12302462E+03 0.46716828E+03 -.40837884E+03 0.64480969E+03 0.12500000E+03 0.0000E+00 0.9000E+01
        1  1    1    2  502    0 -.13348354E+03 -.44306681E+03 0.28834641E+03 0.54522454E+03 0.32000000E+00 0.0000E+00 0.9000E+01
       -1  1    1    2    0  501 0.10458918E+02 -.24101473E+02 -.53025999E+03 0.53091057E+03 0.32000000E+00 0.0000E+00 0.9000E+01
#aMCatNLO 1  0  0  5  2 0.65238154D+00 0.00000000D+00  -5  6  0 0.00000000D+00 0.00000000D+00 0.00000000D+00 0.00000000D+00 0.00000000D+00
  <mgrwgt>
 -.4910070359D-02    9    2    0
 0.796676027554838D+03 0.000000000000000D+00 0.000000000000000D+00 0.796676027554838D+03
 0.796676027554838D+03 -.000000000000000D+00 -.000000000000000D+00 -.796676027554838D+03
 0.529754884859502D+03 0.123021656030331D+03 0.467162846837165D+03 -.177875756400511D+03
 0.706555492203950D+03 -.133481274580449D+03 -.443059304576048D+03 0.533949309886748D+03
 0.357041678046224D+03 0.104596185501179D+02 -.241035422611175D+02 -.356073553486237D+03
 0.000000000000000D+00 0.000000000000000D+00 0.000000000000000D+00 -.000000000000000D+00
 0.796676027554838D+03 0.000000000000000D+00 0.000000000000000D+00 0.796676027554838D+03
 0.796676027554838D+03 -.000000000000000D+00 -.000000000000000D+00 -.796676027554838D+03
 0.529755350352205D+03 0.123021704364977D+03 0.467162735452971D+03 -.177877401841889D+03
 0.706553914715764D+03 -.133481210114679D+03 -.443059453133416D+03 0.533947115298520D+03
 0.498412281567448D+02 0.119870549026722D+01 -.396132342891274D+01 -.496690954821189D+02
 0.307201561884962D+03 0.926080025943481D+01 -.201419588906421D+02 -.306400617974511D+03
0.518423068967D-05 0.000000000000D+00 0.000000000000D+00 0.137967368769D-04 0.000000000000D+00  6 1 -1 25 1 -1 21 0 0.82357875D-01 0.18240286D+00 0.24403815D+06 0.24403815D+06 0.24403815D+06 0.10912486D+01  1  2  2  4  6  5       -1 0.502084523164D-05 0.100000000000D+01
0.271175355773D-05 0.000000000000D+00 -.199088108876D-07 0.137967368769D-04 0.000000000000D+00  6 1 -1 25 1 -1 21 2 0.82357875D-01 0.18240286D+00 0.24403815D+06 0.24403815D+06 0.24403815D+06 0.10912486D+01  1  2  3  4  6  5       -1 0.312744805002D-05 0.100000000000D+01
-.361516530842D-05 0.000000000000D+00 0.000000000000D+00 0.137967368769D-04 0.000000000000D+00  6 1 -1 25 1 -1 21 2 0.82357875D-01 0.18240286D+00 0.24403815D+06 0.24403815D+06 0.24403815D+06 0.10912486D+01  1  2 15  4  6  5       -1 -.416934704930D-05 0.100000000000D+01
0.758119105925D-15 0.000000000000D+00 0.000000000000D+00 0.137967368769D-04 0.000000000000D+00  6 1 -1 25 1 -1 21 2 0.82357875D-01 0.18240286D+00 0.24405420D+06 0.24405420D+06 0.24405420D+06 0.10912464D+01  1  2 12  4  6  5       -1 0.874327005474D-15 0.100000000000D+01
0.484299680779D-09 0.000000000000D+00 0.000000000000D+00 0.137967368769D-04 0.000000000000D+00  6 1 -1 25 1 -1 21 2 0.82357875D-01 0.18240286D+00 0.24405420D+06 0.24405420D+06 0.24405420D+06 0.10912464D+01  1  2 12  4  6  5       -1 0.558535309740D-09 0.100000000000D+01
-.192853436449D-01 0.000000000000D+00 0.000000000000D+00 0.137967368769D-04 0.000000000000D+00  6 1 -1 25 1 -1 21 2 0.82357875D-01 0.18240286D+00 0.24403815D+06 0.24403815D+06 0.24403815D+06 0.10912486D+01  1  2  4  4  6  5       -1 -.222416635923D-01 0.100000000000D+01
-.686529131110D-02 0.000000000000D+00 0.000000000000D+00 0.137967368769D-04 0.000000000000D+00  6 1 -1 25 1 -1 21 2 0.82357875D-01 0.18240286D+00 0.24403815D+06 0.24403815D+06 0.24403815D+06 0.10912486D+01  1  2  5  4  6  5       -1 -.791769659990D-02 0.100000000000D+01
0.147364429589D-01 0.000000000000D+00 -.000000000000D+00 0.137967368769D-04 0.000000000000D+00  6 1 -1 25 1 -1 21 2 0.82357875D-01 0.18240286D+00 0.24403815D+06 0.24403815D+06 0.24403815D+06 0.10912486D+01  1  2  6  4  6  5       -1 0.169954454987D-01 0.100000000000D+01
0.715336494234D-02 0.000000000000D+00 0.000000000000D+00 0.137967368769D-04 0.152660971518D-04  6 1 -1 25 1 -1 21 2 0.82357875D-01 0.18240286D+00 0.24405420D+06 0.24405420D+06 0.24405420D+06 0.10912464D+01  1  2 11  4  6  5       -1 0.824986483023D-02 0.100000000000D+01
  </mgrwgt>
  </event>
  <event>
  6     66 0.17456057E-05 0.18640102E+03 0.75467711E-02 0.92500962E-01
        1 -1    0    0  502    0 0.00000000E+00 0.00000000E+00 0.27581659E+04 0.27581659E+04 0.32000000E+00 0.0000E+00 0.9000E+01
       21 -1    0    0  503  501 0.00000000E+00 0.00000000E+00 -.37633203E+03 0.37633277E+03 0.75000000E+00 0.0000E+00 0.9000E+01
       25  1    1    2    0    0 0.11680664E+03 -.56344123E+03 0.25683255E+02 0.58940176E+03 0.12500000E+03 0.0000E+00 0.9000E+01
        1  1    1    2  502    0 -.13619518E+03 0.15621964E+03 0.19555005E+04 0.19664527E+04 0.32000000E+00 0.0000E+00 0.9000E+01
        1  1    1    2  503    0 0.32455015E+02 0.64706737E+02 0.94673860E+02 0.11917857E+03 0.32000000E+00 0.0000E+00 0.9000E+01
       -1  1    1    2    0  501 -.13066472E+02 0.34251485E+03 0.30597623E+03 0.45946568E+03 0.32000000E+00 0.0000E+00 0.9000E+01
#aMCatNLO 2  0  0  2  1 0.72389846D+02 0.00000000D+00  -5  6  0 0.00000000D+00 0.00000000D+00 0.00000000D+00 0.00000000D+00 0.00000000D+00
  <mgrwgt>
 0.7701904491D-03    2    2    0
 0.981811360337096D+03 0.000000000000000D+00 0.000000000000000D+00 0.981811360337096D+03
 0.981811360337096D+03 0.000000000000000D+00 0.000000000000000D+00 -.981811360337096D+03
 0.858521565270635D+03 0.131130209741049D+03 -.534950059615346D+03 -.646581456465887D+03
 0.744802269458329D+03 -.123906167378740D+03 0.180685852523953D+03 0.711849917449936D+03
 0.000000000000000D+00 0.000000000000000D+00 0.000000000000000D+00 0.000000000000000D+00
 0.360298885945228D+03 -.722404236230865D+01 0.354264207091394D+03 -.652684609840494D+02
 0.102210193311150D+04 0.000000000000000D+00 0.000000000000000D+00 0.102210193311150D+04
 0.101554121507263D+04 0.000000000000000D+00 0.000000000000000D+00 -.101554121507263D+04
 0.874565488628260D+03 0.116812726893277D+03 -.563495342385185D+03 -.646581456465887D+03
 0.741402058461951D+03 -.136184087824463D+03 0.156206918993867D+03 0.711849917449936D+03
 0.726865382387991D+02 0.324550154914142D+02 0.647067368162461D+02 0.656071803886839D+01
 0.348989062855125D+03 -.130836545602272D+02 0.342581686575072D+03 -.652684609840494D+02
-.180689293473D-08 0.000000000000D+00 0.000000000000D+00 0.624980331160D-07 0.000000000000D+00  6 1 21 25 1 1 -1 2 0.40760620D+00 0.59003587D-01 0.36684346D+06 0.36684346D+06 0.36684346D+06 0.10781472D+01  1  2 13  6  5  2       -1 -.696103848008D-08 0.100000000000D+01
0.229027955957D-03 0.000000000000D+00 0.000000000000D+00 0.624980331160D-07 0.149065436715D-10  6 1 21 25 1 1 -1 2 0.42433313D+00 0.57897274D-01 0.36684346D+06 0.36684346D+06 0.36684346D+06 0.10781472D+01  1  2  1  6  5  2       -1 0.770197410183D-03 0.100000000000D+01
  </mgrwgt>
  </event>
  <event>
  5     66 0.17456057E-05 0.10818290E+03 0.75467711E-02 0.92623753E-01
        1 -1    0    0  502    0 0.00000000E+00 0.00000000E+00 0.15561526E+04 0.15561527E+04 0.32000000E+00 0.0000E+00 0.9000E+01
       -1 -1    0    0    0  501 0.00000000E+00 0.00000000E+00 -.34363420E+03 0.34363435E+03 0.32000000E+00 0.0000E+00 0.9000E+01
       25  1    1    2    0    0 -.48109490E+03 0.15984759E+03 0.41860261E+03 0.66922096E+03 0.12500000E+03 0.0000E+00 0.9000E+01
        1  1    1    2  502    0 0.50112406E+03 -.26615205E+03 0.90967237E+03 0.10721316E+04 0.32000000E+00 0.0000E+00 0.9000E+01
       -1  1    1    2    0  501 -.20029164E+02 0.10630445E+03 -.11575653E+03 0.15843447E+03 0.32000000E+00 0.0000E+00 0.9000E+01
#aMCatNLO 1  0  0  2  1 0.72389846D+02 0.00000000D+00  -5  6  0 0.00000000D+00 0.00000000D+00 0.00000000D+00 0.00000000D+00 0.00000000D+00
  <mgrwgt>
 0.2453771842D-03    1    2    0
 0.731264272948582D+03 0.000000000000000D+00 0.000000000000000D+00 0.731264272948582D+03
 0.731264272948582D+03 0.000000000000000D+00 0.000000000000000D+00 -.731264272948582D+03
 0.522240521499341D+03 -.481083929071179D+03 0.159833364740091D+03 -.110322708995644D+02
 0.638487348753604D+03 0.501112751973419D+03 -.266146041794834D+03 0.292777029093771D+03
 0.301800675644219D+03 -.200288229022405D+02 0.106312677054743D+03 -.281744758194206D+03
 0.000000000000000D+00 -.000000000000000D+00 0.000000000000000D+00 0.000000000000000D+00
 0.125550665376148D+04 0.000000000000000D+00 0.000000000000000D+00 0.125550665376148D+04
 0.123875079266651D+04 0.000000000000000D+00 0.000000000000000D+00 -.123875079266651D+04
 0.324378736733539D+03 -.296620719946283D+03 0.386134994813295D+02 -.110322708995644D+02
 0.104768337367716D+04 0.868499224189087D+03 -.507573797883159D+03 0.292777029093771D+03
 0.303793204708608D+03 0.111919262981665D+03 0.196030872786651D+02 -.281744758194206D+03
 0.818402131308681D+03 -.683797767224470D+03 0.449357211123164D+03 0.167558610949689D+02
0.792781122636D-04 0.000000000000D+00 0.000000000000D+00 0.151651446628D-06 0.000000000000D+00  6 1 -1 25 1 -1 21 2 0.23940811D+00 0.52866814D-01 0.35862805D+06 0.35862805D+06 0.35862805D+06 0.10788626D+01  1  2 14  2  6  2       -1 0.245377184170D-03 0.100000000000D+01
  </mgrwgt>
  </event>
  <event>
  5     66 0.17456057E-05 0.12312416E+02 0.75467711E-02 0.83228508E-01
        1 -1    0    0  502    0 0.00000000E+00 0.00000000E+00 0.22905633E+04 0.22905633E+04 0.32000000E+00 0.0000E+00 0.9000E+01
       -1 -1    0    0    0  501 0.00000000E+00 0.00000000E+00 -.62902063E+03 0.62902071E+03 0.32000000E+00 0.0000E+00 0.9000E+01
       25  1    1    2    0    0 -.33932262E+03 -.29631490E+03 0.72125810E+03 0.85952348E+03 0.12500000E+03 0.0000E+00 0.9000E+01
        1  1    1    2  502    0 0.76730307E+01 -.96315250E+01 0.14092326E+04 0.14092864E+04 0.32000000E+00 0.0000E+00 0.9000E+01
       -1  1    1    2    0  501 0.33164959E+03 0.30594643E+03 -.46894800E+03 0.65077415E+03 0.32000000E+00 0.0000E+00 0.9000E+01
#aMCatNLO 1  0  0  1  4 0.41449414D+02 0.00000000D+00  -5  6  0 0.00000000D+00 0.00000000D+00 0.00000000D+00 0.00000000D+00 0.00000000D+00
  <mgrwgt>
 0.2142582484D-01    5    2    0
 0.120033817385288D+04 0.000000000000000D+00 0.000000000000000D+00 0.120033817385288D+04
 0.120033817385288D+04 0.000000000000000D+00 0.000000000000000D+00 -.120033817385288D+04
 0.546215777150659D+03 -.339362584011832D+03 -.296353835647856D+03 0.282372300125054D+03
 0.738442071154421D+03 0.767186441014806D+01 -.963006107096887D+01 0.738339418473017D+03
 0.111601849940068D+04 0.331690719601684D+03 0.305983896718825D+03 -.102071171859807D+04
 0.000000000000000D+00 -.000000000000000D+00 0.000000000000000D+00 0.000000000000000D+00
 0.283768376343218D+04 0.000000000000000D+00 0.000000000000000D+00 0.283768376343218D+04
 0.174413642831321D+04 0.000000000000000D+00 0.000000000000000D+00 -.174413642831321D+04
 0.753401044650200D+03 -.249280683607978D+03 -.640400779966763D+03 0.282372300125054D+03
 0.864654079147476D+03 0.118789191707582D+03 -.434016943965043D+03 0.738339418473017D+03
 0.117128146647529D+04 0.490233087062167D+03 -.299531937486766D+03 -.102071171859807D+04
 0.179248360147242D+04 -.359741595161772D+03 0.137394966141857D+04 0.109354733511897D+04
0.545376881280D-01 0.000000000000D+00 0.000000000000D+00 0.211536444946D-03 0.000000000000D+00  6 1 -1 25 1 -1 21 0 0.35239437D+00 0.96772412D-01 0.21675928D+06 0.21675928D+06 0.21675928D+06 0.10951514D+01  1  2  2  1  6  1        1 0.145572557408D-01 0.100000000000D+01
0.523132541660D-01 0.000000000000D+00 -.209439082514D-03 0.211536444946D-03 0.000000000000D+00  6 1 -1 25 1 -1 21 2 0.35239437D+00 0.96772412D-01 0.21675928D+06 0.21675928D+06 0.21675928D+06 0.10951514D+01  1  2  3  1  6  1        1 0.167472233695D-01 0.100000000000D+01
-.308661767662D-01 0.000000000000D+00 0.000000000000D+00 0.211536444946D-03 0.000000000000D+00  6 1 -1 25 1 -1 21 2 0.35239437D+00 0.96772412D-01 0.21675928D+06 0.21675928D+06 0.21675928D+06 0.10951514D+01  1  2 15  1  6  1        1 -.988129614771D-02 0.100000000000D+01
0.212041175871D-01 0.000000000000D+00 -.225185590256D-01 0.211536444946D-03 0.000000000000D+00  6 1 -1 25 1 -1 21 2 0.85621872D+00 0.96772412D-01 0.21675928D+06 0.21675928D+06 0.21675928D+06 0.10951514D+01  1  2  5  1  6  1        1 0.263229195363D-05 0.100000000000D+01
0.347254396089D-02 0.000000000000D+00 -.219105381878D-02 0.211536444946D-03 0.000000000000D+00  6 21 -1 25 1 -1 -1 2 0.85621872D+00 0.96772412D-01 0.21675928D+06 0.21675928D+06 0.21675928D+06 0.10951514D+01  1  2  5  5  6  1        1 0.958428356956D-08 0.100000000000D+01
  </mgrwgt>
  </event>
  <event>
  6     66 -.17456057E-05 0.11818556E+03 0.75467711E-02 0.94250232E-01
        1 -1    0    0  502    0 0.00000000E+00 0.00000000E+00 0.12469686E+04 0.12469687E+04 0.32000000E+00 0.0000E+00 0.9000E+01
       -1 -1    0    0    0  501 0.00000000E+00 0.00000000E+00 -.34591703E+03 0.34591718E+03 0.32000000E+00 0.0000E+00 0.9000E+01
       25  1    1    2    0    0 -.17452142E+03 -.47784482E+03 0.25939740E+03 0.58455574E+03 0.12500000E+03 0.0000E+00 0.9000E+01
        1  1    1    2  502    0 0.49993242E+02 0.15088573E+03 0.60878714E+03 0.62919608E+03 0.32000000E+00 0.0000E+00 0.9000E+01
       -1  1    1    2    0  503 0.10383388E+03 0.23891505E+03 -.39265846E+02 0.26344598E+03 0.32000000E+00 0.0000E+00 0.9000E+01
       21  1    1    2  503  501 0.20694293E+02 0.88044041E+02 0.72132902E+02 0.11568805E+03 0.75000000E+00 0.0000E+00 0.9000E+01
#aMCatNLO 2  0  0  5  2 0.56006644D+02 0.00000000D+00  -5  6  0 0.00000000D+00 0.00000000D+00 0.00000000D+00 0.00000000D+00 0.00000000D+00
  <mgrwgt>
 -.4609070733D-03    3    2    0
 0.656770765816293D+03 0.000000000000000D+00 0.000000000000000D+00 0.656770765816293D+03
 0.656770765816293D+03 -.000000000000000D+00 -.000000000000000D+00 -.656770765816293D+03
 0.538071708733350D+03 -.177480246193404D+03 -.485610664033579D+03 -.811123229060854D+02
 0.345885466822586D+03 0.480753567455964D+02 0.145844747917087D+03 0.309927129722235D+03
 0.429584356076651D+03 0.129404889447807D+03 0.339765916116493D+03 -.228814806816150D+03
 0.000000000000000D+00 0.000000000000000D+00 0.000000000000000D+00 0.000000000000000D+00
 0.656770765816293D+03 0.000000000000000D+00 0.000000000000000D+00 0.656770765816293D+03
 0.656770765816293D+03 -.000000000000000D+00 -.000000000000000D+00 -.656770765816293D+03
 0.530938079928145D+03 -.174530925808276D+03 -.477866918439034D+03 -.863273358553004D+02
 0.345297801889424D+03 0.499822811965169D+02 0.150851575215473D+03 0.306555289974044D+03
 0.346333526463054D+03 0.103812686557490D+03 0.238810295509537D+03 -.228340711264328D+03
 0.909721233519630D+02 0.207359580542691D+02 0.882050477140234D+02 0.811275714558346D+01
-.918654610713D-07 0.000000000000D+00 0.000000000000D+00 0.157169572844D-06 0.000000000000D+00  6 1 -1 25 1 -1 21 2 0.19184134D+00 0.53218020D-01 0.26718437D+06 0.26718437D+06 0.26718437D+06 0.10882938D+01  1  2 13  4  6  5       -1 -.471475512064D-06 0.100000000000D+01
-.120599058868D-03 0.000000000000D+00 0.000000000000D+00 0.157169572844D-06 0.000000000000D+00  6 1 -1 25 1 -1 21 2 0.19184134D+00 0.53218020D-01 0.26718437D+06 0.26718437D+06 0.26718437D+06 0.10882938D+01  1  2 13  4  6  5       -1 -.618943206415D-03 0.100000000000D+01
0.308846889854D-04 0.000000000000D+00 0.000000000000D+00 0.157169572844D-06 0.770678624422D-10  6 1 -1 25 1 -1 21 2 0.19184134D+00 0.53218020D-01 0.26718437D+06 0.26718437D+06 0.26718437D+06 0.10882938D+01  1  2  1  4  6  5       -1 0.158507608676D-03 0.100000000000D+01
  </mgrwgt>
  </event>
  <event>
  5     66 0.17456057E-05 0.87739367E+02 0.75467711E-02 0.91949901E-01
        1 -1    0    0  502    0 0.00000000E+00 0.00000000E+00 0.11853724E+04 0.11853724E+04 0.32000000E+00 0.0000E+00 0.9000E+01
       -1 -1    0    0    0  501 0.00000000E+00 0.00000000E+00 -.87229420E+03 0.87229426E+03 0.32000000E+00 0.0000E+00 0.9000E+01
       25  1    1    2    0    0 0.52204256E+03 0.17802693E+03 0.53273782E+03 0.77695342E+03 0.12500000E+03 0.0000E+00 0.9000E+01
        1  1    1    2  502    0 0.61763398E+02 -.62386354E+02 0.40706846E+03 0.41642720E+03 0.32000000E+00 0.0000E+00 0.9000E+01
       -1  1    1    2    0  501 -.58380596E+03 -.11564058E+03 -.62672812E+03 0.86428605E+03 0.32000000E+00 0.0000E+00 0.9000E+01
#aMCatNLO 1  0  0  4  5 0.48629490D+02 0.00000000D+00  -5  6  0 0.00000000D+00 0.00000000D+00 0.00000000D+00 0.00000000D+00 0.00000000D+00
  <mgrwgt>
 0.3169177447D-03    7    2    0
 0.101685472938052D+04 0.000000000000000D+00 0.000000000000000D+00 0.101685472938052D+04
 0.101685472938052D+04 -.000000000000000D+00 -.000000000000000D+00 -.101685472938052D+04
 0.704271059855013D+03 0.522159880939766D+03 0.178016753300782D+03 0.419561461564955D+03
 0.358467019836384D+03 0.617290156553320D+02 -.623516251753429D+02 0.347563530558941D+03
 0.970971379069642D+03 -.583888896595098D+03 -.115665128125440D+03 -.767124992123895D+03
 0.000000000000000D+00 0.000000000000000D+00 -.000000000000000D+00 0.000000000000000D+00
 0.101685472938052D+04 0.000000000000000D+00 0.000000000000000D+00 0.101685472938052D+04
 0.101685472938052D+04 -.000000000000000D+00 -.000000000000000D+00 -.101685472938052D+04
 0.707905690060970D+03 0.523103197384113D+03 0.177063922403752D+03 0.424872778947079D+03
 0.247127244889898D+03 0.474854971912461D+02 0.555096528690021D+01 0.242458634632293D+03
 0.964606082200502D+03 -.582595955007841D+03 -.116971110544994D+03 -.759845119958386D+03
 0.114070441609668D+03 0.120072604324817D+02 -.656437771456582D+02 0.925137063790139D+02
0.259888492514D-03 0.000000000000D+00 0.000000000000D+00 0.147072925138D-05 0.000000000000D+00  6 1 -1 25 1 -1 21 0 0.18236499D+00 0.13419912D+00 0.38976898D+06 0.38976898D+06 0.38976898D+06 0.10762398D+01  1  2  2  3  6  4        1 0.168263395515D-03 0.100000000000D+01
0.457117815581D-04 0.000000000000D+00 -.998040241464D-06 0.147072925138D-05 0.000000000000D+00  6 1 -1 25 1 -1 21 2 0.18236499D+00 0.13419912D+00 0.38976898D+06 0.38976898D+06 0.38976898D+06 0.10762398D+01  1  2  3  3  6  4        1 0.342806312943D-04 0.100000000000D+01
-.150674098433D-03 0.000000000000D+00 0.000000000000D+00 0.147072925138D-05 0.000000000000D+00  6 1 -1 25 1 -1 21 2 0.18236499D+00 0.13419912D+00 0.38976898D+06 0.38976898D+06 0.38976898D+06 0.10762398D+01  1  2 15  3  6  4        1 -.112995009993D-03 0.100000000000D+01
0.504882048582D-08 0.000000000000D+00 0.000000000000D+00 0.147072925138D-05 0.000000000000D+00  6 1 -1 25 1 -1 21 2 0.18236499D+00 0.13419912D+00 0.40640094D+06 0.40640094D+06 0.40640094D+06 0.10749309D+01  1  2 12  3  6  4        1 0.376657919134D-08 0.100000000000D+01
-.127641600586D-03 0.000000000000D+00 0.000000000000D+00 0.147072925138D-05 0.000000000000D+00  6 1 -1 25 1 -1 21 2 0.18236499D+00 0.13419912D+00 0.38976898D+06 0.38976898D+06 0.38976898D+06 0.10762398D+01  1  2  4  3  6  4        1 -.957222514274D-04 0.100000000000D+01
-.833004130527D-03 0.000000000000D+00 0.000000000000D+00 0.147072925138D-05 0.000000000000D+00  6 1 -1 25 1 -1 21 2 0.18236499D+00 0.13419912D+00 0.38976898D+06 0.38976898D+06 0.38976898D+06 0.10762398D+01  1  2  5  3  6  4        1 -.624694695588D-03 0.100000000000D+01
0.126382735450D-02 0.000000000000D+00 -.000000000000D+00 0.147072925138D-05 0.000000000000D+00  6 1 -1 25 1 -1 21 2 0.18236499D+00 0.13419912D+00 0.38976898D+06 0.38976898D+06 0.38976898D+06 0.10762398D+01  1  2  6  3  6  4        1 0.947781908349D-03 0.100000000000D+01
  </mgrwgt>
  </event>
  <event>
  5     66 0.17456057E-05 0.60547242E+02 0.75467711E-02 0.95443201E-01
        1 -1    0    0  502    0 0.00000000E+00 0.00000000E+00 0.31339868E+04 0.31339869E+04 0.32000000E+00 0.0000E+00 0.9000E+01
       -1 -1    0    0    0  501 0.00000000E+00 0.00000000E+00 -.53828792E+03 0.53828802E+03 0.32000000E+00 0.0000E+00 0.9000E+01
       25  1    1    2    0    0 -.21154829E+03 0.39908671E+03 0.93074470E+02 0.47781872E+03 0.12500000E+03 0.0000E+00 0.9000E+01
        1  1    1    2  502    0 0.15899287E+03 -.36902677E+03 0.28315936E+04 0.28599618E+04 0.32000000E+00 0.0000E+00 0.9000E+01
       -1  1    1    2    0  501 0.52555422E+02 -.30059935E+02 -.32896911E+03 0.33449432E+03 0.32000000E+00 0.0000E+00 0.9000E+01
#aMCatNLO 1  0  0  1  2 0.60836386D+02 0.00000000D+00  -5  6  0 0.00000000D+00 0.00000000D+00 0.00000000D+00 0.00000000D+00 0.00000000D+00
  <mgrwgt>
 0.7353975164D-02    7    2    0
 0.129884081807100D+04 0.000000000000000D+00 0.000000000000000D+00 0.129884081807100D+04
 0.129884081807100D+04 0.000000000000000D+00 0.000000000000000D+00 -.129884081807100D+04
 0.582460312517611D+03 -.211549575659159D+03 0.399086273734307D+03 -.345849589870234D+03
 0.121361536894392D+04 0.158992102548622D+03 -.369024994077973D+03 0.114516563378832D+04
 0.801605954680478D+03 0.525574731105365D+02 -.300612796563336D+02 -.799316043918086D+03
 0.000000000000000D+00 -.000000000000000D+00 -.000000000000000D+00 0.000000000000000D+00
 0.192541711608663D+04 0.000000000000000D+00 0.000000000000000D+00 0.192541711608663D+04
 0.148665682225676D+04 0.000000000000000D+00 0.000000000000000D+00 -.148665682225676D+04
 0.551442217937073D+03 -.818032118568840D+02 0.402690719336623D+03 -.345849589870234D+03
 0.128033292803890D+04 0.444361183535367D+03 -.361097239504695D+03 0.114516563378832D+04
 0.834885685070545D+03 0.239812403713237D+03 -.248592054606243D+02 -.799316043918086D+03
 0.745413107296868D+03 -.602370375391719D+03 -.167342743713035D+02 0.438760293829873D+03
0.657470661188D-01 0.000000000000D+00 0.000000000000D+00 0.173288154156D-03 0.000000000000D+00  6 1 -1 25 1 -1 21 0 0.48215183D+00 0.82813535D-01 0.21670505D+06 0.21670505D+06 0.21670505D+06 0.10951596D+01  1  2  2  1  6  1        1 0.613230903226D-02 0.100000000000D+01
0.207137731296D-01 0.000000000000D+00 -.252486045496D-03 0.173288154156D-03 0.000000000000D+00  6 1 -1 25 1 -1 21 2 0.48215183D+00 0.82813535D-01 0.21670505D+06 0.21670505D+06 0.21670505D+06 0.10951596D+01  1  2  3  1  6  1        1 0.231719044129D-02 0.100000000000D+01
-.446375159655D-01 0.000000000000D+00 0.000000000000D+00 0.173288154156D-03 0.000000000000D+00  6 1 -1 25 1 -1 21 2 0.48215183D+00 0.82813535D-01 0.21670505D+06 0.21670505D+06 0.21670505D+06 0.10951596D+01  1  2 15  1  6  1        1 -.499347099491D-02 0.100000000000D+01
-.201220523187D-02 0.000000000000D+00 0.000000000000D+00 0.173288154156D-03 0.000000000000D+00  6 1 -1 25 1 -1 21 2 0.48215183D+00 0.82813535D-01 0.21670505D+06 0.21670505D+06 0.21670505D+06 0.10951596D+01  1  2  4  1  6  1        1 -.225099632984D-03 0.100000000000D+01
-.267546472963D-01 0.000000000000D+00 -.289160813422D-01 0.173288154156D-03 0.000000000000D+00  6 1 -1 25 1 -1 21 2 0.72801591D+00 0.82813535D-01 0.21670505D+06 0.21670505D+06 0.21670505D+06 0.10951596D+01  1  2  5  1  6  1        1 -.959652089267D-04 0.100000000000D+01
0.377148889756D-01 0.000000000000D+00 0.266236173213D-01 0.173288154156D-03 0.000000000000D+00  6 1 -1 25 1 -1 21 2 0.48215183D+00 0.82813535D-01 0.21670505D+06 0.21670505D+06 0.21670505D+06 0.10951596D+01  1  2  6  1  6  1        1 0.421905655148D-02 0.100000000000D+01
-.274526495560D-03 0.000000000000D+00 -.140684478106D-02 0.173288154156D-03 0.000000000000D+00  6 21 -1 25 1 -1 -1 2 0.72801591D+00 0.82813535D-01 0.21670505D+06 0.21670505D+06 0.21670505D+06 0.10951596D+01  1  2  5  5  6  1        1 -.450240380847D-07 0.100000000000D+01
  </mgrwgt>
  </event>
  <event>
  5     66 0.17456057E-05 0.20953212E+02 0.75467711E-02 0.90749812E-01
        1 -1    0    0  502    0 0.00000000E+00 0.00000000E+00 0.17246172E+04 0.17246172E+04 0.32000000E+00 0.0000E+00 0.9000E+01
       -1 -1    0    0    0  501 0.00000000E+00 0.00000000E+00 -.94674865E+03 0.94674870E+03 0.32000000E+00 0.0000E+00 0.9000E+01
       25  1    1    2    0    0 -.37024201E+03 0.48736233E+03 -.72134037E+02 0.62883186E+03 0.12500000E+03 0.0000E+00 0.9000E+01
        1  1    1    2  502    0 0.38847440E+03 -.47703952E+03 0.13806288E+04 0.15114943E+04 0.32000000E+00 0.0000E+00 0.9000E+01
       -1  1    1    2    0  501 -.18232396E+02 -.10322812E+02 -.53062620E+03 0.53103977E+03 0.32000000E+00 0.0000E+00 0.9000E+01
#aMCatNLO 1  0  0  5  2 0.75902179D+01 0.00000000D+00  -5  6  0 0.00000000D+00 0.00000000D+00 0.00000000D+00 0.00000000D+00 0.00000000D+00
  <mgrwgt>
 0.3584802561D-03    6    2    0
 0.127780245078445D+04 0.000000000000000D+00 0.000000000000000D+00 0.127780245078445D+04
 0.127780245078445D+04 -.000000000000000D+00 -.000000000000000D+00 -.127780245078445D+04
 0.679242934573670D+03 -.370236015189680D+03 0.487357115492891D+03 -.266747632047908D+03
 0.115971339245778D+04 0.388469513583058D+03 -.477033519716793D+03 0.983089828412985D+03
 0.716648574537445D+03 -.182334983933793D+02 -.103235957760990D+02 -.716342196365077D+03
 0.000000000000000D+00 0.000000000000000D+00 0.000000000000000D+00 -.000000000000000D+00
 0.127780245078445D+04 0.000000000000000D+00 0.000000000000000D+00 0.127780245078445D+04
 0.127780245078445D+04 -.000000000000000D+00 -.000000000000000D+00 -.127780245078445D+04
 0.684913164041998D+03 -.370592490249473D+03 0.487155283439482D+03 -.280752521387988D+03
 0.113970861786706D+04 0.387868639094096D+03 -.477373727898590D+03 0.959483181905726D+03
 0.616985386455222D+03 -.548391283429240D+00 -.984616921789270D+02 -.609077960149243D+03
 0.113997733204613D+03 -.167277575611941D+02 0.886801366380347D+02 -.696527003684958D+02
0.100728641068D-02 0.000000000000D+00 0.000000000000D+00 0.549718732858D-04 0.000000000000D+00  6 1 -1 25 1 -1 21 0 0.26532573D+00 0.14565364D+00 0.39742007D+06 0.39742007D+06 0.39742007D+06 0.10756303D+01  1  2  2  4  6  5       -1 0.222680542467D-03 0.100000000000D+01
0.810009826716D-03 0.000000000000D+00 -.386824504160D-05 0.549718732858D-04 0.000000000000D+00  6 1 -1 25 1 -1 21 2 0.26532573D+00 0.14565364D+00 0.39742007D+06 0.39742007D+06 0.39742007D+06 0.10756303D+01  1  2  3  4  6  5       -1 0.207178941696D-03 0.100000000000D+01
-.680839109542D-03 0.000000000000D+00 0.000000000000D+00 0.549718732858D-04 0.000000000000D+00  6 1 -1 25 1 -1 21 2 0.26532573D+00 0.14565364D+00 0.39742007D+06 0.39742007D+06 0.39742007D+06 0.10756303D+01  1  2 15  4  6  5       -1 -.174140512284D-03 0.100000000000D+01
-.586847963514D-04 0.000000000000D+00 0.000000000000D+00 0.549718732858D-04 0.000000000000D+00  6 1 -1 25 1 -1 21 2 0.26532573D+00 0.14565364D+00 0.39742007D+06 0.39742007D+06 0.39742007D+06 0.10756303D+01  1  2  4  4  6  5       -1 -.150100080279D-04 0.100000000000D+01
-.268430466639D-02 0.000000000000D+00 0.000000000000D+00 0.549718732858D-04 0.000000000000D+00  6 1 -1 25 1 -1 21 2 0.26532573D+00 0.14565364D+00 0.39742007D+06 0.39742007D+06 0.39742007D+06 0.10756303D+01  1  2  5  4  6  5       -1 -.686573645936D-03 0.100000000000D+01
0.314475640575D-02 0.000000000000D+00 -.000000000000D+00 0.549718732858D-04 0.000000000000D+00  6 1 -1 25 1 -1 21 2 0.26532573D+00 0.14565364D+00 0.39742007D+06 0.39742007D+06 0.39742007D+06 0.10756303D+01  1  2  6  4  6  5       -1 0.804344938228D-03 0.100000000000D+01
  </mgrwgt>
  </event>
  <event>
  6     66 0.17456057E-05 0.19557874E+03 0.75467711E-02 0.93446708E-01
        1 -1    0    0  502    0 0.00000000E+00 0.00000000E+00 0.14116436E+04 0.14116436E+04 0.32000000E+00 0.0000E+00 0.9000E+01
       -1 -1    0    0    0  503 0.00000000E+00 0.00000000E+00 -.22090774E+04 0.22090774E+04 0.32000000E+00 0.0000E+00 0.9000E+01
       25  1    1    2    0    0 -.36678529E+03 0.26191823E+03 -.82838864E+03 0.95130718E+03 0.12500000E+03 0.0000E+00 0.9000E+01
        1  1    1    2  502    0 0.21424153E+03 -.38668252E+03 0.13046358E+04 0.13774968E+04 0.32000000E+00 0.0000E+00 0.9000E+01
       -1  1    1    2    0  501 0.15044622E+03 0.12791549E+03 -.10621808E+04 0.10803817E+04 0.32000000E+00 0.0000E+00 0.9000E+01
       21  1    1    2  501  503 0.20975385E+01 -.31511991E+01 -.21150015E+03 0.21153535E+03 0.75000000E+00 0.0000E+00 0.9000E+01
#aMCatNLO 2  0  0  2  5 0.13786411D+03 0.00000000D+00  -5  6  0 0.00000000D+00 0.00000000D+00 0.00000000D+00 0.00000000D+00 0.00000000D+00
  <mgrwgt>
 0.7770077028D-02    1    2    0
 0.167922709579449D+04 0.000000000000000D+00 0.000000000000000D+00 0.167922709579449D+04
 0.167922709579449D+04 0.000000000000000D+00 0.000000000000000D+00 -.167922709579449D+04
 0.820688045234793D+03 -.366269390874261D+03 0.261150081856681D+03 -.674945357526187D+03
 0.162641694651961D+04 0.215257414793170D+03 -.388208801022861D+03 0.156466937597408D+04
 0.911349199834583D+03 0.151011976081091D+03 0.127058719166180D+03 -.889724018447894D+03
 0.000000000000000D+00 0.000000000000000D+00 -.000000000000000D+00 -.000000000000000D+00
 0.167924831007876D+04 0.000000000000000D+00 0.000000000000000D+00 0.167924831007876D+04
 0.185703752389397D+04 0.000000000000000D+00 0.000000000000000D+00 -.185703752389397D+04
 0.821162355972806D+03 -.366782103438948D+03 0.261920346322230D+03 -.674945357526187D+03
 0.162591928775372D+04 0.214241784105581D+03 -.386682986594557D+03 0.156466937597408D+04
 0.911374681242594D+03 0.150442780839494D+03 0.127913839361704D+03 -.889724018447894D+03
 0.177829509003608D+03 0.209753849387293D+01 -.315119908937677D+01 -.177789213815209D+03
0.817133748407D+00 0.000000000000D+00 0.000000000000D+00 0.102070241807D-04 0.439868801422D-05  6 1 -1 25 1 -1 21 2 0.21717584D+00 0.33985791D+00 0.30860134D+06 0.30860134D+06 0.30860134D+06 0.10836448D+01  1  2  1  2  6  2       -1 0.777007702808D-02 0.100000000000D+01
  </mgrwgt>
  </event>
  <event>
  5     66 -.17456057E-05 0.43367873E+02 0.75467711E-02 0.89541276E-01
        1 -1    0    0  502    0 0.00000000E+00 0.00000000E+00 0.15667686E+04 0.15667686E+04 0.32000000E+00 0.0000E+00 0.9000E+01
       -1 -1    0    0    0  501 0.00000000E+00 0.00000000E+00 -.90423852E+03 0.90423858E+03 0.32000000E+00 0.0000E+00 0.9000E+01
       25  1    1    2    0    0 -.76075283E+03 -.22524292E+03 -.11436165E+03 0.81128467E+03 0.12500000E+03 0.0000E+00 0.9000E+01
        1  1    1    2  502    0 0.72076090E+03 0.24201043E+03 0.10980873E+04 0.13356127E+04 0.32000000E+00 0.0000E+00 0.9000E+01
       -1  1    1    2    0  501 0.39991926E+02 -.16767511E+02 -.32119559E+03 0.32410988E+03 0.32000000E+00 0.0000E+00 0.9000E+01
#aMCatNLO 1  0  0  5  2 0.48471009D+02 0.00000000D+00  -5  6  0 0.00000000D+00 0.00000000D+00 0.00000000D+00 0.00000000D+00 0.00000000D+00
  <mgrwgt>
 -.1273759765D-03    1    2    0
 0.119026577957065D+04 0.000000000000000D+00 0.000000000000000D+00 0.119026577957065D+04
 0.119026577957065D+04 -.000000000000000D+00 -.000000000000000D+00 -.119026577957065D+04
 0.873921958098361D+03 -.760746918227120D+03 -.225238976237267D+03 -.344450459192611D+03
 0.108075058203616D+04 0.720752035739382D+03 0.242007450925647D+03 0.768095513100752D+03
 0.425859019006776D+03 0.399948824877371D+02 -.167684746883795D+02 -.423645053908140D+03
 0.000000000000000D+00 0.000000000000000D+00 0.000000000000000D+00 0.000000000000000D+00
 0.119026577957065D+04 0.000000000000000D+00 0.000000000000000D+00 0.119026577957065D+04
 0.119026577957065D+04 -.000000000000000D+00 -.000000000000000D+00 -.119026577957065D+04
 0.906283795867245D+03 -.752409407359405D+03 -.228734606959328D+03 -.432765389036337D+03
 0.101555514177703D+04 0.730569986116978D+03 0.237891122981716D+03 0.664099055097427D+03
 0.120340807321443D+03 -.623395838689393D+02 -.397573727235525D+02 0.949475513320099D+02
 0.338351814175583D+03 0.841790051113666D+02 0.306008567011643D+02 -.326281217393100D+03
-.366618761289D-03 0.000000000000D+00 0.000000000000D+00 0.407861209910D-05 0.000000000000D+00  6 1 -1 25 1 -1 21 2 0.24104133D+00 0.13911363D+00 0.64548506D+06 0.64548506D+06 0.64548506D+06 0.10607586D+01  1  2 14  4  6  5       -1 -.127375976519D-03 0.100000000000D+01
  </mgrwgt>
  </event>
  <event>
  5     66 0.17456057E-05 0.26540166E+03 0.75467711E-02 0.93336193E-01
        1 -1    0    0  502    0 0.00000000E+00 0.00000000E+00 0.20304656E+04 0.20304656E+04 0.32000000E+00 0.0000E+00 0.9000E+01
       -1 -1    0    0    0  501 0.00000000E+00 0.00000000E+00 -.11873864E+04 0.11873864E+04 0.32000000E+00 0.0000E+00 0.9000E+01
       25  1    1    2    0    0 0.44374027E+03 -.33170432E+03 -.54807925E+03 0.78927122E+03 0.12500000E+03 0.0000E+00 0.9000E+01
        1  1    1    2  502    0 -.23605313E+03 0.16648924E+03 0.18640567E+04 0.18863052E+04 0.32000000E+00 0.0000E+00 0.9000E+01
       -1  1    1    2    0  501 -.20768715E+03 0.16521508E+03 -.47289825E+03 0.54227560E+03 0.32000000E+00 0.0000E+00 0.9000E+01
#aMCatNLO 1  0  0  2  5 0.13786411D+03 0.00000000D+00  -5  6  0 0.00000000D+00 0.00000000D+00 0.00000000D+00 0.00000000D+00 0.00000000D+00
  <mgrwgt>
 0.4363027688D-03    5    4    0
 0.155272253338523D+04 0.000000000000000D+00 0.000000000000000D+00 0.155272253338523D+04
 0.155272253338523D+04 0.000000000000000D+00 0.000000000000000D+00 -.155272253338523D+04
 0.966617477108969D+03 0.443750829788600D+03 -.331712616836449D+03 -.782161292794494D+03
 0.144851240455336D+04 -.236051671210253D+03 0.166488219206437D+03 0.141941870761564D+04
 0.690315185108142D+03 -.207699158578347D+03 0.165224397630012D+03 -.637257414821149D+03
 0.000000000000000D+00 -.000000000000000D+00 -.000000000000000D+00 -.000000000000000D+00
 0.390186266716714D+04 0.000000000000000D+00 0.000000000000000D+00 0.390186266716714D+04
 0.661231572080711D+04 0.000000000000000D+00 0.000000000000000D+00 -.661231572080711D+04
 0.194768602595294D+04 0.171468168934245D+04 0.475338060731637D+03 -.782161292794494D+03
 0.234803335349006D+04 0.141962597476455D+04 0.121785600681949D+04 0.141941870761564D+04
 0.107061436138243D+04 0.560244090909454D+03 0.652874150701969D+03 -.637257414821149D+03
 0.514784464714882D+04 -.369455175501646D+04 -.234606821825310D+04 -.271045305363998D+04
 0.155272253338523D+04 0.000000000000000D+00 0.000000000000000D+00 0.155272253338523D+04
 0.155272253338523D+04 0.000000000000000D+00 0.000000000000000D+00 -.155272253338523D+04
 0.966617477108969D+03 0.443750829788600D+03 -.331712616836449D+03 -.782161292794494D+03
 0.144851240455336D+04 -.236051671210253D+03 0.166488219206437D+03 0.141941870761564D+04
 0.000000000000000D+00 -.000000000000000D+00 -.000000000000000D+00 -.000000000000000D+00
 0.690315185108142D+03 -.207699158578347D+03 0.165224397630012D+03 -.637257414821149D+03
 0.390186266716714D+04 0.000000000000000D+00 0.000000000000000D+00 0.390186266716714D+04
 0.661231572080711D+04 0.000000000000000D+00 0.000000000000000D+00 -.661231572080711D+04
 0.194768602595294D+04 0.171468168934245D+04 0.475338060731637D+03 -.782161292794494D+03
 0.234803335349006D+04 0.141962597476455D+04 0.121785600681949D+04 0.141941870761564D+04
 0.514784464714882D+04 -.369455175501646D+04 -.234606821825310D+04 -.271045305363998D+04
 0.107061436138243D+04 0.560244090909454D+03 0.652874150701969D+03 -.637257414821149D+03
0.167830176828D-01 0.000000000000D+00 0.000000000000D+00 0.602752673375D-05 0.000000000000D+00  6 1 -1 25 1 -1 21 0 0.31237933D+00 0.18267483D+00 0.31484131D+06 0.31484131D+06 0.31484131D+06 0.10830038D+01  1  2  2  2  6  2       -1 0.117518724734D-02 0.100000000000D+01
0.115900706040D-02 0.000000000000D+00 -.644512069719D-04 0.602752673375D-05 0.000000000000D+00  6 1 -1 25 1 -1 21 2 0.31237933D+00 0.18267483D+00 0.31484131D+06 0.31484131D+06 0.31484131D+06 0.10830038D+01  1  2  3  2  6  2       -1 0.951881850134D-04 0.100000000000D+01
-.101651076586D-01 0.000000000000D+00 0.000000000000D+00 0.602752673375D-05 0.000000000000D+00  6 1 -1 25 1 -1 21 2 0.31237933D+00 0.18267483D+00 0.31484131D+06 0.31484131D+06 0.31484131D+06 0.10830038D+01  1  2 15  2  6  2       -1 -.834850952632D-03 0.100000000000D+01
0.358928000790D-01 0.000000000000D+00 -.122080235350D-01 0.602752673375D-05 0.000000000000D+00  6 1 -1 25 1 -1 21 2 0.31237933D+00 0.85879103D+00 0.31484131D+06 0.31484131D+06 0.31484131D+06 0.10830038D+01  1  2  5  2  6  2       -1 0.774000107126D-06 0.100000000000D+01
0.653750011633D-02 0.000000000000D+00 -.229328859785D-02 0.602752673375D-05 0.000000000000D+00  6 1 21 25 1 1 -1 2 0.31237933D+00 0.85879103D+00 0.31484131D+06 0.31484131D+06 0.31484131D+06 0.10830038D+01  3  4  5  6  5  2       -1 0.428893633105D-08 0.100000000000D+01
  </mgrwgt>
  </event>
  <event>
  5     66 -.17456057E-05 0.14616879E+02 0.75467711E-02 0.93995815E-01
        1 -1    0    0  502    0 0.00000000E+00 0.00000000E+00 0.12090668E+04 0.12090669E+04 0.32000000E+00 0.0000E+00 0.9000E+01
       -1 -1    0    0    0  501 0.00000000E+00 0.00000000E+00 -.64562676E+03 0.64562684E+03 0.32000000E+00 0.0000E+00 0.9000E+01
       25  1    1    2    0    0 -.43051896E+02 -.50733101E+03 0.86681488E+02 0.53139147E+03 0.12500000E+03 0.0000E+00 0.9000E+01
        1  1    1    2  502    0 0.42266653E+02 0.52192544E+03 0.82370138E+03 0.97605159E+03 0.32000000E+00 0.0000E+00 0.9000E+01
       -1  1    1    2    0  501 0.78524295E+00 -.14594438E+02 -.34694279E+03 0.34725065E+03 0.32000000E+00 0.0000E+00 0.9000E+01
#aMCatNLO 1  0  0  4  4 0.23809338D+02 0.00000000D+00  -5  6  0 0.00000000D+00 0.00000000D+00 0.00000000D+00 0.00000000D+00 0.00000000D+00
  <mgrwgt>
 -.7099123619D-02    6    2    0
 0.883519106042341D+03 0.000000000000000D+00 0.000000000000000D+00 0.883519106042341D+03
 0.883519106042341D+03 -.000000000000000D+00 -.000000000000000D+00 -.883519106042341D+03
 0.530086005623510D+03 -.430507125204389D+02 -.507313910156052D+03 -.783926404169895D+02
 0.761799931438143D+03 0.422653763157831D+02 0.521909677060014D+03 0.553320036231435D+03
 0.475152275023029D+03 0.785336204655756D+00 -.145957669039617D+02 -.474927395814446D+03
 0.000000000000000D+00 0.000000000000000D+00 0.000000000000000D+00 0.000000000000000D+00
 0.883519106042341D+03 0.000000000000000D+00 0.000000000000000D+00 0.883519106042341D+03
 0.883519106042341D+03 -.000000000000000D+00 -.000000000000000D+00 -.883519106042341D+03
 0.528564739189320D+03 -.429406457627082D+02 -.505954762054470D+03 -.769516940044842D+02
 0.715929611112737D+03 0.428920537354830D+02 0.507253988542735D+03 0.503397329057151D+03
 0.473825430825660D+03 0.884000376719342D+00 -.133774224653752D+02 -.473635727124379D+03
 0.487184309569654D+02 -.835408349494128D+00 0.120781959771098D+02 0.471900920717128D+02
0.351937994749D-03 0.000000000000D+00 0.000000000000D+00 0.173823302946D-04 0.000000000000D+00  6 1 -1 25 1 -1 21 0 0.18601029D+00 0.99327203D-01 0.28222257D+06 0.28222257D+06 0.28222257D+06 0.10865201D+01  1  2  2  3  6  4        1 0.463795839381D-03 0.100000000000D+01
0.308106717011D-03 0.000000000000D+00 -.135153456724D-05 0.173823302946D-04 0.000000000000D+00  6 1 -1 25 1 -1 21 2 0.18601029D+00 0.99327203D-01 0.28222257D+06 0.28222257D+06 0.28222257D+06 0.10865201D+01  1  2  3  3  6  4        1 0.479333074295D-03 0.100000000000D+01
-.248876664616D-03 0.000000000000D+00 0.000000000000D+00 0.173823302946D-04 0.000000000000D+00  6 1 -1 25 1 -1 21 2 0.18601029D+00 0.99327203D-01 0.28222257D+06 0.28222257D+06 0.28222257D+06 0.10865201D+01  1  2 15  3  6  4        1 -.387186679757D-03 0.100000000000D+01
-.556828494970D-02 0.000000000000D+00 0.000000000000D+00 0.173823302946D-04 0.000000000000D+00  6 1 -1 25 1 -1 21 2 0.18601029D+00 0.99327203D-01 0.28222257D+06 0.28222257D+06 0.28222257D+06 0.10865201D+01  1  2  4  3  6  4        1 -.866278791120D-02 0.100000000000D+01
-.981548951269D-02 0.000000000000D+00 0.000000000000D+00 0.173823302946D-04 0.000000000000D+00  6 1 -1 25 1 -1 21 2 0.18601029D+00 0.99327203D-01 0.28222257D+06 0.28222257D+06 0.28222257D+06 0.10865201D+01  1  2  5  3  6  4        1 -.152703219503D-01 0.100000000000D+01
0.104632352070D-01 0.000000000000D+00 -.000000000000D+00 0.173823302946D-04 0.000000000000D+00  6 1 -1 25 1 -1 21 2 0.18601029D+00 0.99327203D-01 0.28222257D+06 0.28222257D+06 0.28222257D+06 0.10865201D+01  1  2  6  3  6  4        1 0.162780440086D-01 0.100000000000D+01
  </mgrwgt>
  </event>
  <event>
  6     66 0.17456057E-05 0.11714609E+03 0.75467711E-02 0.93693429E-01
        1 -1    0    0  502    0 0.00000000E+00 0.00000000E+00 0.31896260E+04 0.31896261E+04 0.32000000E+00 0.0000E+00 0.9000E+01
       -1 -1    0    0    0  501 0.00000000E+00 0.00000000E+00 -.91964805E+03 0.91964811E+03 0.32000000E+00 0.0000E+00 0.9000E+01
       25  1    1    2    0    0 -.20700411E+03 0.42262073E+03 0.54550986E+03 0.73120790E+03 0.12500000E+03 0.0000E+00 0.9000E+01
        1  1    1    2  503    0 0.20732060E+02 -.39196103E+02 0.79846282E+03 0.79969315E+03 0.32000000E+00 0.0000E+00 0.9000E+01
       -1  1    1    2    0  501 0.50107490E+02 -.41281058E+03 -.77082237E+03 0.87583706E+03 0.32000000E+00 0.0000E+00 0.9000E+01
       21  1    1    2  502  503 0.13616456E+03 0.29385955E+02 0.16968277E+04 0.17025361E+04 0.75000000E+00 0.0000E+00 0.9000E+01
#aMCatNLO 2  0  0  4  5 0.46469393D+02 0.00000000D+00  -5  6  0 0.00000000D+00 0.00000000D+00 0.00000000D+00 0.00000000D+00 0.00000000D+00
  <mgrwgt>
 0.7380515573D-03    2    2    0
 0.171269773682699D+04 0.000000000000000D+00 0.000000000000000D+00 0.171269773682699D+04
 0.171269773682699D+04 -.000000000000000D+00 -.000000000000000D+00 -.171269773682699D+04
 0.515710439814636D+03 -.207064262463458D+03 0.422748267828598D+03 0.169530383684426D+03
 0.134651939722221D+04 0.157133216729506D+03 -.982494089179895D+01 0.133728348147742D+04
 0.156316563661713D+04 0.499310457339530D+02 -.412923326936799D+03 -.150681386516185D+04
 0.000000000000000D+00 0.000000000000000D+00 0.000000000000000D+00 0.000000000000000D+00
 0.171269773682699D+04 0.000000000000000D+00 0.000000000000000D+00 0.171269773682699D+04
 0.171269773682699D+04 -.000000000000000D+00 -.000000000000000D+00 -.171269773682699D+04
 0.515863101997693D+03 -.206999277297118D+03 0.422744204553936D+03 0.170083440455598D+03
 0.429775593273158D+03 0.207036851813094D+02 -.391644166151468D+02 0.427486334827680D+03
 0.156156039704459D+04 0.501278914583103D+02 -.412935634949369D+03 -.150513860807069D+04
 0.918196381338527D+03 0.136167700657499D+03 0.293558470105797D+02 0.907568832787412D+03
-.400186864132D-09 0.000000000000D+00 0.000000000000D+00 0.716556176138D-04 0.000000000000D+00  6 1 -1 25 1 -1 21 2 0.49071171D+00 0.14148432D+00 0.29516463D+06 0.29516463D+06 0.29516463D+06 0.10850744D+01  1  2 13  3  6  4        1 -.109590540931D-10 0.100000000000D+01
0.269510981660D-01 0.000000000000D+00 0.000000000000D+00 0.716556176138D-04 0.185464543097D-07  6 1 -1 25 1 -1 21 2 0.49071171D+00 0.14148432D+00 0.29516463D+06 0.29516463D+06 0.29516463D+06 0.10850744D+01  1  2  1  3  6  4        1 0.738051568261D-03 0.100000000000D+01
  </mgrwgt>
  </event>
  <event>
  6     66 0.17456057E-05 0.10967967E+02 0.75467711E-02 0.93312172E-01
        1 -1    0    0  503    0 0.00000000E+00 0.00000000E+00 0.19174281E+04 0.19174281E+04 0.32000000E+00 0.0000E+00 0.9000E+01
       -1 -1    0    0    0  501 0.00000000E+00 0.00000000E+00 -.83244118E+03 0.83244124E+03 0.32000000E+00 0.0000E+00 0.9000E+01
       25  1    1    2    0    0 -.50986596E+02 -.53580182E+03 -.35776637E+02 0.55370406E+03 0.12500000E+03 0.0000E+00 0.9000E+01
        1  1    1    2  502    0 0.60757912E+02 0.52951535E+03 0.11904416E+04 0.13043118E+04 0.32000000E+00 0.0000E+00 0.9000E+01
       -1  1    1    2    0  501 0.29012780E+01 0.20149828E+02 -.48033510E+03 0.48076641E+03 0.32000000E+00 0.0000E+00 0.9000E+01
       21  1    1    2  503  502 -.12672594E+02 -.13863358E+02 0.41065706E+03 0.41108706E+03 0.75000000E+00 0.0000E+00 0.9000E+01
#aMCatNLO 2  0  0  1  4 0.17487502D+02 0.00000000D+00  -5  6  0 0.00000000D+00 0.00000000D+00 0.00000000D+00 0.00000000D+00 0.00000000D+00
  <mgrwgt>
 0.2427126452D-02    1    2    0
 0.111969070638481D+04 0.000000000000000D+00 0.000000000000000D+00 0.111969070638481D+04
 0.111969070638481D+04 0.000000000000000D+00 0.000000000000000D+00 -.111969070638481D+04
 0.592632832147124D+03 -.543291307186541D+02 -.539451867966786D+03 -.204031128608412D+03
 0.100009831328801D+04 0.550872893960058D+02 0.523303916137505D+03 0.850479299068278D+03
 0.646650267334491D+03 -.758158677351616D+00 0.161479518292805D+02 -.646448170459866D+03
 0.000000000000000D+00 -.000000000000000D+00 -.000000000000000D+00 0.000000000000000D+00
 0.142510533039958D+04 0.000000000000000D+00 0.000000000000000D+00 0.142510533039958D+04
 0.112001890477384D+04 0.000000000000000D+00 0.000000000000000D+00 -.112001890477384D+04
 0.589006640995697D+03 -.509857578217595D+02 -.535794339457924D+03 -.204031128608412D+03
 0.100368484996971D+04 0.607568649912347D+02 0.529506225904375D+03 0.850479299068278D+03
 0.646768689344281D+03 0.290148707956269D+01 0.201514713591189D+02 -.646448170459866D+03
 0.305664054863726D+03 -.126725942490379D+02 -.138633578055706D+02 0.305086425625738D+03
0.873959705094D-02 0.000000000000D+00 0.000000000000D+00 0.634531960355D-04 0.914388616589D-06  6 1 -1 25 1 -1 21 2 0.29498882D+00 0.12806783D+00 0.31621623D+06 0.31621623D+06 0.31621623D+06 0.10828644D+01  1  2  1  1  6  1        1 0.242712645194D-02 0.100000000000D+01
  </mgrwgt>
  </event>
  <event>
  6     66 0.17456057E-05 0.87659206E+02 0.75467711E-02 0.93815629E-01
        1 -1    0    0  502    0 0.00000000E+00 0.00000000E+00 0.31141953E+04 0.31141953E+04 0.32000000E+00 0.0000E+00 0.9000E+01
       21 -1    0    0  503  501 0.00000000E+00 0.00000000E+00 -.39457796E+03 0.39457868E+03 0.75000000E+00 0.0000E+00 0.9000E+01
       25  1    1    2    0    0 0.57839564E+01 0.51222480E+03 0.68575001E+03 0.86503513E+03 0.12500000E+03 0.0000E+00 0.9000E+01
        1  1    1    2  502    0 0.13502458E+02 -.95185714E+02 0.21517816E+04 0.21539283E+04 0.32000000E+00 0.0000E+00 0.9000E+01
        1  1    1    2  503    0 -.16447218E+01 0.16858216E+02 0.27118913E+02 0.31975653E+02 0.32000000E+00 0.0000E+00 0.9000E+01
       -1  1    1    2    0  501 -.17641692E+02 -.43389730E+03 -.14503323E+03 0.45783494E+03 0.32000000E+00 0.0000E+00 0.9000E+01
#aMCatNLO 2  0  0  2  1 0.16938257D+02 0.00000000D+00  -5  6  0 0.00000000D+00 0.00000000D+00 0.00000000D+00 0.00000000D+00 0.00000000D+00
  <mgrwgt>
 0.2108091949D-03    2    2    0
 0.109980589382778D+04 0.000000000000000D+00 0.000000000000000D+00 0.109980589382778D+04
 0.109980589382778D+04 0.000000000000000D+00 0.000000000000000D+00 -.109980589382778D+04
 0.531871095012381D+03 0.539101096829001D+01 0.516334008078504D+03 0.251394274397101D+02
 0.769816367267458D+03 0.129251354262289D+02 -.892728507826771D+02 0.764513268884337D+03
 0.000000000000000D+00 -.000000000000000D+00 0.000000000000000D+00 0.000000000000000D+00
 0.897924325375715D+03 -.183161463945189D+02 -.427061157295827D+03 -.789652696324047D+03
 0.111037217483869D+04 0.000000000000000D+00 0.000000000000000D+00 0.111037217483869D+04
 0.110664772600186D+04 0.000000000000000D+00 0.000000000000000D+00 -.110664772600186D+04
 0.527933619752302D+03 0.578723045012548D+01 0.512272802339231D+03 0.251394274397101D+02
 0.770533059053187D+03 0.135010117580094D+02 -.951755193059512D+02 0.764513268884337D+03
 0.173428970618980D+02 -.164472180686013D+01 0.168582160841379D+02 0.372444883682717D+01
 0.901210324973163D+03 -.176435204012747D+02 -.433955499117418D+03 -.789652696324047D+03
-.263434816632D-10 0.000000000000D+00 0.000000000000D+00 0.247422292670D-04 0.000000000000D+00  6 1 21 25 1 1 -1 2 0.47454722D+00 0.60991804D-01 0.28875327D+06 0.28875327D+06 0.28875327D+06 0.10857817D+01  1  2 13  6  5  2       -1 -.471515372865D-10 0.100000000000D+01
0.122704617182D-03 0.000000000000D+00 0.000000000000D+00 0.247422292670D-04 0.241964791443D-09  6 1 21 25 1 1 -1 2 0.47910639D+00 0.60704277D-01 0.28875327D+06 0.28875327D+06 0.28875327D+06 0.10857817D+01  1  2  1  6  5  2       -1 0.210809242003D-03 0.100000000000D+01
  </mgrwgt>
  </event>
  <event>
  5     66 0.17456057E-05 0.15740022E+03 0.75467711E-02 0.89839588E-01
        1 -1    0    0  502    0 0.00000000E+00 0.00000000E+00 0.82035285E+03 0.82035291E+03 0.32000000E+00 0.0000E+00 0.9000E+01
       -1 -1    0    0    0  501 0.00000000E+00 0.00000000E+00 -.12804838E+04 0.12804839E+04 0.32000000E+00 0.0000E+00 0.9000E+01
       25  1    1    2    0    0 -.64542879E+03 -.39017260E+03 0.25171385E+03 0.80485890E+03 0.12500000E+03 0.0000E+00 0.9000E+01
        1  1    1    2  502    0 0.55537968E+03 0.26110694E+03 -.50056364E+02 0.61573465E+03 0.32000000E+00 0.0000E+00 0.9000E+01
       -1  1    1    2    0  501 0.90049115E+02 0.12906566E+03 -.66178846E+03 0.68024323E+03 0.32000000E+00 0.0000E+00 0.9000E+01
#aMCatNLO 1  0  0  2  5 0.21839616D+02 0.00000000D+00  -5  6  0 0.00000000D+00 0.00000000D+00 0.00000000D+00 0.00000000D+00 0.00000000D+00
  <mgrwgt>
 0.6477652640D-04   11    4    0
 0.102491397739235D+04 0.000000000000000D+00 0.000000000000000D+00 0.102491397739235D+04
 0.102491397739235D+04 0.000000000000000D+00 0.000000000000000D+00 -.102491397739235D+04
 0.881382437867889D+03 -.645342798838263D+03 -.390144598061847D+03 0.438782253940039D+03
 0.619706613885528D+03 0.555277649283059D+03 0.261058970723609D+03 0.868978325672009D+02
 0.548738903031275D+03 0.900651495552044D+02 0.129085627338238D+03 -.525680086507240D+03
 0.000000000000000D+00 -.000000000000000D+00 -.000000000000000D+00 -.000000000000000D+00
 0.102512792906625D+04 0.000000000000000D+00 0.000000000000000D+00 0.102512792906625D+04
 0.179041729353404D+04 0.000000000000000D+00 0.000000000000000D+00 -.179041729353404D+04
 0.873943969553447D+03 -.639637624751076D+03 -.382736076884500D+03 0.438782253940039D+03
 0.625555133726130D+03 0.559325007668487D+03 0.266314715746026D+03 0.868978325672009D+02
 0.550445191824958D+03 0.936377253385510D+02 0.133724837806511D+03 -.525680086507240D+03
 0.765600927495746D+03 -.133251082559617D+02 -.173034766680367D+02 -.765289364467789D+03
 0.102491397739235D+04 0.000000000000000D+00 0.000000000000000D+00 0.102491397739235D+04
 0.102491397739235D+04 0.000000000000000D+00 0.000000000000000D+00 -.102491397739235D+04
 0.881382437867889D+03 -.645342798838263D+03 -.390144598061847D+03 0.438782253940039D+03
 0.619706613885528D+03 0.555277649283059D+03 0.261058970723609D+03 0.868978325672009D+02
 0.000000000000000D+00 -.000000000000000D+00 -.000000000000000D+00 -.000000000000000D+00
 0.548738903031275D+03 0.900651495552044D+02 0.129085627338238D+03 -.525680086507240D+03
 0.102512792906625D+04 0.000000000000000D+00 0.000000000000000D+00 0.102512792906625D+04
 0.179041729353404D+04 0.000000000000000D+00 0.000000000000000D+00 -.179041729353404D+04
 0.873943969553447D+03 -.639637624751076D+03 -.382736076884500D+03 0.438782253940039D+03
 0.625555133726130D+03 0.559325007668487D+03 0.266314715746026D+03 0.868978325672009D+02
 0.765600927495746D+03 -.133251082559617D+02 -.173034766680367D+02 -.765289364467789D+03
 0.550445191824958D+03 0.936377253385510D+02 0.133724837806511D+03 -.525680086507240D+03
0.984346558809D-06 0.000000000000D+00 0.000000000000D+00 0.410736328076D-07 0.000000000000D+00  6 1 -1 25 1 -1 21 0 0.12620814D+00 0.19699752D+00 0.58934989D+06 0.58934989D+06 0.58934989D+06 0.10635003D+01  1  2  2  2  6  2       -1 0.359495291680D-06 0.100000000000D+01
0.135653350383D-06 0.000000000000D+00 -.378014997023D-08 0.410736328076D-07 0.000000000000D+00  6 1 -1 25 1 -1 21 2 0.12620814D+00 0.19699752D+00 0.58934989D+06 0.58934989D+06 0.58934989D+06 0.10635003D+01  1  2  3  2  6  2       -1 0.560339109306D-07 0.100000000000D+01
-.594947537249D-06 0.000000000000D+00 0.000000000000D+00 0.410736328076D-07 0.000000000000D+00  6 1 -1 25 1 -1 21 2 0.12620814D+00 0.19699752D+00 0.58934989D+06 0.58934989D+06 0.58934989D+06 0.10635003D+01  1  2 15  2  6  2       -1 -.245753143705D-06 0.100000000000D+01
0.492310757307D-06 0.000000000000D+00 0.000000000000D+00 0.410736328076D-07 0.000000000000D+00  6 1 -1 25 1 -1 21 2 0.12620814D+00 0.34414064D+00 0.60870324D+06 0.60870324D+06 0.60870324D+06 0.10625241D+01  1  2 12  2  6  2       -1 0.105147278364D-07 0.100000000000D+01
0.844037629161D-03 0.000000000000D+00 0.000000000000D+00 0.410736328076D-07 0.000000000000D+00  6 1 -1 25 1 -1 21 2 0.12620814D+00 0.34642390D+00 0.60870324D+06 0.60870324D+06 0.60870324D+06 0.10625241D+01  1  2 12  2  6  2       -1 0.171314913880D-04 0.100000000000D+01
-.580932842277D-03 0.000000000000D+00 0.000000000000D+00 0.410736328076D-07 0.000000000000D+00  6 1 -1 25 1 -1 21 2 0.12620814D+00 0.19699752D+00 0.58934989D+06 0.58934989D+06 0.58934989D+06 0.10635003D+01  1  2  4  2  6  2       -1 -.239964136890D-03 0.100000000000D+01
-.860139687628D-03 0.000000000000D+00 -.611371582863D-06 0.410736328076D-07 0.000000000000D+00  6 1 -1 25 1 -1 21 2 0.12620814D+00 0.34415118D+00 0.58934989D+06 0.58934989D+06 0.58934989D+06 0.10635003D+01  1  2  5  2  6  2       -1 -.184592394353D-04 0.100000000000D+01
0.742058907162D-03 0.000000000000D+00 0.527181272604D-06 0.410736328076D-07 0.000000000000D+00  6 1 -1 25 1 -1 21 2 0.12620814D+00 0.19699752D+00 0.58934989D+06 0.58934989D+06 0.58934989D+06 0.10635003D+01  1  2  6  2  6  2       -1 0.306519983413D-03 0.100000000000D+01
0.303508714428D-07 0.000000000000D+00 0.000000000000D+00 0.410736328076D-07 0.000000000000D+00  6 1 21 25 1 1 -1 2 0.12620814D+00 0.34414064D+00 0.60870324D+06 0.60870324D+06 0.60870324D+06 0.10625241D+01  3  4 12  6  5  2       -1 0.757691846920D-08 0.100000000000D+01
0.525548680274D-04 0.000000000000D+00 0.000000000000D+00 0.410736328076D-07 0.000000000000D+00  6 1 21 25 1 1 -1 2 0.12620814D+00 0.34642390D+00 0.60870324D+06 0.60870324D+06 0.60870324D+06 0.10625241D+01  3  4 12  6  5  2       -1 0.126674854522D-04 0.100000000000D+01
-.529989560183D-04 0.000000000000D+00 -.376926911800D-07 0.410736328076D-07 0.000000000000D+00  6 1 21 25 1 1 -1 2 0.12620814D+00 0.34415118D+00 0.58934989D+06 0.58934989D+06 0.58934989D+06 0.10635003D+01  3  4  5  6  5  2       -1 -.133069252336D-04 0.100000000000D+01
  </mgrwgt>
  </event>
  <event>
  6     66 -.17456057E-05 0.16538051E+03 0.75467711E-02 0.93798229E-01
        1 -1    0    0  502    0 0.00000000E+00 0.00000000E+00 0.32462879E+03 0.32462895E+03 0.32000000E+00 0.0000E+00 0.9000E+01
       -1 -1    0    0    0  501 -.00000000E+00 -.00000000E+00 -.14701326E+04 0.14701326E+04 0.32000000E+00 0.0000E+00 0.9000E+01
       25  1    1    2    0    0 -.46668352E+03 -.12928046E+03 -.23437785E+03 0.55232683E+03 0.12500000E+03 0.0000E+00 0.9000E+01
        1  1    1    2  502    0 0.16272801E+03 -.10000754E+03 0.57588362E+02 0.19949545E+03 0.32000000E+00 0.0000E+00 0.9000E+01
       -1  1    1    2    0  503 0.17447245E+03 0.16716157E+03 -.64602271E+03 0.68973116E+03 0.32000000E+00 0.0000E+00 0.9000E+01
       21  1    1    2  503  501 0.12948307E+03 0.62126430E+02 -.32269158E+03 0.35320812E+03 0.75000000E+00 0.0000E+00 0.9000E+01
#aMCatNLO 2  0  0  5  2 0.31392596D+02 0.00000000D+00  -5  6  0 0.00000000D+00 0.00000000D+00 0.00000000D+00 0.00000000D+00 0.00000000D+00
  <mgrwgt>
 -.3919432822D-04    3    2    0
 0.690831045844585D+03 0.000000000000000D+00 0.000000000000000D+00 0.690831045844585D+03
 0.690831045844585D+03 -.000000000000000D+00 -.000000000000000D+00 -.690831045844585D+03
 0.524425677177434D+03 -.467520704483727D+03 -.129983024463103D+03 0.154680622941186D+03
 0.307111901700613D+03 0.162168859312707D+03 -.100333011996807D+03 0.240732772881116D+03
 0.550124512811122D+03 0.305351845171021D+03 0.230316036459911D+03 -.395413395822303D+03
 0.000000000000000D+00 0.000000000000000D+00 0.000000000000000D+00 0.000000000000000D+00
 0.690831045844585D+03 0.000000000000000D+00 0.000000000000000D+00 0.690831045844585D+03
 0.690831045844585D+03 -.000000000000000D+00 -.000000000000000D+00 -.690831045844585D+03
 0.523207403062456D+03 -.466685984342809D+03 -.129353424749036D+03 0.153599707496589D+03
 0.306754232168969D+03 0.162657967985803D+03 -.999640947206640D+02 0.240099404770152D+03
 0.360176078752256D+03 0.174380029678889D+03 0.167100557040955D+03 -.267199956570251D+03
 0.191524377705487D+03 0.129647986678117D+03 0.622169624287453D+02 -.126499155696491D+03
-.133752428441D-06 0.000000000000D+00 0.000000000000D+00 0.972449549701D-07 0.000000000000D+00  6 1 -1 25 1 -1 21 2 0.49942906D-01 0.22617426D+00 0.28965656D+06 0.28965656D+06 0.28965656D+06 0.10856810D+01  1  2 13  4  6  5       -1 -.132312312039D-06 0.100000000000D+01
-.221207927799D-03 0.000000000000D+00 0.000000000000D+00 0.972449549701D-07 0.000000000000D+00  6 1 -1 25 1 -1 21 2 0.49942906D-01 0.22617426D+00 0.28965656D+06 0.28965656D+06 0.28965656D+06 0.10856810D+01  1  2 13  4  6  5       -1 -.218826175416D-03 0.100000000000D+01
0.181720752291D-03 0.000000000000D+00 0.000000000000D+00 0.972449549701D-07 0.234920201297D-09  6 1 -1 25 1 -1 21 2 0.49942906D-01 0.22617426D+00 0.28965656D+06 0.28965656D+06 0.28965656D+06 0.10856810D+01  1  2  1  4  6  5       -1 0.179764159510D-03 0.100000000000D+01
  </mgrwgt>
  </event>
  <event>
  5     66 0.17456057E-05 0.41531865E+02 0.75467711E-02 0.94692246E-01
        1 -1    0    0  502    0 0.00000000E+00 0.00000000E+00 0.32337326E+04 0.32337326E+04 0.32000000E+00 0.0000E+00 0.9000E+01
       -1 -1    0    0    0  501 0.00000000E+00 0.00000000E+00 -.36885820E+03 0.36885834E+03 0.32000000E+00 0.0000E+00 0.9000E+01
       25  1    1    2    0    0 -.43885727E+03 0.13792945E+03 -.90823987E+02 0.48527748E+03 0.12500000E+03 0.0000E+00 0.9000E+01
        1  1    1    2  502    0 0.43913978E+03 -.17949516E+03 0.30109928E+04 0.30481371E+04 0.32000000E+00 0.0000E+00 0.9000E+01
       -1  1    1    2    0  501 -.28250513E+00 0.41565708E+02 -.55294430E+02 0.69176327E+02 0.32000000E+00 0.0000E+00 0.9000E+01
#aMCatNLO 1  0  0  5  2 0.30699361D+01 0.00000000D+00  -5  6  0 0.00000000D+00 0.00000000D+00 0.00000000D+00 0.00000000D+00 0.00000000D+00
  <mgrwgt>
 0.4584603024D-02    9    2    0
 0.109214882896019D+04 0.000000000000000D+00 0.000000000000000D+00 0.109214882896019D+04
 0.109214882896019D+04 -.000000000000000D+00 -.000000000000000D+00 -.109214882896019D+04
 0.919684521261418D+03 -.438856396557909D+03 0.137966821297941D+03 -.786488930671623D+03
 0.107819922817376D+04 0.439145940646803D+03 -.179497676980588D+03 0.968217435500159D+03
 0.186413908485198D+03 -.289544088893873D+00 0.415308556826472D+02 -.181728504828537D+03
 0.000000000000000D+00 -.000000000000000D+00 0.000000000000000D+00 0.000000000000000D+00
 0.109214882896019D+04 0.000000000000000D+00 0.000000000000000D+00 0.109214882896019D+04
 0.109214882896019D+04 -.000000000000000D+00 -.000000000000000D+00 -.109214882896019D+04
 0.919827991514755D+03 -.438856653329475D+03 0.138003651415563D+03 -.786650089937383D+03
 0.107802228469162D+04 0.439145639666858D+03 -.179454505818996D+03 0.968028529432157D+03
 0.130795024594454D+02 0.302747824376176D+01 0.247029008873550D+01 -.124822044105870D+02
 0.173367879254559D+03 -.331646458114487D+01 0.389805643146975D+02 -.168896235084187D+03
0.224753880426D-02 0.000000000000D+00 0.000000000000D+00 0.812631357506D-05 0.000000000000D+00  6 1 -1 25 1 -1 21 0 0.49749733D+00 0.56747428D-01 0.24634261D+06 0.24634261D+06 0.24634261D+06 0.10909409D+01  1  2  2  4  6  5       -1 0.363462618427D-03 0.100000000000D+01
0.385278064090D-03 0.000000000000D+00 -.863114079891D-05 0.812631357506D-05 0.000000000000D+00  6 1 -1 25 1 -1 21 2 0.49749733D+00 0.56747428D-01 0.24634261D+06 0.24634261D+06 0.24634261D+06 0.10909409D+01  1  2  3  4  6  5       -1 0.741531005769D-04 0.100000000000D+01
-.137231644917D-02 0.000000000000D+00 0.000000000000D+00 0.812631357506D-05 0.000000000000D+00  6 1 -1 25 1 -1 21 2 0.49749733D+00 0.56747428D-01 0.24634261D+06 0.24634261D+06 0.24634261D+06 0.10909409D+01  1  2 15  4  6  5       -1 -.264124872821D-03 0.100000000000D+01
0.276743100918D-09 0.000000000000D+00 0.000000000000D+00 0.812631357506D-05 0.000000000000D+00  6 1 -1 25 1 -1 21 2 0.49749733D+00 0.56747428D-01 0.24708331D+06 0.24708331D+06 0.24708331D+06 0.10908427D+01  1  2 12  4  6  5       -1 0.532404379323D-10 0.100000000000D+01
0.180196845508D-03 0.000000000000D+00 0.000000000000D+00 0.812631357506D-05 0.000000000000D+00  6 1 -1 25 1 -1 21 2 0.49749733D+00 0.56747428D-01 0.24708331D+06 0.24708331D+06 0.24708331D+06 0.10908427D+01  1  2 12  4  6  5       -1 0.346666599350D-04 0.100000000000D+01
-.149308349776D-01 0.000000000000D+00 0.000000000000D+00 0.812631357506D-05 0.000000000000D+00  6 1 -1 25 1 -1 21 2 0.49749733D+00 0.56747428D-01 0.24634261D+06 0.24634261D+06 0.24634261D+06 0.10909409D+01  1  2  4  4  6  5       -1 -.287368477727D-02 0.100000000000D+01
-.974069059290D-02 0.000000000000D+00 0.000000000000D+00 0.812631357506D-05 0.000000000000D+00  6 1 -1 25 1 -1 21 2 0.49749733D+00 0.56747428D-01 0.24634261D+06 0.24634261D+06 0.24634261D+06 0.10909409D+01  1  2  5  4  6  5       -1 -.187475612174D-02 0.100000000000D+01
0.387644806172D-01 0.000000000000D+00 -.000000000000D+00 0.812631357506D-05 0.000000000000D+00  6 1 -1 25 1 -1 21 2 0.49749733D+00 0.56747428D-01 0.24634261D+06 0.24634261D+06 0.24634261D+06 0.10909409D+01  1  2  6  4  6  5       -1 0.746086190195D-02 0.100000000000D+01
0.864957741815D-02 0.000000000000D+00 0.000000000000D+00 0.812631357506D-05 0.172268160162D-06  6 1 -1 25 1 -1 21 2 0.49749733D+00 0.56747428D-01 0.24708331D+06 0.24708331D+06 0.24708331D+06 0.10908427D+01  1  2 11  4  6  5       -1 0.166402446220D-02 0.100000000000D+01
  </mgrwgt>
  </event>
  <event>
  5     66 0.17456057E-05 0.69848489E+02 0.75467711E-02 0.94775950E-01
        1 -1    0    0  502    0 0.00000000E+00 0.00000000E+00 0.10916931E+04 0.10916932E+04 0.32000000E+00 0.0000E+00 0.9000E+01
       -1 -1    0    0    0  501 0.00000000E+00 0.00000000E+00 -.47697440E+03 0.47697451E+03 0.32000000E+00 0.0000E+00 0.9000E+01
       25  1    1    2    0    0 -.44425154E+02 -.46256873E+03 0.23920100E+03 0.53738770E+03 0.12500000E+03 0.0000E+00 0.9000E+01
        1  1    1    2  502    0 -.44739583E+02 0.53671921E+02 0.56682944E+03 0.57111997E+03 0.32000000E+00 0.0000E+00 0.9000E+01
       -1  1    1    2    0  501 0.89164737E+02 0.40889681E+03 -.19131172E+03 0.46016000E+03 0.32000000E+00 0.0000E+00 0.9000E+01
#aMCatNLO 1  0  0  2  5 0.15506370D+02 0.00000000D+00  -5  6  0 0.00000000D+00 0.00000000D+00 0.00000000D+00 0.00000000D+00 0.00000000D+00
  <mgrwgt>
 0.3129074975D-02   11    4    0
 0.721602240934736D+03 0.000000000000000D+00 0.000000000000000D+00 0.721602240934736D+03
 0.721602240934736D+03 0.000000000000000D+00 0.000000000000000D+00 -.721602240934736D+03
 0.482299140817251D+03 -.444530333765956D+02 -.462641004191786D+03 0.312200303826449D+02
 0.379198272149547D+03 -.447235711872279D+02 0.536527126908919D+02 0.372709696952429D+03
 0.581707068902674D+03 0.891766045638235D+02 0.408988291500894D+03 -.403929727335074D+03
 0.000000000000000D+00 -.000000000000000D+00 -.000000000000000D+00 -.000000000000000D+00
 0.722975090163525D+03 0.000000000000000D+00 0.000000000000000D+00 0.722975090163525D+03
 0.766800093274957D+03 0.000000000000000D+00 0.000000000000000D+00 -.766800093274957D+03
 0.478728542991407D+03 -.405340496244592D+02 -.459280217730553D+03 0.312200303826449D+02
 0.379230657409347D+03 -.416307667840165D+02 0.563049959926251D+02 0.372709696952429D+03
 0.585328582408909D+03 0.939356701273963D+02 0.413069503398100D+03 -.403929727335074D+03
 0.464874006288174D+02 -.117708537189207D+02 -.100942816601721D+02 -.438250031114324D+02
 0.721602240934736D+03 0.000000000000000D+00 0.000000000000000D+00 0.721602240934736D+03
 0.721602240934736D+03 0.000000000000000D+00 0.000000000000000D+00 -.721602240934736D+03
 0.482299140817251D+03 -.444530333765956D+02 -.462641004191786D+03 0.312200303826449D+02
 0.379198272149547D+03 -.447235711872279D+02 0.536527126908919D+02 0.372709696952429D+03
 0.000000000000000D+00 -.000000000000000D+00 -.000000000000000D+00 -.000000000000000D+00
 0.581707068902674D+03 0.891766045638235D+02 0.408988291500894D+03 -.403929727335074D+03
 0.722975090163525D+03 0.000000000000000D+00 0.000000000000000D+00 0.722975090163525D+03
 0.766800093274957D+03 0.000000000000000D+00 0.000000000000000D+00 -.766800093274957D+03
 0.478728542991407D+03 -.405340496244592D+02 -.459280217730553D+03 0.312200303826449D+02
 0.379230657409347D+03 -.416307667840165D+02 0.563049959926251D+02 0.372709696952429D+03
 0.464874006288174D+02 -.117708537189207D+02 -.100942816601721D+02 -.438250031114324D+02
 0.585328582408909D+03 0.939356701273963D+02 0.413069503398100D+03 -.403929727335074D+03
0.376750237079D-04 0.000000000000D+00 0.000000000000D+00 0.337354616333D-05 0.000000000000D+00  6 1 -1 25 1 -1 21 0 0.16795280D+00 0.73380689D-01 0.23509583D+06 0.23509583D+06 0.23509583D+06 0.10924731D+01  1  2  2  2  6  2       -1 0.114958105799D-03 0.100000000000D+01
0.915090556254D-05 0.000000000000D+00 -.144682011100D-06 0.337354616333D-05 0.000000000000D+00  6 1 -1 25 1 -1 21 2 0.16795280D+00 0.73380689D-01 0.23509583D+06 0.23509583D+06 0.23509583D+06 0.10924731D+01  1  2  3  2  6  2       -1 0.333251120340D-04 0.100000000000D+01
-.227913126522D-04 0.000000000000D+00 0.000000000000D+00 0.337354616333D-05 0.000000000000D+00  6 1 -1 25 1 -1 21 2 0.16795280D+00 0.73380689D-01 0.23509583D+06 0.23509583D+06 0.23509583D+06 0.10924731D+01  1  2 15  2  6  2       -1 -.829997689678D-04 0.100000000000D+01
0.194526064366D-07 0.000000000000D+00 0.000000000000D+00 0.337354616333D-05 0.000000000000D+00  6 1 -1 25 1 -1 21 2 0.16795280D+00 0.78044277D-01 0.24347104D+06 0.24347104D+06 0.24347104D+06 0.10913248D+01  1  2 12  2  6  2       -1 0.623721418985D-07 0.100000000000D+01
0.176295391831D-02 0.000000000000D+00 0.000000000000D+00 0.337354616333D-05 0.000000000000D+00  6 1 -1 25 1 -1 21 2 0.16795280D+00 0.78552002D-01 0.24347104D+06 0.24347104D+06 0.24347104D+06 0.10913248D+01  1  2 12  2  6  2       -1 0.557884518905D-02 0.100000000000D+01
-.101390329344D-02 0.000000000000D+00 0.000000000000D+00 0.337354616333D-05 0.000000000000D+00  6 1 -1 25 1 -1 21 2 0.16795280D+00 0.73380689D-01 0.23509583D+06 0.23509583D+06 0.23509583D+06 0.10924731D+01  1  2  4  2  6  2       -1 -.369236034779D-02 0.100000000000D+01
-.318926770603D-02 0.000000000000D+00 -.166712066717D-03 0.337354616333D-05 0.000000000000D+00  6 1 -1 25 1 -1 21 2 0.16795280D+00 0.78050582D-01 0.23509583D+06 0.23509583D+06 0.23509583D+06 0.10924731D+01  1  2  5  2  6  2       -1 -.102632631117D-01 0.100000000000D+01
0.319378960853D-02 0.000000000000D+00 0.166395280073D-03 0.337354616333D-05 0.000000000000D+00  6 1 -1 25 1 -1 21 2 0.16795280D+00 0.73380689D-01 0.23509583D+06 0.23509583D+06 0.23509583D+06 0.10924731D+01  1  2  6  2  6  2       -1 0.116309140980D-01 0.100000000000D+01
0.291231454676D-09 0.000000000000D+00 0.000000000000D+00 0.337354616333D-05 0.000000000000D+00  6 1 21 25 1 1 -1 2 0.16795280D+00 0.78044277D-01 0.24347104D+06 0.24347104D+06 0.24347104D+06 0.10913248D+01  3  4 12  6  5  2       -1 0.716427229337D-08 0.100000000000D+01
0.289046838179D-04 0.000000000000D+00 0.000000000000D+00 0.337354616333D-05 0.000000000000D+00  6 1 21 25 1 1 -1 2 0.16795280D+00 0.78552002D-01 0.24347104D+06 0.24347104D+06 0.24347104D+06 0.10913248D+01  3  4 12  6  5  2       -1 0.700034764290D-03 0.100000000000D+01
-.360299511787D-04 0.000000000000D+00 -.176211394015D-05 0.337354616333D-05 0.000000000000D+00  6 1 21 25 1 1 -1 2 0.16795280D+00 0.78050582D-01 0.23509583D+06 0.23509583D+06 0.23509583D+06 0.10924731D+01  3  4  5  6  5  2       -1 -.890448602356D-03 0.100000000000D+01
  </mgrwgt>
  </event>
  <event>
  5     66 0.17456057E-05 0.59068417E+02 0.75467711E-02 0.88532761E-01
        1 -1    0    0  502    0 0.00000000E+00 0.00000000E+00 0.18804212E+04 0.18804212E+04 0.32000000E+00 0.0000E+00 0.9000E+01
       -1 -1    0    0    0  501 0.00000000E+00 0.00000000E+00 -.12963549E+04 0.12963549E+04 0.32000000E+00 0.0000E+00 0.9000E+01
       25  1    1    2    0    0 -.12770088E+03 0.51753570E+03 0.66330026E+03 0.86008310E+03 0.12500000E+03 0.0000E+00 0.9000E+01
        1  1    1    2  502    0 0.34494334E+02 0.47961308E+02 0.10493026E+04 0.10509644E+04 0.32000000E+00 0.0000E+00 0.9000E+01
       -1  1    1    2    0  501 0.93206547E+02 -.56549700E+03 -.11285365E+04 0.12657287E+04 0.32000000E+00 0.0000E+00 0.9000E+01
#aMCatNLO 1  0  0  4  5 0.45513717D+02 0.00000000D+00  -5  6  0 0.00000000D+00 0.00000000D+00 0.00000000D+00 0.00000000D+00 0.00000000D+00
  <mgrwgt>
 0.1603996170D-02    4    2    0
 0.156131141041268D+04 0.000000000000000D+00 0.000000000000000D+00 0.156131141041268D+04
 0.156131141041268D+04 -.000000000000000D+00 -.000000000000000D+00 -.156131141041268D+04
 0.751058052399648D+03 -.127705430328174D+03 0.517597346844354D+03 0.514050102303980D+03
 0.872791587563310D+03 0.344890548698482D+02 0.479539673585269D+02 0.870790489974509D+03
 0.149877318086241D+04 0.932163754583262D+02 -.565551314202880D+03 -.138484059227849D+04
 0.000000000000000D+00 0.000000000000000D+00 0.000000000000000D+00 -.000000000000000D+00
 0.156131141041268D+04 0.000000000000000D+00 0.000000000000000D+00 0.156131141041268D+04
 0.156131141041268D+04 -.000000000000000D+00 -.000000000000000D+00 -.156131141041268D+04
 0.814146610351763D+03 -.124335246337446D+03 0.522283288331979D+03 0.599141566238403D+03
 0.338608319581858D+03 0.110722299566840D+03 -.297197251135702D+03 0.118616863835051D+03
 0.135368534933014D+04 0.993582623958279D+02 -.557011565960077D+03 -.122976830178349D+04
 0.616182541561609D+03 -.857453156252209D+02 0.331925528763801D+03 0.512009871710034D+03
0.388559102111D-01 0.000000000000D+00 0.000000000000D+00 0.836705554769D-04 0.000000000000D+00  6 1 -1 25 1 -1 21 0 0.28929557D+00 0.19943922D+00 0.34799824D+06 0.34799824D+06 0.34799824D+06 0.10798151D+01  1  2  2  3  6  4        1 0.247998753921D-02 0.100000000000D+01
0.139489855558D-01 0.000000000000D+00 -.149216926207D-03 0.836705554769D-04 0.000000000000D+00  6 1 -1 25 1 -1 21 2 0.28929557D+00 0.19943922D+00 0.34799824D+06 0.34799824D+06 0.34799824D+06 0.10798151D+01  1  2  3  3  6  4        1 0.103808721083D-02 0.100000000000D+01
-.252154501403D-01 0.000000000000D+00 0.000000000000D+00 0.836705554769D-04 0.000000000000D+00  6 1 -1 25 1 -1 21 2 0.28929557D+00 0.19943922D+00 0.34799824D+06 0.34799824D+06 0.34799824D+06 0.10798151D+01  1  2 15  3  6  4        1 -.187654049833D-02 0.100000000000D+01
-.504406708895D-03 0.000000000000D+00 0.000000000000D+00 0.836705554769D-04 0.000000000000D+00  6 1 -1 25 1 -1 21 2 0.28929557D+00 0.19943922D+00 0.34799824D+06 0.34799824D+06 0.34799824D+06 0.10798151D+01  1  2  4  3  6  4        1 -.375380812798D-04 0.100000000000D+01
  </mgrwgt>
  </event>
  <event>
  5     66 0.17456057E-05 0.30790679E+02 0.75467711E-02 0.79434911E-01
        1 -1    0    0  502    0 0.00000000E+00 0.00000000E+00 0.81225191E+03 0.81225198E+03 0.32000000E+00 0.0000E+00 0.9000E+01
       -1 -1    0    0    0  501 0.00000000E+00 0.00000000E+00 -.75950200E+03 0.75950207E+03 0.32000000E+00 0.0000E+00 0.9000E+01
       25  1    1    2    0    0 0.56113481E+03 -.30593545E+03 0.26210788E+03 0.70199310E+03 0.12500000E+03 0.0000E+00 0.9000E+01
        1  1    1    2  502    0 -.53106409E+03 0.29933923E+03 0.47125782E+02 0.61143601E+03 0.32000000E+00 0.0000E+00 0.9000E+01
       -1  1    1    2    0  501 -.30070711E+02 0.65962164E+01 -.25648375E+03 0.25832494E+03 0.32000000E+00 0.0000E+00 0.9000E+01
#aMCatNLO 1  0  0  1  2 0.34221634D+03 0.00000000D+00  -5  6  0 0.00000000D+00 0.00000000D+00 0.00000000D+00 0.00000000D+00 0.00000000D+00
  <mgrwgt>
 0.2175196710D-03    5    2    0
 0.785434310233168D+03 0.000000000000000D+00 0.000000000000000D+00 0.785434310233168D+03
 0.785434310233168D+03 0.000000000000000D+00 0.000000000000000D+00 -.785434310233168D+03
 0.693569714102327D+03 0.561096293877597D+03 -.305912179479062D+03 0.238752247661001D+03
 0.610148231547385D+03 -.531020717501988D+03 0.299314782841952D+03 0.266180918991410D+02
 0.267150674816624D+03 -.300755763756090D+02 0.659739663710917D+01 -.265370339560142D+03
 0.000000000000000D+00 -.000000000000000D+00 -.000000000000000D+00 0.000000000000000D+00
 0.532764121031447D+04 0.000000000000000D+00 0.000000000000000D+00 0.532764121031447D+04
 0.171983917948165D+04 0.000000000000000D+00 0.000000000000000D+00 -.171983917948165D+04
 0.140372109814244D+04 0.126554928983265D+04 0.544233663614359D+03 0.238752247661001D+03
 0.920183577285634D+03 -.170019551807579D+02 0.919641357600813D+03 0.266180918991410D+02
 0.451439873971724D+03 0.211289742159845D+03 0.297881163471890D+03 -.265370339560142D+03
 0.427213584039632D+04 -.145983707681174D+04 -.176175618468706D+04 0.360780203083282D+04
0.143727909515D-03 0.000000000000D+00 0.000000000000D+00 0.381007686735D-06 0.000000000000D+00  6 1 -1 25 1 -1 21 0 0.12496184D+00 0.11684647D+00 0.41701807D+06 0.41701807D+06 0.41701807D+06 0.10741256D+01  1  2  2  1  6  1        1 0.256819151940D-03 0.100000000000D+01
0.666515120278D-04 0.000000000000D+00 -.551953016964D-06 0.381007686735D-06 0.000000000000D+00  6 1 -1 25 1 -1 21 2 0.12496184D+00 0.11684647D+00 0.41701807D+06 0.41701807D+06 0.41701807D+06 0.10741256D+01  1  2  3  1  6  1        1 0.137406236258D-03 0.100000000000D+01
-.857160553888D-04 0.000000000000D+00 0.000000000000D+00 0.381007686735D-06 0.000000000000D+00  6 1 -1 25 1 -1 21 2 0.12496184D+00 0.11684647D+00 0.41701807D+06 0.41701807D+06 0.41701807D+06 0.10741256D+01  1  2 15  1  6  1        1 -.176708977779D-03 0.100000000000D+01
0.148439618954D-03 0.000000000000D+00 -.140422146553D-03 0.381007686735D-06 0.000000000000D+00  6 1 -1 25 1 -1 21 2 0.89091757D+00 0.11684647D+00 0.41701807D+06 0.41701807D+06 0.41701807D+06 0.10741256D+01  1  2  5  1  6  1        1 0.325280153219D-08 0.100000000000D+01
0.219003373810D-04 0.000000000000D+00 -.336908804812D-04 0.381007686735D-06 0.000000000000D+00  6 21 -1 25 1 -1 -1 2 0.89091757D+00 0.11684647D+00 0.41701807D+06 0.41701807D+06 0.41701807D+06 0.10741256D+01  1  2  5  5  6  1        1 0.777394624721D-11 0.100000000000D+01
  </mgrwgt>
  </event>
  <event>
  5     66 0.17456057E-05 0.18360344E+03 0.75467711E-02 0.91895797E-01
        1 -1    0    0  502    0 0.00000000E+00 0.00000000E+00 0.25681371E+04 0.25681371E+04 0.32000000E+00 0.0000E+00 0.9000E+01
       -1 -1    0    0    0  501 0.00000000E+00 0.00000000E+00 -.77531050E+03 0.77531057E+03 0.32000000E+00 0.0000E+00 0.9000E+01
       25  1    1    2    0    0 0.11582542E+03 0.55962230E+03 0.12433669E+04 0.13741102E+04 0.12500000E+03 0.0000E+00 0.9000E+01
        1  1    1    2  502    0 -.17290943E+03 -.61882499E+02 0.11628971E+04 0.11773091E+04 0.32000000E+00 0.0000E+00 0.9000E+01
       -1  1    1    2    0  501 0.57084005E+02 -.49773980E+03 -.61343732E+03 0.79202837E+03 0.32000000E+00 0.0000E+00 0.9000E+01
#aMCatNLO 1  0  0  1  4 0.94895914D+01 0.00000000D+00  -5  6  0 0.00000000D+00 0.00000000D+00 0.00000000D+00 0.00000000D+00 0.00000000D+00
  <mgrwgt>
 0.2957849960D-03   13    2    0
 0.141106478421524D+04 0.000000000000000D+00 0.000000000000000D+00 0.141106478421524D+04
 0.141106478421524D+04 0.000000000000000D+00 0.000000000000000D+00 -.141106478421524D+04
 0.838201602393129D+03 0.115779832445089D+03 0.559662800511790D+03 0.600274525843548D+03
 0.655864579938958D+03 -.172866125178624D+03 -.618670017989291D+02 0.629641266176738D+03
 0.132806338609839D+04 0.570862927335357D+02 -.497795798712861D+03 -.122991579202029D+04
 0.000000000000000D+00 0.000000000000000D+00 0.000000000000000D+00 0.000000000000000D+00
 0.152399978217348D+04 0.000000000000000D+00 0.000000000000000D+00 0.152399978217348D+04
 0.141127212113646D+04 0.000000000000000D+00 0.000000000000000D+00 -.141127212113646D+04
 0.836797829925044D+03 0.113485589595573D+03 0.558029679089483D+03 0.600274525843548D+03
 0.656462478578997D+03 -.174663616516316D+03 -.631465183115839D+02 0.629641266176738D+03
 0.132888521456066D+04 0.534470763786049D+02 -.500386318801395D+03 -.122991579202029D+04
 0.113126380245249D+03 0.773095054213795D+01 0.550315802349632D+01 0.112727661037014D+03
0.148673145481D-04 0.000000000000D+00 0.000000000000D+00 0.227719157463D-05 0.000000000000D+00  6 1 -1 25 1 -1 21 0 0.39509803D+00 0.11927855D+00 0.40302516D+06 0.40302516D+06 0.40302516D+06 0.10751918D+01  1  2  2  1  6  1        1 0.149052706719D-05 0.100000000000D+01
0.125589705675D-05 0.000000000000D+00 -.570944025185D-07 0.227719157463D-05 0.000000000000D+00  6 1 -1 25 1 -1 21 2 0.39509803D+00 0.11927855D+00 0.40302516D+06 0.40302516D+06 0.40302516D+06 0.10751918D+01  1  2  3  1  6  1        1 0.145557061175D-06 0.100000000000D+01
-.903394503888D-05 0.000000000000D+00 0.000000000000D+00 0.227719157463D-05 0.000000000000D+00  6 1 -1 25 1 -1 21 2 0.39509803D+00 0.11927855D+00 0.40302516D+06 0.40302516D+06 0.40302516D+06 0.10751918D+01  1  2 15  1  6  1        1 -.104702410409D-05 0.100000000000D+01
0.590543545961D-08 0.000000000000D+00 0.000000000000D+00 0.227719157463D-05 0.000000000000D+00  6 1 -1 25 1 -1 21 2 0.42674755D+00 0.11927855D+00 0.41053525D+06 0.41053525D+06 0.41053525D+06 0.10746146D+01  1  2 12  1  6  1        1 0.487377445347D-09 0.100000000000D+01
0.680497195563D-02 0.000000000000D+00 0.000000000000D+00 0.227719157463D-05 0.000000000000D+00  6 1 -1 25 1 -1 21 2 0.42993720D+00 0.11927855D+00 0.41053525D+06 0.41053525D+06 0.41053525D+06 0.10746146D+01  1  2 12  1  6  1        1 0.542583984110D-03 0.100000000000D+01
-.429240268421D-02 0.000000000000D+00 0.000000000000D+00 0.227719157463D-05 0.000000000000D+00  6 1 -1 25 1 -1 21 2 0.39509803D+00 0.11927855D+00 0.40302516D+06 0.40302516D+06 0.40302516D+06 0.10751918D+01  1  2  4  1  6  1        1 -.497484659855D-03 0.100000000000D+01
-.762627092205D-02 0.000000000000D+00 -.321280050165D-04 0.227719157463D-05 0.000000000000D+00  6 1 -1 25 1 -1 21 2 0.42673712D+00 0.11927855D+00 0.40302516D+06 0.40302516D+06 0.40302516D+06 0.10751918D+01  1  2  5  1  6  1        1 -.631264385301D-03 0.100000000000D+01
0.760626097441D-02 0.000000000000D+00 0.320329118962D-04 0.227719157463D-05 0.000000000000D+00  6 1 -1 25 1 -1 21 2 0.39509803D+00 0.11927855D+00 0.40302516D+06 0.40302516D+06 0.40302516D+06 0.10751918D+01  1  2  6  1  6  1        1 0.881557121269D-03 0.100000000000D+01
0.479656894355D-07 0.000000000000D+00 0.000000000000D+00 0.227719157463D-05 0.888810963128D-07  6 1 -1 25 1 -1 21 2 0.42671982D+00 0.11929607D+00 0.41053525D+06 0.41053525D+06 0.41053525D+06 0.10746146D+01  1  2 11  1  6  1        1 0.395837120670D-08 0.100000000000D+01
0.854757731291D-10 0.000000000000D+00 0.000000000000D+00 0.227719157463D-05 0.000000000000D+00  6 21 -1 25 1 -1 -1 2 0.42674755D+00 0.11927855D+00 0.41053525D+06 0.41053525D+06 0.41053525D+06 0.10746146D+01  1  2 12  5  6  1        1 0.187897840564D-11 0.100000000000D+01
0.106899413441D-03 0.000000000000D+00 0.000000000000D+00 0.227719157463D-05 0.000000000000D+00  6 21 -1 25 1 -1 -1 2 0.42993720D+00 0.11927855D+00 0.41053525D+06 0.41053525D+06 0.41053525D+06 0.10746146D+01  1  2 12  5  6  1        1 0.223033789050D-05 0.100000000000D+01
-.110145589524D-03 0.000000000000D+00 -.414936638122D-06 0.227719157463D-05 0.000000000000D+00  6 21 -1 25 1 -1 -1 2 0.42673712D+00 0.11927855D+00 0.40302516D+06 0.40302516D+06 0.40302516D+06 0.10751918D+01  1  2  5  5  6  1        1 -.243093367753D-05 0.100000000000D+01
0.108827516729D-08 0.000000000000D+00 0.000000000000D+00 0.227719157463D-05 0.968701180336D-09  6 21 -1 25 1 -1 -1 2 0.42671982D+00 0.11929607D+00 0.41053525D+06 0.41053525D+06 0.41053525D+06 0.10746146D+01  1  2 11  5  6  1        1 0.239252579797D-10 0.100000000000D+01
  </mgrwgt>
  </event>
  <event>
  5     66 -.17456057E-05 0.33813723E+02 0.75467711E-02 0.92761732E-01
        1 -1    0    0  502    0 0.00000000E+00 0.00000000E+00 0.11658453E+04 0.11658454E+04 0.32000000E+00 0.0000E+00 0.9000E+01
       -1 -1    0    0    0  501 0.00000000E+00 0.00000000E+00 -.64203400E+03 0.64203408E+03 0.32000000E+00 0.0000E+00 0.9000E+01
       25  1    1    2    0    0 -.36381305E+03 0.41523788E+03 0.20676143E+03 0.60262569E+03 0.12500000E+03 0.0000E+00 0.9000E+01
        1  1    1    2  502    0 0.39686302E+03 -.42236530E+03 0.64984709E+03 0.87074339E+03 0.32000000E+00 0.0000E+00 0.9000E+01
       -1  1    1    2    0  501 -.33049966E+02 0.71274259E+01 -.33279720E+03 0.33451036E+03 0.32000000E+00 0.0000E+00 0.9000E+01
#aMCatNLO 1  0  0  4  5 0.58597000D+02 0.00000000D+00  -5  6  0 0.00000000D+00 0.00000000D+00 0.00000000D+00 0.00000000D+00 0.00000000D+00
  <mgrwgt>
 -.1166779797D-02    6    2    0
 0.865166135447615D+03 0.000000000000000D+00 0.000000000000000D+00 0.865166135447615D+03
 0.865166135447615D+03 -.000000000000000D+00 -.000000000000000D+00 -.865166135447615D+03
 0.567015452730884D+03 -.363789293534141D+03 0.415216093209439D+03 0.336818866073409D+02
 0.713007541499870D+03 0.396843163852971D+03 -.422344174380385D+03 0.415356059189949D+03
 0.450309276664476D+03 -.330538703188293D+02 0.712808117094515D+01 -.449037945797289D+03
 0.000000000000000D+00 0.000000000000000D+00 0.000000000000000D+00 0.000000000000000D+00
 0.865166135447615D+03 0.000000000000000D+00 0.000000000000000D+00 0.865166135447615D+03
 0.865166135447615D+03 -.000000000000000D+00 -.000000000000000D+00 -.865166135447615D+03
 0.563633709941800D+03 -.361294821630999D+03 0.412561327366382D+03 0.362927266414486D+02
 0.550408335279719D+03 0.258504323538499D+03 -.359402279097714D+03 0.327039526719117D+03
 0.448070277158443D+03 -.310718385539345D+02 0.501868470002513D+01 -.446963451442736D+03
 0.168219948515268D+03 0.133862336646435D+03 -.581777329686933D+02 0.836311980821703D+02
0.151065665719D-03 0.000000000000D+00 0.000000000000D+00 0.482457027243D-05 0.000000000000D+00  6 1 -1 25 1 -1 21 0 0.17936083D+00 0.98774470D-01 0.34772334D+06 0.34772334D+06 0.34772334D+06 0.10798402D+01  1  2  2  3  6  4        1 0.213854486876D-03 0.100000000000D+01
0.806718479525D-04 0.000000000000D+00 -.580131932865D-06 0.482457027243D-05 0.000000000000D+00  6 1 -1 25 1 -1 21 2 0.17936083D+00 0.98774470D-01 0.34772334D+06 0.34772334D+06 0.34772334D+06 0.10798402D+01  1  2  3  3  6  4        1 0.133166062780D-03 0.100000000000D+01
-.107598621223D-03 0.000000000000D+00 0.000000000000D+00 0.482457027243D-05 0.000000000000D+00  6 1 -1 25 1 -1 21 2 0.17936083D+00 0.98774470D-01 0.34772334D+06 0.34772334D+06 0.34772334D+06 0.10798402D+01  1  2 15  3  6  4        1 -.177614435675D-03 0.100000000000D+01
-.115746230045D-02 0.000000000000D+00 0.000000000000D+00 0.482457027243D-05 0.000000000000D+00  6 1 -1 25 1 -1 21 2 0.17936083D+00 0.98774470D-01 0.34772334D+06 0.34772334D+06 0.34772334D+06 0.10798402D+01  1  2  4  3  6  4        1 -.191063798933D-02 0.100000000000D+01
-.132429334617D-02 0.000000000000D+00 0.000000000000D+00 0.482457027243D-05 0.000000000000D+00  6 1 -1 25 1 -1 21 2 0.17936083D+00 0.98774470D-01 0.34772334D+06 0.34772334D+06 0.34772334D+06 0.10798402D+01  1  2  5  3  6  4        1 -.218602815420D-02 0.100000000000D+01
0.167229575589D-02 0.000000000000D+00 -.000000000000D+00 0.482457027243D-05 0.000000000000D+00  6 1 -1 25 1 -1 21 2 0.17936083D+00 0.98774470D-01 0.34772334D+06 0.34772334D+06 0.34772334D+06 0.10798402D+01  1  2  6  3  6  4        1 0.276048023281D-02 0.100000000000D+01
  </mgrwgt>
  </event>
  <event>
  5     66 0.17456057E-05 0.25561018E+02 0.75467711E-02 0.94181853E-01
        1 -1    0    0  502    0 0.00000000E+00 0.00000000E+00 0.23284516E+04 0.23284516E+04 0.32000000E+00 0.0000E+00 0.9000E+01
       -1 -1    0    0    0  501 0.00000000E+00 0.00000000E+00 -.62235007E+03 0.62235016E+03 0.32000000E+00 0.0000E+00 0.9000E+01
       25  1    1    2    0    0 -.24383077E+03 -.39445133E+03 0.31566202E+03 0.57472847E+03 0.12500000E+03 0.0000E+00 0.9000E+01
        1  1    1    2  502    0 0.26842462E+03 0.38749516E+03 0.18534010E+04 0.19124068E+04 0.32000000E+00 0.0000E+00 0.9000E+01
       -1  1    1    2    0  501 -.24593848E+02 0.69561699E+01 -.46296148E+03 0.46366656E+03 0.32000000E+00 0.0000E+00 0.9000E+01
#aMCatNLO 1  0  0  1  4 0.23889147D+02 0.00000000D+00  -5  6  0 0.00000000D+00 0.00000000D+00 0.00000000D+00 0.00000000D+00 0.00000000D+00
  <mgrwgt>
 0.9072680453D-02    7    2    0
 0.120379075316960D+04 0.000000000000000D+00 0.000000000000000D+00 0.120379075316960D+04
 0.120379075316960D+04 0.000000000000000D+00 0.000000000000000D+00 -.120379075316960D+04
 0.480696660182903D+03 -.243820463179896D+03 -.394440402773550D+03 -.203132839683410D+02
 0.103048149662658D+04 0.268416543015953D+03 0.387483499883639D+03 0.916352122081384D+03
 0.896403349529716D+03 -.245960798360571D+02 0.695690288991091D+01 -.896038838113043D+03
 0.000000000000000D+00 0.000000000000000D+00 0.000000000000000D+00 0.000000000000000D+00
 0.125972915466348D+04 0.000000000000000D+00 0.000000000000000D+00 0.125972915466348D+04
 0.121716059568383D+04 0.000000000000000D+00 0.000000000000000D+00 -.121716059568383D+04
 0.488322307764008D+03 -.254323974644459D+03 -.397165409716699D+03 -.203132839683410D+02
 0.102274075280938D+04 0.246160999884595D+03 0.381709572777347D+03 0.916352122081384D+03
 0.897122338303512D+03 -.440366875509480D+02 0.191327617699319D+01 -.896038838113043D+03
 0.687043514704072D+02 0.521996623108117D+02 0.135425607623589D+02 0.425685589796541D+02
0.749891142735D-02 0.000000000000D+00 0.000000000000D+00 0.143208748237D-03 0.000000000000D+00  6 1 -1 25 1 -1 21 0 0.35822333D+00 0.95746173D-01 0.23872976D+06 0.23872976D+06 0.23872976D+06 0.10919694D+01  1  2  2  1  6  1        1 0.191638825001D-02 0.100000000000D+01
0.535316953823D-02 0.000000000000D+00 -.287977943898D-04 0.143208748237D-03 0.000000000000D+00  6 1 -1 25 1 -1 21 2 0.35822333D+00 0.95746173D-01 0.23872976D+06 0.23872976D+06 0.23872976D+06 0.10919694D+01  1  2  3  1  6  1        1 0.163123762284D-02 0.100000000000D+01
-.510739122151D-02 0.000000000000D+00 0.000000000000D+00 0.143208748237D-03 0.000000000000D+00  6 1 -1 25 1 -1 21 2 0.35822333D+00 0.95746173D-01 0.23872976D+06 0.23872976D+06 0.23872976D+06 0.10919694D+01  1  2 15  1  6  1        1 -.155634314504D-02 0.100000000000D+01
-.465358406275D-02 0.000000000000D+00 0.000000000000D+00 0.143208748237D-03 0.000000000000D+00  6 1 -1 25 1 -1 21 2 0.35822333D+00 0.95746173D-01 0.23872976D+06 0.23872976D+06 0.23872976D+06 0.10919694D+01  1  2  4  1  6  1        1 -.141805734901D-02 0.100000000000D+01
-.160770525173D+00 0.000000000000D+00 -.264498009928D-01 0.143208748237D-03 0.000000000000D+00  6 1 -1 25 1 -1 21 2 0.37632825D+00 0.95746173D-01 0.23872976D+06 0.23872976D+06 0.23872976D+06 0.10919694D+01  1  2  5  1  6  1        1 -.407149681100D-01 0.100000000000D+01
0.161909912696D+00 0.000000000000D+00 0.264176838121D-01 0.143208748237D-03 0.000000000000D+00  6 1 -1 25 1 -1 21 2 0.35822333D+00 0.95746173D-01 0.23872976D+06 0.23872976D+06 0.23872976D+06 0.10919694D+01  1  2  6  1  6  1        1 0.493377874948D-01 0.100000000000D+01
-.135965526796D-02 0.000000000000D+00 -.227415912167D-03 0.143208748237D-03 0.000000000000D+00  6 21 -1 25 1 -1 -1 2 0.37632825D+00 0.95746173D-01 0.23872976D+06 0.23872976D+06 0.23872976D+06 0.10919694D+01  1  2  5  5  6  1        1 -.123364310223D-03 0.100000000000D+01
  </mgrwgt>
  </event>
  <event>
  5     66 0.17456057E-05 0.42026532E+02 0.75467711E-02 0.90575859E-01
        1 -1    0    0  502    0 0.00000000E+00 0.00000000E+00 0.28171305E+04 0.28171306E+04 0.32000000E+00 0.0000E+00 0.9000E+01
       -1 -1    0    0    0  501 0.00000000E+00 0.00000000E+00 -.26552645E+03 0.26552665E+03 0.32000000E+00 0.0000E+00 0.9000E+01
       25  1    1    2    0    0 -.29311912E+03 -.49603909E+03 0.11666397E+04 0.13071522E+04 0.12500000E+03 0.0000E+00 0.9000E+01
        1  1    1    2  502    0 -.42048577E+02 -.11288040E+00 0.11199262E+04 0.11207154E+04 0.32000000E+00 0.0000E+00 0.9000E+01
       -1  1    1    2    0  501 0.33516770E+03 0.49615197E+03 0.26503813E+03 0.65478964E+03 0.32000000E+00 0.0000E+00 0.9000E+01
#aMCatNLO 1  0  0  4  1 0.68257589D+02 0.00000000D+00  -5  6  0 0.00000000D+00 0.00000000D+00 0.00000000D+00 0.00000000D+00 0.00000000D+00
  <mgrwgt>
 0.4624501785D-03    4    2    0
 0.864883235830334D+03 0.000000000000000D+00 0.000000000000000D+00 0.864883235830334D+03
 0.864883235830334D+03 -.000000000000000D+00 -.000000000000000D+00 -.864883235830334D+03
 0.608717854156279D+03 -.293193155807359D+03 -.496127729182823D+03 0.151021441167281D+03
 0.345050910983877D+03 -.420263801581566D+02 -.112820814609045D+00 0.342481972975322D+03
 0.775997706520512D+03 0.335219535965516D+03 0.496240549997432D+03 -.493503414142603D+03
 0.000000000000000D+00 0.000000000000000D+00 0.000000000000000D+00 -.000000000000000D+00
 0.864883235830334D+03 0.000000000000000D+00 0.000000000000000D+00 0.864883235830334D+03
 0.864883235830334D+03 -.000000000000000D+00 -.000000000000000D+00 -.864883235830334D+03
 0.630832766420357D+03 -.300875362800407D+03 -.496148352249756D+03 0.213625391302476D+03
 0.126491571381432D+03 0.529413409129515D+02 0.114879266114253D+03 0.293717437711366D+00
 0.725865589945615D+03 0.325911626690018D+03 0.496215562694152D+03 -.417651267920365D+03
 0.246576543913264D+03 -.779776048025618D+02 -.114946476558649D+03 0.203732159180177D+03
0.119733548101D-02 0.000000000000D+00 0.000000000000D+00 0.312545102444D-05 0.000000000000D+00  6 1 -1 25 1 -1 21 0 0.43340472D+00 0.40850240D-01 0.37857405D+06 0.37857405D+06 0.37857405D+06 0.10771555D+01  1  2  2  3  6  4        1 0.696432975384D-03 0.100000000000D+01
0.477935679814D-03 0.000000000000D+00 -.459808351276D-05 0.312545102444D-05 0.000000000000D+00  6 1 -1 25 1 -1 21 2 0.43340472D+00 0.40850240D-01 0.37857405D+06 0.37857405D+06 0.37857405D+06 0.10771555D+01  1  2  3  3  6  4        1 0.322544546772D-03 0.100000000000D+01
-.714466481867D-03 0.000000000000D+00 0.000000000000D+00 0.312545102444D-05 0.000000000000D+00  6 1 -1 25 1 -1 21 2 0.43340472D+00 0.40850240D-01 0.37857405D+06 0.37857405D+06 0.37857405D+06 0.10771555D+01  1  2 15  3  6  4        1 -.482172135939D-03 0.100000000000D+01
-.110177050248D-03 0.000000000000D+00 0.000000000000D+00 0.312545102444D-05 0.000000000000D+00  6 1 -1 25 1 -1 21 2 0.43340472D+00 0.40850240D-01 0.37857405D+06 0.37857405D+06 0.37857405D+06 0.10771555D+01  1  2  4  3  6  4        1 -.743552076937D-04 0.100000000000D+01
  </mgrwgt>
  </event>
  <event>
  5     66 0.17456057E-05 0.10467443E+03 0.75467711E-02 0.94095728E-01
        1 -1    0    0  502    0 0.00000000E+00 0.00000000E+00 0.36670491E+04 0.36670491E+04 0.32000000E+00 0.0000E+00 0.9000E+01
       -1 -1    0    0    0  501 0.00000000E+00 0.00000000E+00 -.61460851E+03 0.61460859E+03 0.32000000E+00 0.0000E+00 0.9000E+01
       25  1    1    2    0    0 0.92462754E+02 -.46870185E+03 0.12351770E+03 0.50903085E+03 0.12500000E+03 0.0000E+00 0.9000E+01
        1  1    1    2  502    0 0.54379026E+02 0.89442950E+02 0.32517165E+04 0.32534009E+04 0.32000000E+00 0.0000E+00 0.9000E+01
       -1  1    1    2    0  501 -.14684178E+03 0.37925890E+03 -.32279358E+03 0.51922598E+03 0.32000000E+00 0.0000E+00 0.9000E+01
#aMCatNLO 1  0  0  1  2 0.87662860D+02 0.00000000D+00  -5  6  0 0.00000000D+00 0.00000000D+00 0.00000000D+00 0.00000000D+00 0.00000000D+00
  <mgrwgt>
 0.6463558669D-02    9    2    0
 0.150126606450200D+04 0.000000000000000D+00 0.000000000000000D+00 0.150126606450200D+04
 0.150126606450200D+04 0.000000000000000D+00 0.000000000000000D+00 -.150126606450200D+04
 0.600322052889523D+03 0.924731511181760D+02 -.468729451810478D+03 -.341325335293492D+03
 0.133361016333562D+04 0.543780739688091D+02 0.894413837940190D+02 0.132949589382161D+04
 0.106859991277885D+04 -.146851225086985D+03 0.379288068016459D+03 -.988170558528115D+03
 0.000000000000000D+00 0.000000000000000D+00 0.000000000000000D+00 0.000000000000000D+00
 0.167361465899860D+04 0.000000000000000D+00 0.000000000000000D+00 0.167361465899860D+04
 0.151309445815750D+04 0.000000000000000D+00 0.000000000000000D+00 -.151309445815750D+04
 0.611224341509376D+03 0.838765771714784D+02 -.484181712730203D+03 -.341325335293492D+03
 0.133112460925179D+04 0.354703461040008D+02 0.554549205613713D+02 0.132949589382161D+04
 0.106146262167286D+04 -.161965165562694D+03 0.352120901979859D+03 -.988170558528115D+03
 0.182897544722080D+03 0.426182422872144D+02 0.766058901889728D+02 0.160520200841104D+03
0.319100654091D-01 0.000000000000D+00 0.000000000000D+00 0.888010352343D-04 0.000000000000D+00  6 1 -1 25 1 -1 21 0 0.56416141D+00 0.94555162D-01 0.25262913D+06 0.25262913D+06 0.25262913D+06 0.10901175D+01  1  2  2  1  6  1        1 0.825418834686D-03 0.100000000000D+01
0.833364153513D-02 0.000000000000D+00 -.122543053284D-03 0.888010352343D-04 0.000000000000D+00  6 1 -1 25 1 -1 21 2 0.56416141D+00 0.94555162D-01 0.25262913D+06 0.25262913D+06 0.25262913D+06 0.10901175D+01  1  2  3  1  6  1        1 0.256169898756D-03 0.100000000000D+01
-.173436686479D-01 0.000000000000D+00 0.000000000000D+00 0.888010352343D-04 0.000000000000D+00  6 1 -1 25 1 -1 21 2 0.56416141D+00 0.94555162D-01 0.25262913D+06 0.25262913D+06 0.25262913D+06 0.10901175D+01  1  2 15  1  6  1        1 -.533131383545D-03 0.100000000000D+01
0.284845881141D-08 0.000000000000D+00 0.000000000000D+00 0.888010352343D-04 0.000000000000D+00  6 1 -1 25 1 -1 21 2 0.63099545D+00 0.94555162D-01 0.27463816D+06 0.27463816D+06 0.27463816D+06 0.10874014D+01  1  2 12  1  6  1        1 0.350262058613D-10 0.100000000000D+01
-.311677708861D-02 0.000000000000D+00 0.000000000000D+00 0.888010352343D-04 0.000000000000D+00  6 1 -1 25 1 -1 21 2 0.56416141D+00 0.94555162D-01 0.25262913D+06 0.25262913D+06 0.25262913D+06 0.10901175D+01  1  2  4  1  6  1        1 -.958073931868D-04 0.100000000000D+01
-.317658751767D+00 0.000000000000D+00 -.354462817904D-01 0.888010352343D-04 0.000000000000D+00  6 1 -1 25 1 -1 21 2 0.62981602D+00 0.94555162D-01 0.25262913D+06 0.25262913D+06 0.25262913D+06 0.10901175D+01  1  2  5  1  6  1        1 -.403158126717D-02 0.100000000000D+01
0.326870455724D+00 0.000000000000D+00 0.363898943972D-01 0.888010352343D-04 0.000000000000D+00  6 1 -1 25 1 -1 21 2 0.56416141D+00 0.94555162D-01 0.25262913D+06 0.25262913D+06 0.25262913D+06 0.10901175D+01  1  2  6  1  6  1        1 0.100477529776D-01 0.100000000000D+01
0.509678443967D-10 0.000000000000D+00 0.000000000000D+00 0.888010352343D-04 0.000000000000D+00  6 21 -1 25 1 -1 -1 2 0.63099545D+00 0.94555162D-01 0.27463816D+06 0.27463816D+06 0.27463816D+06 0.10874014D+01  1  2 12  5  6  1        1 0.471262972196D-13 0.100000000000D+01
-.546317630286D-02 0.000000000000D+00 -.625214533480D-03 0.888010352343D-04 0.000000000000D+00  6 21 -1 25 1 -1 -1 2 0.62981602D+00 0.94555162D-01 0.25262913D+06 0.25262913D+06 0.25262913D+06 0.10901175D+01  1  2  5  5  6  1        1 -.526303284845D-05 0.100000000000D+01
  </mgrwgt>
  </event>
  <event>
  5     66 0.17456057E-05 0.18927144E+03 0.75467711E-02 0.88544594E-01
        1 -1    0    0  502    0 0.00000000E+00 0.00000000E+00 0.35700510E+04 0.35700510E+04 0.32000000E+00 0.0000E+00 0.9000E+01
       -1 -1    0    0    0  501 0.00000000E+00 0.00000000E+00 -.10827450E+04 0.10827450E+04 0.32000000E+00 0.0000E+00 0.9000E+01
       25  1    1    2    0    0 0.27403110E+03 0.51358789E+03 -.52240491E+03 0.79208425E+03 0.12500000E+03 0.0000E+00 0.9000E+01
        1  1    1    2  502    0 -.13137742E+03 -.38919573E+03 0.34011762E+04 0.34258916E+04 0.32000000E+00 0.0000E+00 0.9000E+01
       -1  1    1    2    0  501 -.14265369E+03 -.12439217E+03 -.39146526E+03 0.43482024E+03 0.32000000E+00 0.0000E+00 0.9000E+01
#aMCatNLO 1  0  0  1  1 0.49501757D+02 0.00000000D+00  -5  6  0 0.00000000D+00 0.00000000D+00 0.00000000D+00 0.00000000D+00 0.00000000D+00
  <mgrwgt>
 0.1026373821D-02    7    2    0
 0.196607602879414D+04 0.000000000000000D+00 0.000000000000000D+00 0.196607602879414D+04
 0.196607602879414D+04 0.000000000000000D+00 0.000000000000000D+00 -.196607602879414D+04
 0.126769862983854D+04 0.274031417536611D+03 0.513588260992438D+03 -.111918215517768D+04
 0.190231906488431D+04 -.131377406462204D+03 -.389195688589418D+03 0.185744031335518D+04
 0.762134362865429D+03 -.142654011074408D+03 -.124392572403020D+03 -.738258158177500D+03
 0.000000000000000D+00 0.000000000000000D+00 0.000000000000000D+00 0.000000000000000D+00
 0.272862632413325D+04 0.000000000000000D+00 0.000000000000000D+00 0.272862632413325D+04
 0.203732665889709D+04 0.000000000000000D+00 0.000000000000000D+00 -.203732665889709D+04
 0.121302713383787D+04 0.230213008144970D+03 0.387612050689349D+03 -.111918215517768D+04
 0.195764695183307D+04 -.199558087146427D+03 -.585212474404600D+03 0.185744031335518D+04
 0.784278108310450D+03 -.169969136245641D+03 -.202922487130661D+03 -.738258158177500D+03
 0.811000789048956D+03 0.139314215247098D+03 0.400522910845912D+03 0.691299665236163D+03
0.576872360836D-01 0.000000000000D+00 0.000000000000D+00 0.117168291086D-04 0.000000000000D+00  6 1 -1 25 1 -1 21 0 0.54923862D+00 0.16657616D+00 0.35726598D+06 0.35726598D+06 0.35726598D+06 0.10789829D+01  1  2  2  1  6  1        1 0.402603260381D-03 0.100000000000D+01
0.294870023797D-02 0.000000000000D+00 -.221534175959D-03 0.117168291086D-04 0.000000000000D+00  6 1 -1 25 1 -1 21 2 0.54923862D+00 0.16657616D+00 0.35726598D+06 0.35726598D+06 0.35726598D+06 0.10789829D+01  1  2  3  1  6  1        1 0.239583710470D-04 0.100000000000D+01
-.354787712633D-01 0.000000000000D+00 0.000000000000D+00 0.117168291086D-04 0.000000000000D+00  6 1 -1 25 1 -1 21 2 0.54923862D+00 0.16657616D+00 0.35726598D+06 0.35726598D+06 0.35726598D+06 0.10789829D+01  1  2 15  1  6  1        1 -.288267201689D-03 0.100000000000D+01
-.565297212904D-02 0.000000000000D+00 0.000000000000D+00 0.117168291086D-04 0.000000000000D+00  6 1 -1 25 1 -1 21 2 0.54923862D+00 0.16657616D+00 0.35726598D+06 0.35726598D+06 0.35726598D+06 0.10789829D+01  1  2  4  1  6  1        1 -.459307467210D-04 0.100000000000D+01
-.109376325958D+00 0.000000000000D+00 -.256893140384D-01 0.117168291086D-04 0.000000000000D+00  6 1 -1 25 1 -1 21 2 0.76509532D+00 0.16657616D+00 0.35726598D+06 0.35726598D+06 0.35726598D+06 0.10789829D+01  1  2  5  1  6  1        1 -.301054286953D-04 0.100000000000D+01
0.118664375574D+00 0.000000000000D+00 0.259192443788D-01 0.117168291086D-04 0.000000000000D+00  6 1 -1 25 1 -1 21 2 0.54923862D+00 0.16657616D+00 0.35726598D+06 0.35726598D+06 0.35726598D+06 0.10789829D+01  1  2  6  1  6  1        1 0.964155360206D-03 0.100000000000D+01
-.387275385158D-02 0.000000000000D+00 -.106707172505D-02 0.117168291086D-04 0.000000000000D+00  6 21 -1 25 1 -1 -1 2 0.76509532D+00 0.16657616D+00 0.35726598D+06 0.35726598D+06 0.35726598D+06 0.10789829D+01  1  2  5  5  6  1        1 -.397932225132D-07 0.100000000000D+01
  </mgrwgt>
  </event>
  <event>
  5     66 0.17456057E-05 0.27304752E+02 0.75467711E-02 0.92152883E-01
        1 -1    0    0  502    0 0.00000000E+00 0.00000000E+00 0.83263051E+03 0.83263057E+03 0.32000000E+00 0.0000E+00 0.9000E+01
       -1 -1    0    0    0  501 -.00000000E+00 -.00000000E+00 -.17107205E+04 0.17107205E+04 0.32000000E+00 0.0000E+00 0.9000E+01
       25  1    1    2    0    0 -.50006090E+03 -.11984256E+03 0.88084122E+02 0.53647642E+03 0.12500000E+03 0.0000E+00 0.9000E+01
        1  1    1    2  502    0 -.16340164E+02 0.21882158E+02 0.47348265E+03 0.47426971E+03 0.32000000E+00 0.0000E+00 0.9000E+01
       -1  1    1    2    0  501 0.51640106E+03 0.97960398E+02 -.14396568E+04 0.15326050E+04 0.32000000E+00 0.0000E+00 0.9000E+01
#aMCatNLO 1  0  0  4  1 0.42701163D+02 0.00000000D+00  -5  6  0 0.00000000D+00 0.00000000D+00 0.00000000D+00 0.00000000D+00 0.00000000D+00
  <mgrwgt>
 0.9691016799D-03    6    2    0
 0.119348154692088D+04 0.000000000000000D+00 0.000000000000000D+00 0.119348154692088D+04
 0.119348154692088D+04 -.000000000000000D+00 -.000000000000000D+00 -.119348154692088D+04
 0.604139615469551D+03 -.500128326833901D+03 -.119851663829117D+03 0.291319258469831D+03
 0.679394575778732D+03 -.163370929728332D+02 0.218780455326247D+02 0.678845667375459D+03
 0.110342890259348D+04 0.516465419806734D+03 0.979736182964923D+02 -.970164925845290D+03
 0.000000000000000D+00 0.000000000000000D+00 0.000000000000000D+00 0.000000000000000D+00
 0.119348154692088D+04 0.000000000000000D+00 0.000000000000000D+00 0.119348154692088D+04
 0.119348154692088D+04 -.000000000000000D+00 -.000000000000000D+00 -.119348154692088D+04
 0.612005052782241D+03 -.500502900215343D+03 -.119350048669790D+03 0.306883687069781D+03
 0.582723219933092D+03 -.964474785339997D+02 -.297735707741630D+02 0.573914426911348D+03
 0.107871690404974D+04 0.515793317420453D+03 0.988736735654494D+02 -.942237448556753D+03
 0.113517917076686D+03 0.811570613288899D+02 0.502499458785036D+02 0.614393345756243D+02
0.608476951885D-02 0.000000000000D+00 0.000000000000D+00 0.779647323964D-04 0.000000000000D+00  6 1 -1 25 1 -1 21 0 0.12809701D+00 0.26318778D+00 0.29281214D+06 0.29281214D+06 0.29281214D+06 0.10853319D+01  1  2  2  3  6  4        1 0.653064742715D-03 0.100000000000D+01
0.379311583431D-02 0.000000000000D+00 -.233671171090D-04 0.779647323964D-04 0.000000000000D+00  6 1 -1 25 1 -1 21 2 0.12809701D+00 0.26318778D+00 0.29281214D+06 0.29281214D+06 0.29281214D+06 0.10853319D+01  1  2  3  3  6  4        1 0.479549432455D-03 0.100000000000D+01
-.328999960717D-02 0.000000000000D+00 0.000000000000D+00 0.779647323964D-04 0.000000000000D+00  6 1 -1 25 1 -1 21 2 0.12809701D+00 0.26318778D+00 0.29281214D+06 0.29281214D+06 0.29281214D+06 0.10853319D+01  1  2 15  3  6  4        1 -.415942331664D-03 0.100000000000D+01
-.519960455436D-03 0.000000000000D+00 0.000000000000D+00 0.779647323964D-04 0.000000000000D+00  6 1 -1 25 1 -1 21 2 0.12809701D+00 0.26318778D+00 0.29281214D+06 0.29281214D+06 0.29281214D+06 0.10853319D+01  1  2  4  3  6  4        1 -.657366535047D-04 0.100000000000D+01
-.139181265504D-01 0.000000000000D+00 0.000000000000D+00 0.779647323964D-04 0.000000000000D+00  6 1 -1 25 1 -1 21 2 0.12809701D+00 0.26318778D+00 0.29281214D+06 0.29281214D+06 0.29281214D+06 0.10853319D+01  1  2  5  3  6  4        1 -.175961662644D-02 0.100000000000D+01
0.164347437522D-01 0.000000000000D+00 -.000000000000D+00 0.779647323964D-04 0.000000000000D+00  6 1 -1 25 1 -1 21 2 0.12809701D+00 0.26318778D+00 0.29281214D+06 0.29281214D+06 0.29281214D+06 0.10853319D+01  1  2  6  3  6  4        1 0.207778311636D-02 0.100000000000D+01
  </mgrwgt>
  </event>
  <event>
  6     66 -.17456057E-05 0.14515632E+02 0.75467711E-02 0.93489991E-01
        1 -1    0    0  502    0 0.00000000E+00 0.00000000E+00 0.99856436E+03 0.99856441E+03 0.32000000E+00 0.0000E+00 0.9000E+01
       -1 -1    0    0    0  501 -.00000000E+00 -.00000000E+00 -.17738216E+04 0.17738217E+04 0.32000000E+00 0.0000E+00 0.9000E+01
       25  1    1    2    0    0 0.25812283E+03 0.45216856E+03 -.16145914E+04 0.17010626E+04 0.12500000E+03 0.0000E+00 0.9000E+01
        1  1    1    2  502    0 -.25569434E+03 -.45501963E+03 0.86829618E+03 0.10130947E+04 0.32000000E+00 0.0000E+00 0.9000E+01
       -1  1    1    2    0  503 -.42734549E+00 -.23785852E+02 -.13469600E+02 0.27340116E+02 0.32000000E+00 0.0000E+00 0.9000E+01
       21  1    1    2  503  501 -.20011430E+01 0.26636923E+02 -.15492506E+02 0.30888679E+02 0.75000000E+00 0.0000E+00 0.9000E+01
#aMCatNLO 2  0  0  5  2 0.28570705D+01 0.00000000D+00  -5  6  0 0.00000000D+00 0.00000000D+00 0.00000000D+00 0.00000000D+00 0.00000000D+00
  <mgrwgt>
 -.6010288171D-03    2    2    0
 0.133089262763546D+04 0.000000000000000D+00 0.000000000000000D+00 0.133089262763546D+04
 0.133089262763546D+04 -.000000000000000D+00 -.000000000000000D+00 -.133089262763546D+04
 0.128537463652288D+04 0.261307215648298D+03 0.448469992001760D+03 -.116925453240105D+04
 0.132579342039753D+04 -.252311653822585D+03 -.459019347854744D+03 0.121793606614210D+04
 0.506171983505086D+02 -.899556182571372D+01 0.105493558529833D+02 -.486815337410565D+02
 0.000000000000000D+00 0.000000000000000D+00 0.000000000000000D+00 0.000000000000000D+00
 0.133089262763546D+04 0.000000000000000D+00 0.000000000000000D+00 0.133089262763546D+04
 0.133089262763546D+04 -.000000000000000D+00 -.000000000000000D+00 -.133089262763546D+04
 0.130206640820228D+04 0.258056879348727D+03 0.452281755505851D+03 -.118684446833868D+04
 0.130864697769143D+04 -.255621030580143D+03 -.455138345895836D+03 0.120002661930529D+04
 0.234662894265310D+02 -.827794040633621D-01 -.231053959748199D+02 -.409884909050822D+01
 0.276055799506698D+02 -.235306936452125D+01 0.259619863648049D+02 -.908330187609408D+01
-.779005966950D-02 0.000000000000D+00 0.000000000000D+00 0.543634430617D-05 0.000000000000D+00  6 1 -1 25 1 -1 21 2 0.15362529D+00 0.27289564D+00 0.28705026D+06 0.28705026D+06 0.28705026D+06 0.10859725D+01  1  2  8  4  6  5       -1 -.601350833628D-03 0.100000000000D+01
0.421271321574D-05 0.000000000000D+00 0.000000000000D+00 0.543634430617D-05 0.497910783620D-10  6 1 -1 25 1 -1 21 2 0.15362529D+00 0.27289564D+00 0.30619532D+06 0.30619532D+06 0.30619532D+06 0.10838957D+01  1  2  1  4  6  5       -1 0.322016483604D-06 0.100000000000D+01
  </mgrwgt>
  </event>
</LesHouchesEvents>
