<event>
 5    0  0.1911311E+001  0.2082377E+03  0.7546771E-02  0.1142969E+00
         21   -1    0    0  502  501  0.00000000000E+00  0.00000000000E+00  0.32977128243E+03  0.32977128243E+03  0.00000000000E+00 0. -1.
         21   -1    0    0  504  502 -0.00000000000E+00 -0.00000000000E+00 -0.17952545955E+04  0.17952545955E+04  0.00000000000E+00 0. -1.
         25    1    1    2    0    0  0.11589459524E+03  0.22691776705E+03  0.18859516236E+03  0.34075851490E+03  0.12500000000E+03 0.  0.
         21    1    1    2  503  501 -0.10171919926E+03 -0.62067048066E+02  0.27557377321E+01  0.11919189588E+03  0.00000000000E+00 0. -1.
         21    1    1    2  504  503 -0.14175395987E+02 -0.16485071898E+03 -0.16568342132E+04  0.16650754672E+04  0.00000000000E+00 0. -1.
<mgrwt>
<rscale>  4 0.20823773E+03</rscale>
<asrwt>0</asrwt>
<pdfrwt beam="1">  1       21 0.50734043E-01 0.20823773E+03</pdfrwt>
<pdfrwt beam="2">  1       21 0.27619302E+00 0.20823773E+03</pdfrwt>
<totfact> 0.16910412E+02</totfact>
</mgrwt>
</event>
<event>
 5    0  0.1911311E+001  0.3061295E+03  0.7546771E-02  0.1082216E+00
         21   -1    0    0  504  501  0.00000000000E+00  0.00000000000E+00  0.14569815920E+04  0.14569815920E+04  0.00000000000E+00 0.  1.
         21   -1    0    0  503  502 -0.00000000000E+00 -0.00000000000E+00 -0.17071557529E+03  0.17071557529E+03  0.00000000000E+00 0.  1.
         25    1    1    2    0    0 -0.23067868767E+03  0.28419068544E+03  0.19467290711E+03  0.43301217466E+03  0.12500000000E+03 0.  0.
         21    1    1    2  503  501  0.67609484779E+02 -0.72319261852E+02  0.35338514518E+02  0.10511864095E+03  0.00000000000E+00 0. -1.
         21    1    1    2  504  502  0.16306920290E+03 -0.21187142359E+03  0.10562545951E+04  0.10895663517E+04  0.00000000000E+00 0.  1.
<mgrwt>
<rscale>  4 0.30612948E+03</rscale>
<asrwt>0</asrwt>
<pdfrwt beam="1">  1       21 0.22415101E+00 0.30612948E+03</pdfrwt>
<pdfrwt beam="2">  1       21 0.26263936E-01 0.30612948E+03</pdfrwt>
<totfact> 0.11794428E+03</totfact>
</mgrwt>
</event>
<event>
 5    0  0.1911311E+001  0.2779427E+03  0.7546771E-02  0.1096818E+00
         21   -1    0    0  502  501  0.00000000000E+00  0.00000000000E+00  0.31475111926E+03  0.31475111926E+03  0.00000000000E+00 0. -1.
         21   -1    0    0  504  502 -0.00000000000E+00 -0.00000000000E+00 -0.23230691901E+03  0.23230691901E+03  0.00000000000E+00 0. -1.
         25    1    1    2    0    0  0.13695078106E+03 -0.20705470386E+03  0.20876498242E+02  0.27872566262E+03  0.12500000000E+03 0.  0.
         21    1    1    2  503  501 -0.51927051750E+01  0.52264353083E+02  0.35500236972E+02  0.63393955669E+02  0.00000000000E+00 0.  1.
         21    1    1    2  504  503 -0.13175807588E+03  0.15479035077E+03  0.26067465044E+02  0.20493841999E+03  0.00000000000E+00 0. -1.
<mgrwt>
<rscale>  4 0.27794274E+03</rscale>
<asrwt>0</asrwt>
<pdfrwt beam="1">  1       21 0.48423249E-01 0.27794274E+03</pdfrwt>
<pdfrwt beam="2">  1       21 0.35739526E-01 0.27794274E+03</pdfrwt>
<totfact> 0.29529170E+04</totfact>
</mgrwt>
</event>
