<event>
 5    0  0.1911311E+001  0.2749529E+03  0.7546771E-02  0.1098478E+00
         21   -1    0    0  504  501  0.00000000000E+00  0.00000000000E+00  0.74003443270E+03  0.74003443270E+03  0.00000000000E+00 0.  1.
         21   -1    0    0  503  502 -0.00000000000E+00 -0.00000000000E+00 -0.50130610597E+03  0.50130610597E+03  0.00000000000E+00 0. -1.
         25    1    1    2    0    0 -0.19072270285E+03  0.14737867520E+03 -0.23017752191E+03  0.35595268629E+03  0.12500000000E+03 0.  0.
         21    1    1    2  503  501 -0.27398082158E+02 -0.34776118311E+02 -0.18327202380E+03  0.18854354409E+03  0.00000000000E+00 0. -1.
         21    1    1    2  504  502  0.21812078500E+03 -0.11260255689E+03  0.65217787245E+03  0.69684430828E+03  0.00000000000E+00 0.  1.
<mgrwt>
<rscale>  4 0.27495286E+03</rscale>
<asrwt>0</asrwt>
<pdfrwt beam="1">  1       21 0.11385145E+00 0.27495286E+03</pdfrwt>
<pdfrwt beam="2">  1       21 0.77124016E-01 0.27495286E+03</pdfrwt>
<totfact> 0.83480913E+02</totfact>
</mgrwt>
</event>
<event>
 5    0  0.1911311E+001  0.3257409E+03  0.7546771E-02  0.1073037E+00
         21   -1    0    0  503  501  0.00000000000E+00  0.00000000000E+00  0.72681695265E+02  0.72681695265E+02  0.00000000000E+00 0. -1.
         21   -1    0    0  504  502 -0.00000000000E+00 -0.00000000000E+00 -0.19640585270E+04  0.19640585270E+04  0.00000000000E+00 0. -1.
         25    1    1    2    0    0  0.19418089191E+03 -0.17871239109E+03 -0.84829856917E+03  0.89715093489E+03  0.12500000000E+03 0.  0.
         21    1    1    2  503  502  0.24411326844E+02 -0.62594540970E+02 -0.51385595734E+03  0.51822961545E+03  0.00000000000E+00 0. -1.
         21    1    1    2  504  501 -0.21859221875E+03  0.24130693206E+03 -0.52922230527E+03  0.62135967197E+03  0.00000000000E+00 0. -1.
<mgrwt>
<rscale>  4 0.32574091E+03</rscale>
<asrwt>0</asrwt>
<pdfrwt beam="1">  1       21 0.11181801E-01 0.32574091E+03</pdfrwt>
<pdfrwt beam="2">  1       21 0.30216282E+00 0.32574091E+03</pdfrwt>
<totfact> 0.19428753E+03</totfact>
</mgrwt>
</event>
<event>
 5    0  0.1911311E+001  0.2411788E+03  0.7546771E-02  0.1119010E+00
         21   -1    0    0  504  501  0.00000000000E+00  0.00000000000E+00  0.10862448784E+04  0.10862448784E+04  0.00000000000E+00 0. -1.
         21   -1    0    0  503  502 -0.00000000000E+00 -0.00000000000E+00 -0.85034888275E+02  0.85034888275E+02  0.00000000000E+00 0. -1.
         25    1    1    2    0    0  0.18736814994E+03 -0.12665594920E+03  0.41914055003E+03  0.49239451028E+03  0.12500000000E+03 0.  0.
         21    1    1    2  503  501 -0.14190877577E+03  0.13841190177E+03  0.16146920431E+03  0.25567217122E+03  0.00000000000E+00 0. -1.
         21    1    1    2  504  502 -0.45459374167E+02 -0.11755952579E+02  0.42060023581E+03  0.42321308520E+03  0.00000000000E+00 0. -1.
<mgrwt>
<rscale>  4 0.24117884E+03</rscale>
<asrwt>0</asrwt>
<pdfrwt beam="1">  1       21 0.16711459E+00 0.24117884E+03</pdfrwt>
<pdfrwt beam="2">  1       21 0.13082291E-01 0.24117884E+03</pdfrwt>
<totfact> 0.10857903E+04</totfact>
</mgrwt>
</event>
