<event>
 5    0  0.3188794E-002  0.6051745E+03  0.7546771E-02  0.9894728E-01
          1   -1    0    0  503    0 -0.00000000000E+00  0.00000000000E+00  0.48474838102E+03  0.48474838102E+03  0.00000000000E+00 0.  1.
         21   -1    0    0  501  502  0.00000000000E+00 -0.00000000000E+00 -0.45855621870E+03  0.45855621870E+03  0.00000000000E+00 0. -1.
         25    1    1    2    0    0 -0.74692744209E+02 -0.37471512682E+03 -0.15176774309E+03  0.42970790096E+03  0.12500000000E+03 0.  0.
         21    1    1    2  503  502 -0.83392336110E+02  0.17854576940E+03 -0.12964890296E+02  0.19748661188E+03  0.00000000000E+00 0.  1.
          1    1    1    2  501    0  0.15808508032E+03  0.19616935742E+03  0.19092479571E+03  0.31611008687E+03  0.00000000000E+00 0.  1.
<mgrwt>
<rscale>  4 0.60517445E+03</rscale>
<asrwt>0</asrwt>
<pdfrwt beam="1">  1       21 0.70547110E-01 0.60517445E+03</pdfrwt>
<pdfrwt beam="2">  1        1 0.74576674E-01 0.60517445E+03</pdfrwt>
<totfact> 0.84018908E+02</totfact>
</mgrwt>
</event>
<event>
 5    0  0.3188794E-002  0.5389798E+03  0.7546771E-02  0.1004077E+00
          2   -1    0    0  503    0 -0.00000000000E+00  0.00000000000E+00  0.61407138370E+03  0.61407138370E+03  0.00000000000E+00 0.  1.
         21   -1    0    0  501  502  0.00000000000E+00 -0.00000000000E+00 -0.48035986125E+03  0.48035986125E+03  0.00000000000E+00 0. -1.
         25    1    1    2    0    0  0.59140506309E+02 -0.37385824384E+03 -0.13441880254E+03  0.42066732753E+03  0.12500000000E+03 0.  0.
         21    1    1    2  503  502  0.13990501934E+03 -0.83746805622E+01 -0.37917271588E+02  0.14519390206E+03  0.00000000000E+00 0.  1.
          2    1    1    2  501    0 -0.19904552564E+03  0.38223292441E+03  0.30604759657E+03  0.52857001537E+03  0.00000000000E+00 0.  1.
<mgrwt>
<rscale>  4 0.53897979E+03</rscale>
<asrwt>0</asrwt>
<pdfrwt beam="1">  1       21 0.73901517E-01 0.53897979E+03</pdfrwt>
<pdfrwt beam="2">  1        2 0.94472520E-01 0.53897979E+03</pdfrwt>
<totfact> 0.90748928E+02</totfact>
</mgrwt>
</event>
<event>
 5    0  0.3188794E-002  0.4820928E+03  0.7546771E-02  0.1018562E+00
          2   -1    0    0  503    0 -0.00000000000E+00  0.00000000000E+00  0.34652893321E+04  0.34652893321E+04  0.00000000000E+00 0. -1.
         21   -1    0    0  501  502  0.00000000000E+00 -0.00000000000E+00 -0.19099972415E+02  0.19099972415E+02  0.00000000000E+00 0.  1.
         25    1    1    2    0    0  0.16505761857E+03  0.12615142548E+03  0.10197511912E+04  0.10481773187E+04  0.12500000000E+03 0.  0.
         21    1    1    2  503  502 -0.14006277860E+03 -0.10670640917E+03  0.22556960344E+04  0.22625579416E+04  0.00000000000E+00 0. -1.
          2    1    1    2  501    0 -0.24994839967E+02 -0.19445016310E+02  0.17074213414E+03  0.17365404416E+03  0.00000000000E+00 0. -1.
<mgrwt>
<rscale>  4 0.48209277E+03</rscale>
<asrwt>0</asrwt>
<pdfrwt beam="1">  1       21 0.29384600E-02 0.48209277E+03</pdfrwt>
<pdfrwt beam="2">  1        2 0.53312094E+00 0.48209277E+03</pdfrwt>
<totfact> 0.83736353E+03</totfact>
</mgrwt>
</event>
<event>
 5    0  0.3188794E-002  0.5339449E+03  0.7546771E-02  0.1005280E+00
          1   -1    0    0  503    0 -0.00000000000E+00  0.00000000000E+00  0.86510232084E+03  0.86510232084E+03  0.00000000000E+00 0.  1.
         21   -1    0    0  501  502  0.00000000000E+00 -0.00000000000E+00 -0.17736008719E+03  0.17736008719E+03  0.00000000000E+00 0. -1.
         25    1    1    2    0    0  0.99906198889E+02 -0.19151355327E+03  0.22093322196E+03  0.33330943315E+03  0.12500000000E+03 0.  0.
         21    1    1    2  503  502 -0.14144004230E+03  0.20546973162E+03  0.55621445987E+03  0.60958807530E+03  0.00000000000E+00 0.  1.
          1    1    1    2  501    0  0.41533843416E+02 -0.13956178352E+02 -0.89405448184E+02  0.99564899579E+02  0.00000000000E+00 0.  1.
<mgrwt>
<rscale>  4 0.53394493E+03</rscale>
<asrwt>0</asrwt>
<pdfrwt beam="1">  1       21 0.27286168E-01 0.53394493E+03</pdfrwt>
<pdfrwt beam="2">  1        1 0.13309266E+00 0.53394493E+03</pdfrwt>
<totfact> 0.26751608E+03</totfact>
</mgrwt>
</event>
<event>
 5    0  0.3188794E-002  0.4414343E+03  0.7546771E-02  0.1030308E+00
         -4   -1    0    0    0  501 -0.00000000000E+00  0.00000000000E+00  0.22857089534E+03  0.22857089534E+03  0.00000000000E+00 0.  1.
         21   -1    0    0  503  502  0.00000000000E+00 -0.00000000000E+00 -0.51971407797E+03  0.51971407797E+03  0.00000000000E+00 0. -1.
         25    1    1    2    0    0 -0.18843260753E+03 -0.68151307491E+02 -0.73079162766E+02  0.24721855174E+03  0.12500000000E+03 0.  0.
         21    1    1    2  503  501  0.16629824472E+03  0.50412035126E+02  0.87244517355E+02  0.19444301297E+03  0.00000000000E+00 0.  1.
         -4    1    1    2    0  502  0.22134362812E+02  0.17739272365E+02 -0.30530853722E+03  0.30662340860E+03  0.00000000000E+00 0.  1.
<mgrwt>
<rscale>  4 0.44143434E+03</rscale>
<asrwt>0</asrwt>
<pdfrwt beam="1">  1       21 0.79956012E-01 0.44143434E+03</pdfrwt>
<pdfrwt beam="2">  1       -4 0.35164753E-01 0.44143434E+03</pdfrwt>
<totfact> 0.44221435E+02</totfact>
</mgrwt>
</event>
<event>
 5    0  0.3188794E-002  0.5692455E+03  0.7546771E-02  0.9971350E-01
         21   -1    0    0  501  502  0.00000000000E+00  0.00000000000E+00  0.59231622396E+02  0.59231622396E+02  0.00000000000E+00 0. -1.
          2   -1    0    0  503    0 -0.00000000000E+00 -0.00000000000E+00 -0.27779629145E+04  0.27779629145E+04  0.00000000000E+00 0. -1.
         25    1    1    2    0    0  0.26001762896E+03 -0.21312173586E+03 -0.11727447844E+04  0.12263708130E+04  0.12500000000E+03 0.  0.
         21    1    1    2  503  502 -0.18622839339E+03  0.21472265162E+02 -0.11456544071E+04  0.11608902158E+04  0.00000000000E+00 0. -1.
          2    1    1    2  501    0 -0.73789235576E+02  0.19164947069E+03 -0.40033210056E+03  0.44993350802E+03  0.00000000000E+00 0. -1.
<mgrwt>
<rscale>  4 0.56924547E+03</rscale>
<asrwt>0</asrwt>
<pdfrwt beam="1">  1       21 0.91125574E-02 0.56924547E+03</pdfrwt>
<pdfrwt beam="2">  1        2 0.42737890E+00 0.56924547E+03</pdfrwt>
<totfact> 0.30822928E+03</totfact>
</mgrwt>
</event>
<event>
 5    0  0.3188794E-002  0.4077099E+03  0.7546771E-02  0.1041142E+00
          2   -1    0    0  503    0 -0.00000000000E+00  0.00000000000E+00  0.17929273432E+04  0.17929273432E+04  0.00000000000E+00 0. -1.
         21   -1    0    0  501  502  0.00000000000E+00 -0.00000000000E+00 -0.70159738809E+02  0.70159738809E+02  0.00000000000E+00 0. -1.
         25    1    1    2    0    0  0.18953664600E+03 -0.12169660381E+03  0.14312728066E+04  0.14542699373E+04  0.12500000000E+03 0.  0.
         21    1    1    2  503  502 -0.83961778239E+02  0.84651725681E+02  0.26963038960E+03  0.29481526735E+03  0.00000000000E+00 0.  1.
          2    1    1    2  501    0 -0.10557486776E+03  0.37044878127E+02  0.21864408170E+02  0.11400187736E+03  0.00000000000E+00 0. -1.
<mgrwt>
<rscale>  4 0.40770991E+03</rscale>
<asrwt>0</asrwt>
<pdfrwt beam="1">  1       21 0.10793807E-01 0.40770991E+03</pdfrwt>
<pdfrwt beam="2">  1        2 0.27583494E+00 0.40770991E+03</pdfrwt>
<totfact> 0.82053813E+03</totfact>
</mgrwt>
</event>
<event>
 5    0  0.3188794E-002  0.5389192E+03  0.7546771E-02  0.1004092E+00
         21   -1    0    0  503  502  0.00000000000E+00  0.00000000000E+00  0.81081125066E+03  0.81081125066E+03  0.00000000000E+00 0. -1.
         -1   -1    0    0    0  501 -0.00000000000E+00 -0.00000000000E+00 -0.27898731093E+03  0.27898731093E+03  0.00000000000E+00 0. -1.
         25    1    1    2    0    0 -0.20274349926E+03  0.11670199963E+03  0.80986452402E+02  0.27732307636E+03  0.12500000000E+03 0.  0.
         21    1    1    2  503  501 -0.87759069968E+02 -0.85777948261E+02  0.50121543839E+03  0.51601979269E+03  0.00000000000E+00 0.  1.
         -1    1    1    2    0  502  0.29050256923E+03 -0.30924051373E+02 -0.50377951055E+02  0.29645569253E+03  0.00000000000E+00 0. -1.
<mgrwt>
<rscale>  4 0.53891916E+03</rscale>
<asrwt>0</asrwt>
<pdfrwt beam="1">  1       21 0.12474019E+00 0.53891916E+03</pdfrwt>
<pdfrwt beam="2">  1       -1 0.42921125E-01 0.53891916E+03</pdfrwt>
<totfact> 0.21148180E+02</totfact>
</mgrwt>
</event>
<event>
 5    0  0.3188794E-002  0.5442930E+03  0.7546771E-02  0.1002824E+00
          2   -1    0    0  503    0 -0.00000000000E+00  0.00000000000E+00  0.18680639161E+04  0.18680639161E+04  0.00000000000E+00 0.  1.
         21   -1    0    0  501  502  0.00000000000E+00 -0.00000000000E+00 -0.44955370148E+02  0.44955370148E+02  0.00000000000E+00 0. -1.
         25    1    1    2    0    0  0.24642952953E+03  0.16334217537E+02  0.89565624197E+03  0.93745369137E+03  0.12500000000E+03 0.  0.
         21    1    1    2  503  502 -0.26721957781E+03  0.11014334504E+02  0.84246868778E+03  0.88390107377E+03  0.00000000000E+00 0. -1.
          2    1    1    2  501    0  0.20790048273E+02 -0.27348552041E+02  0.84983616189E+02  0.91664521089E+02  0.00000000000E+00 0.  1.
<mgrwt>
<rscale>  4 0.54429304E+03</rscale>
<asrwt>0</asrwt>
<pdfrwt beam="1">  1       21 0.69162122E-02 0.54429304E+03</pdfrwt>
<pdfrwt beam="2">  1        2 0.28739439E+00 0.54429304E+03</pdfrwt>
<totfact> 0.16164987E+04</totfact>
</mgrwt>
</event>
<event>
 5    0  0.3188794E-002  0.4930811E+03  0.7546771E-02  0.1015601E+00
          2   -1    0    0  503    0 -0.00000000000E+00  0.00000000000E+00  0.16211107463E+04  0.16211107463E+04  0.00000000000E+00 0.  1.
         21   -1    0    0  501  502  0.00000000000E+00 -0.00000000000E+00 -0.63298743604E+02  0.63298743604E+02  0.00000000000E+00 0. -1.
         25    1    1    2    0    0  0.23839211965E+03  0.14103693679E+03  0.99581717999E+03  0.10411527631E+04  0.12500000000E+03 0.  0.
         21    1    1    2  503  502 -0.12013515344E+03 -0.13801242691E+03  0.42208887420E+03  0.46004228371E+03  0.00000000000E+00 0. -1.
          2    1    1    2  501    0 -0.11825696620E+03 -0.30245098816E+01  0.13990594852E+03  0.18321444306E+03  0.00000000000E+00 0.  1.
<mgrwt>
<rscale>  4 0.49308112E+03</rscale>
<asrwt>0</asrwt>
<pdfrwt beam="1">  1       21 0.97382695E-02 0.49308112E+03</pdfrwt>
<pdfrwt beam="2">  1        2 0.24940162E+00 0.49308112E+03</pdfrwt>
<totfact> 0.12034264E+04</totfact>
</mgrwt>
</event>
<event>
 5    0  0.3188794E-002  0.4374222E+03  0.7546771E-02  0.1031541E+00
          2   -1    0    0  503    0 -0.00000000000E+00  0.00000000000E+00  0.34502306592E+03  0.34502306592E+03  0.00000000000E+00 0.  1.
         21   -1    0    0  501  502  0.00000000000E+00 -0.00000000000E+00 -0.70642337662E+03  0.70642337662E+03  0.00000000000E+00 0.  1.
         25    1    1    2    0    0 -0.38601976749E+02 -0.27459929242E+03  0.10252482447E+03  0.32098477166E+03  0.12500000000E+03 0.  0.
         21    1    1    2  503  502 -0.10397064907E+03 -0.76354620129E+02  0.32123713668E+01  0.12903582144E+03  0.00000000000E+00 0. -1.
          2    1    1    2  501    0  0.14257262582E+03  0.35095391255E+03 -0.46713750654E+03  0.60142584945E+03  0.00000000000E+00 0.  1.
<mgrwt>
<rscale>  4 0.43742220E+03</rscale>
<asrwt>0</asrwt>
<pdfrwt beam="1">  1       21 0.10868052E+00 0.43742220E+03</pdfrwt>
<pdfrwt beam="2">  1        2 0.53080472E-01 0.43742220E+03</pdfrwt>
<totfact> 0.71572822E+02</totfact>
</mgrwt>
</event>
<event>
 5    0  0.3188794E-002  0.5536541E+03  0.7546771E-02  0.1000652E+00
          2   -1    0    0  503    0 -0.00000000000E+00  0.00000000000E+00  0.31336118655E+04  0.31336118655E+04  0.00000000000E+00 0. -1.
         21   -1    0    0  501  502  0.00000000000E+00 -0.00000000000E+00 -0.51706910015E+02  0.51706910015E+02  0.00000000000E+00 0.  1.
         25    1    1    2    0    0 -0.33730155852E+03  0.79250668679E+02  0.13851748556E+04  0.14333134306E+04  0.12500000000E+03 0.  0.
         21    1    1    2  503  502  0.15547633070E+03  0.43046260702E+02  0.11764946057E+04  0.11875038641E+04  0.00000000000E+00 0. -1.
          2    1    1    2  501    0  0.18182522782E+03 -0.12229692938E+03  0.52023549416E+03  0.56450148077E+03  0.00000000000E+00 0. -1.
<mgrwt>
<rscale>  4 0.55365410E+03</rscale>
<asrwt>0</asrwt>
<pdfrwt beam="1">  1       21 0.79549117E-02 0.55365410E+03</pdfrwt>
<pdfrwt beam="2">  1        2 0.48209398E+00 0.55365410E+03</pdfrwt>
<totfact> 0.24080577E+03</totfact>
</mgrwt>
</event>
<event>
 5    0  0.3188794E-002  0.3787294E+03  0.7546771E-02  0.1051404E+00
         21   -1    0    0  501  502  0.00000000000E+00  0.00000000000E+00  0.68091868620E+03  0.68091868620E+03  0.00000000000E+00 0.  1.
          2   -1    0    0  503    0 -0.00000000000E+00 -0.00000000000E+00 -0.12749851923E+03  0.12749851923E+03  0.00000000000E+00 0.  1.
         25    1    1    2    0    0  0.12064084854E+03  0.18398444305E+03  0.10692993047E+03  0.27470620607E+03  0.12500000000E+03 0.  0.
         21    1    1    2  503  502  0.46488567297E+02 -0.71532266832E+02  0.18417346378E+03  0.20297269976E+03  0.00000000000E+00 0. -1.
          2    1    1    2  501    0 -0.16712941584E+03 -0.11245217622E+03  0.26231677272E+03  0.33073829960E+03  0.00000000000E+00 0.  1.
<mgrwt>
<rscale>  4 0.37872939E+03</rscale>
<asrwt>0</asrwt>
<pdfrwt beam="1">  1       21 0.10475672E+00 0.37872939E+03</pdfrwt>
<pdfrwt beam="2">  1        2 0.19615157E-01 0.37872939E+03</pdfrwt>
<totfact> 0.24166480E+03</totfact>
</mgrwt>
</event>
<event>
 5    0  0.3188794E-002  0.5214296E+03  0.7546771E-02  0.1008332E+00
         21   -1    0    0  501  502  0.00000000000E+00  0.00000000000E+00  0.44904016066E+03  0.44904016066E+03  0.00000000000E+00 0. -1.
          2   -1    0    0  503    0 -0.00000000000E+00 -0.00000000000E+00 -0.44912599136E+03  0.44912599136E+03  0.00000000000E+00 0.  1.
         25    1    1    2    0    0 -0.25782759811E+03  0.19902106234E+03  0.77112202386E+02  0.35728944199E+03  0.12500000000E+03 0.  0.
         21    1    1    2  503  502  0.92671192426E+02  0.13424407847E+03 -0.31477580282E+02  0.16613326148E+03  0.00000000000E+00 0. -1.
          2    1    1    2  501    0  0.16515640568E+03 -0.33326514081E+03 -0.45720452810E+02  0.37474344854E+03  0.00000000000E+00 0.  1.
<mgrwt>
<rscale>  4 0.52142958E+03</rscale>
<asrwt>0</asrwt>
<pdfrwt beam="1">  1       21 0.69083102E-01 0.52142958E+03</pdfrwt>
<pdfrwt beam="2">  1        2 0.69096306E-01 0.52142958E+03</pdfrwt>
<totfact> 0.15260322E+03</totfact>
</mgrwt>
</event>
<event>
 5    0  0.3188794E-002  0.4092766E+03  0.7546771E-02  0.1040614E+00
         21   -1    0    0  501  502  0.00000000000E+00  0.00000000000E+00  0.28105625450E+02  0.28105625450E+02  0.00000000000E+00 0.  1.
          2   -1    0    0  503    0 -0.00000000000E+00 -0.00000000000E+00 -0.20887581482E+04  0.20887581482E+04  0.00000000000E+00 0. -1.
         25    1    1    2    0    0 -0.17165296622E+03  0.13233965307E+03 -0.97244337116E+03  0.10041163452E+04  0.12500000000E+03 0.  0.
         21    1    1    2  503  502  0.12811619736E+03 -0.79552113810E+02 -0.89867043376E+03  0.91123589007E+03  0.00000000000E+00 0. -1.
          2    1    1    2  501    0  0.43536768854E+02 -0.52787539255E+02 -0.18953871780E+03  0.20151153835E+03  0.00000000000E+00 0. -1.
<mgrwt>
<rscale>  4 0.40927657E+03</rscale>
<asrwt>0</asrwt>
<pdfrwt beam="1">  1       21 0.43239403E-02 0.40927657E+03</pdfrwt>
<pdfrwt beam="2">  1        2 0.32134756E+00 0.40927657E+03</pdfrwt>
<totfact> 0.28362539E+04</totfact>
</mgrwt>
</event>
<event>
 5    0  0.3188794E-002  0.4946251E+03  0.7546771E-02  0.1015191E+00
         21   -1    0    0  503  502  0.00000000000E+00  0.00000000000E+00  0.22759316415E+03  0.22759316415E+03  0.00000000000E+00 0.  1.
         -1   -1    0    0    0  501 -0.00000000000E+00 -0.00000000000E+00 -0.42632945496E+03  0.42632945496E+03  0.00000000000E+00 0. -1.
         25    1    1    2    0    0 -0.15124755413E+02  0.25795168320E+03 -0.28017133514E+02  0.28840559783E+03  0.12500000000E+03 0.  0.
         21    1    1    2  503  501  0.70871014575E+02 -0.15529537081E+03 -0.18032452195E+03  0.24830683865E+03  0.00000000000E+00 0. -1.
         -1    1    1    2    0  502 -0.55746259162E+02 -0.10265631239E+03  0.96053646548E+01  0.11721018264E+03  0.00000000000E+00 0. -1.
<mgrwt>
<rscale>  4 0.49462510E+03</rscale>
<asrwt>0</asrwt>
<pdfrwt beam="1">  1       21 0.35014333E-01 0.49462510E+03</pdfrwt>
<pdfrwt beam="2">  1       -1 0.65589146E-01 0.49462510E+03</pdfrwt>
<totfact> 0.16721929E+03</totfact>
</mgrwt>
</event>
<event>
 5    0  0.3188794E-002  0.4687725E+03  0.7546771E-02  0.1022267E+00
         21   -1    0    0  501  502  0.00000000000E+00  0.00000000000E+00  0.66668885169E+03  0.66668885169E+03  0.00000000000E+00 0. -1.
          2   -1    0    0  503    0 -0.00000000000E+00 -0.00000000000E+00 -0.12599937698E+03  0.12599937698E+03  0.00000000000E+00 0.  1.
         25    1    1    2    0    0 -0.90332726860E+02 -0.22038928996E+03  0.27641198039E+03  0.38569420993E+03  0.12500000000E+03 0.  0.
         21    1    1    2  503  502  0.49358563249E+02  0.17315455318E+03  0.54536311196E+02  0.18813021100E+03  0.00000000000E+00 0.  1.
          2    1    1    2  501    0  0.40974163611E+02  0.47234736784E+02  0.20974118311E+03  0.21886380774E+03  0.00000000000E+00 0.  1.
<mgrwt>
<rscale>  4 0.46877254E+03</rscale>
<asrwt>0</asrwt>
<pdfrwt beam="1">  1       21 0.10256751E+00 0.46877254E+03</pdfrwt>
<pdfrwt beam="2">  1        2 0.19384520E-01 0.46877254E+03</pdfrwt>
<totfact> 0.25370038E+03</totfact>
</mgrwt>
</event>
<event>
 5    0  0.3188794E-002  0.5127253E+03  0.7546771E-02  0.1010510E+00
          1   -1    0    0  503    0 -0.00000000000E+00  0.00000000000E+00  0.16977260805E+04  0.16977260805E+04  0.00000000000E+00 0.  1.
         21   -1    0    0  501  502  0.00000000000E+00 -0.00000000000E+00 -0.83118233457E+02  0.83118233457E+02  0.00000000000E+00 0. -1.
         25    1    1    2    0    0 -0.24271529519E+03 -0.53803847899E+01  0.11242904235E+04  0.11569760670E+04  0.12500000000E+03 0.  0.
         21    1    1    2  503  502  0.21984887239E+03  0.34731027949E+02  0.52671963168E+03  0.57181582820E+03  0.00000000000E+00 0.  1.
          1    1    1    2  501    0  0.22866422803E+02 -0.29350643159E+02 -0.36402208153E+02  0.52052418811E+02  0.00000000000E+00 0.  1.
<mgrwt>
<rscale>  4 0.51272528E+03</rscale>
<asrwt>0</asrwt>
<pdfrwt beam="1">  1       21 0.12787422E-01 0.51272528E+03</pdfrwt>
<pdfrwt beam="2">  1        1 0.26118860E+00 0.51272528E+03</pdfrwt>
<totfact> 0.28724306E+03</totfact>
</mgrwt>
</event>
<event>
 5    0  0.3188794E-002  0.7417023E+03  0.7546771E-02  0.9648459E-01
          1   -1    0    0  503    0 -0.00000000000E+00  0.00000000000E+00  0.28886007171E+04  0.28886007171E+04  0.00000000000E+00 0.  1.
         21   -1    0    0  501  502  0.00000000000E+00 -0.00000000000E+00 -0.12816686260E+03  0.12816686260E+03  0.00000000000E+00 0. -1.
         25    1    1    2    0    0  0.36145616715E+02 -0.30219337603E+03  0.18155133669E+04  0.18450856694E+04  0.12500000000E+03 0.  0.
         21    1    1    2  503  502 -0.30784985313E+02  0.37027890637E+03  0.10107163165E+04  0.10768480191E+04  0.00000000000E+00 0. -1.
          1    1    1    2  501    0 -0.53606314020E+01 -0.68085530343E+02 -0.65795828905E+02  0.94833891159E+02  0.00000000000E+00 0.  1.
<mgrwt>
<rscale>  4 0.74170227E+03</rscale>
<asrwt>0</asrwt>
<pdfrwt beam="1">  1       21 0.19717981E-01 0.74170227E+03</pdfrwt>
<pdfrwt beam="2">  1        1 0.44440006E+00 0.74170227E+03</pdfrwt>
<totfact> 0.19036085E+02</totfact>
</mgrwt>
</event>
<event>
 5    0  0.3188794E-002  0.4317308E+03  0.7546771E-02  0.1033315E+00
         21   -1    0    0  501  502  0.00000000000E+00  0.00000000000E+00  0.12188605239E+03  0.12188605239E+03  0.00000000000E+00 0.  1.
          2   -1    0    0  503    0 -0.00000000000E+00 -0.00000000000E+00 -0.10014804101E+04  0.10014804101E+04  0.00000000000E+00 0. -1.
         25    1    1    2    0    0  0.34339908610E+02  0.31019802079E+03 -0.54987273844E+03  0.64450529082E+03  0.12500000000E+03 0.  0.
         21    1    1    2  503  502 -0.67400409706E+02 -0.50590275894E+02 -0.63254160870E+02  0.10537210310E+03  0.00000000000E+00 0. -1.
          2    1    1    2  501    0  0.33060501095E+02 -0.25960774490E+03 -0.26646745837E+03  0.37348906853E+03  0.00000000000E+00 0. -1.
<mgrwt>
<rscale>  4 0.43173083E+03</rscale>
<asrwt>0</asrwt>
<pdfrwt beam="1">  1       21 0.18751700E-01 0.43173083E+03</pdfrwt>
<pdfrwt beam="2">  1        2 0.15407391E+00 0.43173083E+03</pdfrwt>
<totfact> 0.82141248E+03</totfact>
</mgrwt>
</event>
<event>
 5    0  0.3188794E-002  0.6365817E+03  0.7546771E-02  0.9832289E-01
         21   -1    0    0  501  502  0.00000000000E+00  0.00000000000E+00  0.57191760275E+03  0.57191760275E+03  0.00000000000E+00 0.  1.
          2   -1    0    0  503    0 -0.00000000000E+00 -0.00000000000E+00 -0.75318787017E+03  0.75318787017E+03  0.00000000000E+00 0.  1.
         25    1    1    2    0    0 -0.45717589028E+03  0.25203455864E+03 -0.30186076508E+03  0.61585398830E+03  0.12500000000E+03 0.  0.
         21    1    1    2  503  502  0.97129858550E+01  0.99301285205E+02 -0.54908700313E+02  0.11388613923E+03  0.00000000000E+00 0. -1.
          2    1    1    2  501    0  0.44746290443E+03 -0.35133584385E+03  0.17549919798E+03  0.59536534540E+03  0.00000000000E+00 0.  1.
<mgrwt>
<rscale>  4 0.63658165E+03</rscale>
<asrwt>0</asrwt>
<pdfrwt beam="1">  1       21 0.87987324E-01 0.63658165E+03</pdfrwt>
<pdfrwt beam="2">  1        2 0.11587506E+00 0.63658165E+03</pdfrwt>
<totfact> 0.46014321E+02</totfact>
</mgrwt>
</event>
<event>
 5    0  0.3188794E-002  0.3763765E+03  0.7546771E-02  0.1052281E+00
         21   -1    0    0  501  502  0.00000000000E+00  0.00000000000E+00  0.71554800809E+03  0.71554800809E+03  0.00000000000E+00 0.  1.
         -2   -1    0    0    0  501 -0.00000000000E+00 -0.00000000000E+00 -0.99468786352E+02  0.99468786352E+02  0.00000000000E+00 0.  1.
         25    1    1    2    0    0 -0.19939427356E+03 -0.67100606700E+02  0.47731359079E+03  0.53638962676E+03  0.12500000000E+03 0.  0.
         21    1    1    2  503  502  0.67001742886E+02 -0.12392775948E+02 -0.40876830568E+01  0.68260703177E+02  0.00000000000E+00 0.  1.
         -2    1    1    2    0  503  0.13239253068E+03  0.79493382648E+02  0.14285331400E+03  0.21036646450E+03  0.00000000000E+00 0.  1.
<mgrwt>
<rscale>  4 0.37637649E+03</rscale>
<asrwt>0</asrwt>
<pdfrwt beam="1">  1       21 0.11008431E+00 0.37637649E+03</pdfrwt>
<pdfrwt beam="2">  1       -2 0.15302891E-01 0.37637649E+03</pdfrwt>
<totfact> 0.16236081E+03</totfact>
</mgrwt>
</event>
<event>
 5    0  0.3188794E-002  0.1018148E+04  0.7546771E-02  0.9288861E-01
         21   -1    0    0  501  502  0.00000000000E+00  0.00000000000E+00  0.25515845104E+03  0.25515845104E+03  0.00000000000E+00 0. -1.
          1   -1    0    0  503    0 -0.00000000000E+00 -0.00000000000E+00 -0.18909165650E+04  0.18909165650E+04  0.00000000000E+00 0.  1.
         25    1    1    2    0    0  0.21934948305E+03 -0.31726898486E+03 -0.25252757763E+03  0.47767036953E+03  0.12500000000E+03 0.  0.
         21    1    1    2  503  502 -0.18079319450E+03  0.34400847838E+03 -0.14963224730E+04  0.15459653798E+04  0.00000000000E+00 0.  1.
          1    1    1    2  501    0 -0.38556288540E+02 -0.26739493517E+02  0.11309193665E+03  0.12243926671E+03  0.00000000000E+00 0.  1.
<mgrwt>
<rscale>  4 0.10181479E+04</rscale>
<asrwt>0</asrwt>
<pdfrwt beam="1">  1       21 0.39255148E-01 0.10181479E+04</pdfrwt>
<pdfrwt beam="2">  1        1 0.29091023E+00 0.10181479E+04</pdfrwt>
<totfact> 0.22043818E+02</totfact>
</mgrwt>
</event>
<event>
 5    0  0.3188794E-002  0.5833631E+03  0.7546771E-02  0.9940536E-01
         21   -1    0    0  501  502  0.00000000000E+00  0.00000000000E+00  0.23664011041E+03  0.23664011041E+03  0.00000000000E+00 0.  1.
          2   -1    0    0  503    0 -0.00000000000E+00 -0.00000000000E+00 -0.18456318041E+04  0.18456318041E+04  0.00000000000E+00 0.  1.
         25    1    1    2    0    0  0.10156467261E+03 -0.22928497469E+03 -0.41948447401E+03  0.50445932074E+03  0.12500000000E+03 0.  0.
         21    1    1    2  503  502  0.19866043285E+03  0.33238557276E+02 -0.12022642132E+04  0.12190201014E+04  0.00000000000E+00 0.  1.
          2    1    1    2  501    0 -0.30022510546E+03  0.19604641742E+03  0.12756993490E+02  0.35879249241E+03  0.00000000000E+00 0.  1.
<mgrwt>
<rscale>  4 0.58336311E+03</rscale>
<asrwt>0</asrwt>
<pdfrwt beam="1">  1       21 0.36406172E-01 0.58336311E+03</pdfrwt>
<pdfrwt beam="2">  1        2 0.28394335E+00 0.58336311E+03</pdfrwt>
<totfact> 0.72373216E+02</totfact>
</mgrwt>
</event>
<event>
 5    0  0.3188794E-002  0.4429700E+03  0.7546771E-02  0.1029839E+00
          1   -1    0    0  503    0 -0.00000000000E+00  0.00000000000E+00  0.71057504643E+03  0.71057504643E+03  0.00000000000E+00 0.  1.
         21   -1    0    0  501  502  0.00000000000E+00 -0.00000000000E+00 -0.53209814708E+03  0.53209814708E+03  0.00000000000E+00 0.  1.
         25    1    1    2    0    0 -0.15506361903E+03  0.16006908887E+03  0.51440586924E+03  0.57437377853E+03  0.12500000000E+03 0.  0.
         21    1    1    2  503  502 -0.10460815834E+03 -0.10506457581E+03  0.84828724572E+02  0.17081377109E+03  0.00000000000E+00 0. -1.
          1    1    1    2  501    0  0.25967177737E+03 -0.55004513063E+02 -0.42075769446E+03  0.49748564388E+03  0.00000000000E+00 0.  1.
<mgrwt>
<rscale>  4 0.44296996E+03</rscale>
<asrwt>0</asrwt>
<pdfrwt beam="1">  1       21 0.81861253E-01 0.44296996E+03</pdfrwt>
<pdfrwt beam="2">  1        1 0.10931924E+00 0.44296996E+03</pdfrwt>
<totfact> 0.35975035E+02</totfact>
</mgrwt>
</event>
<event>
 5    0  0.3188794E-002  0.3687790E+03  0.7546771E-02  0.1055161E+00
         21   -1    0    0  501  502  0.00000000000E+00  0.00000000000E+00  0.12496539980E+03  0.12496539980E+03  0.00000000000E+00 0. -1.
          2   -1    0    0  503    0 -0.00000000000E+00 -0.00000000000E+00 -0.84888126971E+03  0.84888126971E+03  0.00000000000E+00 0.  1.
         25    1    1    2    0    0 -0.19903194576E+03 -0.93354497677E+02 -0.56635843917E+03  0.62025451171E+03  0.12500000000E+03 0.  0.
         21    1    1    2  503  502  0.74671695444E+02  0.85528732922E+02 -0.19310887449E+03  0.22401353455E+03  0.00000000000E+00 0.  1.
          2    1    1    2  501    0  0.12436025032E+03  0.78257647558E+01  0.35551443744E+02  0.12957862326E+03  0.00000000000E+00 0.  1.
<mgrwt>
<rscale>  4 0.36877898E+03</rscale>
<asrwt>0</asrwt>
<pdfrwt beam="1">  1       21 0.19225447E-01 0.36877898E+03</pdfrwt>
<pdfrwt beam="2">  1        2 0.13059712E+00 0.36877898E+03</pdfrwt>
<totfact> 0.99459932E+03</totfact>
</mgrwt>
</event>
<event>
 5    0  0.3188794E-002  0.5772005E+03  0.7546771E-02  0.9953870E-01
         21   -1    0    0  503  502  0.00000000000E+00  0.00000000000E+00  0.16523692215E+03  0.16523692215E+03  0.00000000000E+00 0.  1.
          2   -1    0    0  502    0 -0.00000000000E+00 -0.00000000000E+00 -0.11390373616E+04  0.11390373616E+04  0.00000000000E+00 0.  1.
         25    1    1    2    0    0  0.13174406744E+03 -0.35105819614E+03 -0.38983796787E+03  0.55515493114E+03  0.12500000000E+03 0.  0.
         21    1    1    2  503  501  0.27146204253E+02  0.13446345275E+03 -0.40175612470E+03  0.42452952814E+03  0.00000000000E+00 0. -1.
          2    1    1    2  501    0 -0.15889027169E+03  0.21659474339E+03 -0.18220634689E+03  0.32458982447E+03  0.00000000000E+00 0.  1.
<mgrwt>
<rscale>  4 0.57720051E+03</rscale>
<asrwt>0</asrwt>
<pdfrwt beam="1">  1       21 0.25421064E-01 0.57720051E+03</pdfrwt>
<pdfrwt beam="2">  1        2 0.17523652E+00 0.57720051E+03</pdfrwt>
<totfact> 0.36852290E+03</totfact>
</mgrwt>
</event>
<event>
 5    0  0.3188794E-002  0.9540470E+03  0.7546771E-02  0.9360433E-01
         21   -1    0    0  503  502  0.00000000000E+00  0.00000000000E+00  0.43605379133E+03  0.43605379133E+03  0.00000000000E+00 0. -1.
         -4   -1    0    0    0  501 -0.00000000000E+00 -0.00000000000E+00 -0.99535154831E+03  0.99535154831E+03  0.00000000000E+00 0. -1.
         25    1    1    2    0    0  0.58050051386E+02  0.43844407103E+03 -0.64126320108E+03  0.78895279006E+03  0.12500000000E+03 0.  0.
         21    1    1    2  503  501  0.44422576378E+02 -0.40782765098E+03 -0.10820662352E+03  0.42427046983E+03  0.00000000000E+00 0. -1.
         -4    1    1    2    0  502 -0.10247262776E+03 -0.30616420048E+02  0.19017206763E+03  0.21818207975E+03  0.00000000000E+00 0. -1.
<mgrwt>
<rscale>  4 0.95404699E+03</rscale>
<asrwt>0</asrwt>
<pdfrwt beam="1">  1       21 0.67085199E-01 0.95404699E+03</pdfrwt>
<pdfrwt beam="2">  1       -4 0.15313101E+00 0.95404699E+03</pdfrwt>
<totfact> 0.22240595E+01</totfact>
</mgrwt>
</event>
<event>
 5    0  0.3188794E-002  0.3277703E+03  0.7546771E-02  0.1072128E+00
         21   -1    0    0  503  502  0.00000000000E+00  0.00000000000E+00  0.24973997736E+03  0.24973997736E+03  0.00000000000E+00 0.  1.
         -1   -1    0    0    0  501 -0.00000000000E+00 -0.00000000000E+00 -0.35093767544E+03  0.35093767544E+03  0.00000000000E+00 0.  1.
         25    1    1    2    0    0 -0.23980164227E+03  0.24249107530E+02 -0.13744628890E+03  0.30431780951E+03  0.12500000000E+03 0.  0.
         21    1    1    2  503  501  0.36251318154E+02 -0.38788866521E+02 -0.51736829143E+02  0.74131192650E+02  0.00000000000E+00 0. -1.
         -1    1    1    2    0  502  0.20355032411E+03  0.14539758992E+02  0.87985419964E+02  0.22222865064E+03  0.00000000000E+00 0.  1.
<mgrwt>
<rscale>  4 0.32777034E+03</rscale>
<asrwt>0</asrwt>
<pdfrwt beam="1">  1       21 0.38421535E-01 0.32777034E+03</pdfrwt>
<pdfrwt beam="2">  1       -1 0.53990412E-01 0.32777034E+03</pdfrwt>
<totfact> 0.20791982E+03</totfact>
</mgrwt>
</event>
<event>
 5    0  0.3188794E-002  0.6927294E+03  0.7546771E-02  0.9729747E-01
          3   -1    0    0  503    0 -0.00000000000E+00  0.00000000000E+00  0.35328702128E+03  0.35328702128E+03  0.00000000000E+00 0.  1.
         21   -1    0    0  501  502  0.00000000000E+00 -0.00000000000E+00 -0.53228929363E+03  0.53228929363E+03  0.00000000000E+00 0.  1.
         25    1    1    2    0    0 -0.52413293930E+02 -0.21332384793E+03  0.27678094542E+03  0.37481583374E+03  0.12500000000E+03 0.  0.
         21    1    1    2  503  502  0.46311081920E+01  0.15139900961E+03 -0.27951625397E+03  0.31791892600E+03  0.00000000000E+00 0. -1.
          3    1    1    2  501    0  0.47782185738E+02  0.61924838323E+02 -0.17626696380E+03  0.19284155518E+03  0.00000000000E+00 0.  1.
<mgrwt>
<rscale>  4 0.69272936E+03</rscale>
<asrwt>0</asrwt>
<pdfrwt beam="1">  1       21 0.81890661E-01 0.69272936E+03</pdfrwt>
<pdfrwt beam="2">  1        3 0.54351849E-01 0.69272936E+03</pdfrwt>
<totfact> 0.19952894E+02</totfact>
</mgrwt>
</event>
<event>
 5    0  0.3188794E-002  0.4574628E+03  0.7546771E-02  0.1025520E+00
          1   -1    0    0  502    0 -0.00000000000E+00  0.00000000000E+00  0.15052231351E+04  0.15052231351E+04  0.00000000000E+00 0.  1.
         21   -1    0    0  503  502  0.00000000000E+00 -0.00000000000E+00 -0.92860125840E+02  0.92860125840E+02  0.00000000000E+00 0. -1.
         25    1    1    2    0    0  0.19268287885E+03 -0.17335858592E+03  0.18426368375E+03  0.34169869222E+03  0.12500000000E+03 0.  0.
         21    1    1    2  503  501 -0.38762698197E+02  0.38970583541E+02  0.38354921638E+03  0.38746774645E+03  0.00000000000E+00 0.  1.
          1    1    1    2  501    0 -0.15392018065E+03  0.13438800238E+03  0.84455010912E+03  0.86891682226E+03  0.00000000000E+00 0.  1.
<mgrwt>
<rscale>  4 0.45746279E+03</rscale>
<asrwt>0</asrwt>
<pdfrwt beam="1">  1       21 0.14286174E-01 0.45746279E+03</pdfrwt>
<pdfrwt beam="2">  1        1 0.23157277E+00 0.45746279E+03</pdfrwt>
<totfact> 0.31860945E+03</totfact>
</mgrwt>
</event>
<event>
 5    0  0.3188794E-002  0.6588152E+03  0.7546771E-02  0.9790377E-01
         -2   -1    0    0    0  501 -0.00000000000E+00  0.00000000000E+00  0.14861368725E+03  0.14861368725E+03  0.00000000000E+00 0.  1.
         21   -1    0    0  503  502  0.00000000000E+00 -0.00000000000E+00 -0.13181965952E+04  0.13181965952E+04  0.00000000000E+00 0. -1.
         25    1    1    2    0    0 -0.23413326131E+03 -0.10158781163E+03 -0.55473384016E+03  0.62329214735E+03  0.12500000000E+03 0.  0.
         21    1    1    2  503  501  0.24692748442E+03  0.67316995323E+02 -0.30187305263E+02  0.25771308430E+03  0.00000000000E+00 0.  1.
         -2    1    1    2    0  502 -0.12794223104E+02  0.34270816311E+02 -0.58466176249E+03  0.58580505077E+03  0.00000000000E+00 0.  1.
<mgrwt>
<rscale>  4 0.65881520E+03</rscale>
<asrwt>0</asrwt>
<pdfrwt beam="1">  1       21 0.20279948E+00 0.65881520E+03</pdfrwt>
<pdfrwt beam="2">  1       -2 0.22863643E-01 0.65881520E+03</pdfrwt>
<totfact> 0.14249062E+02</totfact>
</mgrwt>
</event>
<event>
 5    0  0.3188794E-002  0.4809736E+03  0.7546771E-02  0.1018868E+00
          1   -1    0    0  503    0 -0.00000000000E+00  0.00000000000E+00  0.10359644600E+04  0.10359644600E+04  0.00000000000E+00 0. -1.
         21   -1    0    0  501  502  0.00000000000E+00 -0.00000000000E+00 -0.82200954671E+02  0.82200954671E+02  0.00000000000E+00 0.  1.
         25    1    1    2    0    0 -0.19396720677E+03  0.11038143345E+03  0.66659657974E+03  0.71399113319E+03  0.12500000000E+03 0.  0.
         21    1    1    2  503  502  0.19655360719E+03 -0.69847479002E+02  0.29647558254E+03  0.36250484392E+03  0.00000000000E+00 0.  1.
          1    1    1    2  501    0 -0.25864004235E+01 -0.40533954451E+02 -0.93086569677E+01  0.41669437542E+02  0.00000000000E+00 0. -1.
<mgrwt>
<rscale>  4 0.48097359E+03</rscale>
<asrwt>0</asrwt>
<pdfrwt beam="1">  1       21 0.12646302E-01 0.48097359E+03</pdfrwt>
<pdfrwt beam="2">  1        1 0.15937914E+00 0.48097359E+03</pdfrwt>
<totfact> 0.85150004E+03</totfact>
</mgrwt>
</event>
<event>
 5    0  0.3188794E-002  0.4222198E+03  0.7546771E-02  0.1036346E+00
          1   -1    0    0  503    0 -0.00000000000E+00  0.00000000000E+00  0.20989392184E+04  0.20989392184E+04  0.00000000000E+00 0. -1.
         21   -1    0    0  501  502  0.00000000000E+00 -0.00000000000E+00 -0.69099631770E+02  0.69099631770E+02  0.00000000000E+00 0.  1.
         25    1    1    2    0    0 -0.13131509955E+03  0.20530391738E+03  0.28463250737E+03  0.39501141517E+03  0.12500000000E+03 0.  0.
         21    1    1    2  503  502  0.46057802202E+02  0.32484699018E+02  0.44047111967E+03  0.44406236507E+03  0.00000000000E+00 0. -1.
          1    1    1    2  501    0  0.85257297350E+02 -0.23778861639E+03  0.13047359596E+04  0.13289650699E+04  0.00000000000E+00 0. -1.
<mgrwt>
<rscale>  4 0.42221978E+03</rscale>
<asrwt>0</asrwt>
<pdfrwt beam="1">  1       21 0.10630714E-01 0.42221978E+03</pdfrwt>
<pdfrwt beam="2">  1        1 0.32291368E+00 0.42221978E+03</pdfrwt>
<totfact> 0.22275563E+03</totfact>
</mgrwt>
</event>
<event>
 5    0  0.3188794E-002  0.4155408E+03  0.7546771E-02  0.1038527E+00
          2   -1    0    0  502    0 -0.00000000000E+00  0.00000000000E+00  0.78119171502E+03  0.78119171502E+03  0.00000000000E+00 0. -1.
         21   -1    0    0  503  502  0.00000000000E+00 -0.00000000000E+00 -0.13368212328E+03  0.13368212328E+03  0.00000000000E+00 0. -1.
         25    1    1    2    0    0 -0.92083915623E+02  0.19855881782E+03  0.55631521942E+03  0.61075091077E+03  0.12500000000E+03 0.  0.
         21    1    1    2  503  501 -0.51751845249E+02 -0.51616477548E+02 -0.11978741488E+02  0.74067567050E+02  0.00000000000E+00 0.  1.
          2    1    1    2  501    0  0.14383576087E+03 -0.14694234028E+03  0.10317311381E+03  0.23005536048E+03  0.00000000000E+00 0. -1.
<mgrwt>
<rscale>  4 0.41554079E+03</rscale>
<asrwt>0</asrwt>
<pdfrwt beam="1">  1       21 0.20566481E-01 0.41554079E+03</pdfrwt>
<pdfrwt beam="2">  1        2 0.12018334E+00 0.41554079E+03</pdfrwt>
<totfact> 0.96851409E+03</totfact>
</mgrwt>
</event>
<event>
 5    0  0.3188794E-002  0.4558710E+03  0.7546771E-02  0.1025986E+00
          1   -1    0    0  503    0 -0.00000000000E+00  0.00000000000E+00  0.19974238533E+04  0.19974238533E+04  0.00000000000E+00 0. -1.
         21   -1    0    0  501  502  0.00000000000E+00 -0.00000000000E+00 -0.66062494007E+02  0.66062494007E+02  0.00000000000E+00 0.  1.
         25    1    1    2    0    0  0.15971196132E+03 -0.18464474523E+03  0.93206253004E+03  0.97157972007E+03  0.12500000000E+03 0.  0.
         21    1    1    2  503  502  0.54086234883E+02  0.17231240878E+03  0.70607323933E+03  0.72880471068E+03  0.00000000000E+00 0.  1.
          1    1    1    2  501    0 -0.21379819620E+03  0.12332336448E+02  0.29322558992E+03  0.36310191655E+03  0.00000000000E+00 0. -1.
<mgrwt>
<rscale>  4 0.45587105E+03</rscale>
<asrwt>0</asrwt>
<pdfrwt beam="1">  1       21 0.10163462E-01 0.45587105E+03</pdfrwt>
<pdfrwt beam="2">  1        1 0.30729593E+00 0.45587105E+03</pdfrwt>
<totfact> 0.27953296E+03</totfact>
</mgrwt>
</event>
<event>
 5    0  0.3188794E-002  0.4715045E+03  0.7546771E-02  0.1021496E+00
          2   -1    0    0  503    0 -0.00000000000E+00  0.00000000000E+00  0.10854578441E+04  0.10854578441E+04  0.00000000000E+00 0.  1.
         21   -1    0    0  501  502  0.00000000000E+00 -0.00000000000E+00 -0.10357230671E+03  0.10357230671E+03  0.00000000000E+00 0. -1.
         25    1    1    2    0    0  0.12455622941E+03 -0.18176010654E+03  0.51764662157E+03  0.57631069350E+03  0.12500000000E+03 0.  0.
         21    1    1    2  503  502 -0.96967405424E+02  0.19433668813E+03  0.51199293936E+03  0.55615303292E+03  0.00000000000E+00 0.  1.
          2    1    1    2  501    0 -0.27588823985E+02 -0.12576581590E+02 -0.47754023498E+02  0.56566424438E+02  0.00000000000E+00 0.  1.
<mgrwt>
<rscale>  4 0.47150447E+03</rscale>
<asrwt>0</asrwt>
<pdfrwt beam="1">  1       21 0.15934202E-01 0.47150447E+03</pdfrwt>
<pdfrwt beam="2">  1        2 0.16699351E+00 0.47150447E+03</pdfrwt>
<totfact> 0.98421279E+03</totfact>
</mgrwt>
</event>
<event>
 5    0  0.3188794E-002  0.7298149E+03  0.7546771E-02  0.9667561E-01
          2   -1    0    0  503    0 -0.00000000000E+00  0.00000000000E+00  0.27263279730E+04  0.27263279730E+04  0.00000000000E+00 0.  1.
         21   -1    0    0  501  502  0.00000000000E+00 -0.00000000000E+00 -0.53394171080E+02  0.53394171080E+02  0.00000000000E+00 0. -1.
         25    1    1    2    0    0  0.67976507502E+02 -0.20355372725E+03  0.23935119002E+04  0.24063622217E+04  0.12500000000E+03 0.  0.
         21    1    1    2  503  502 -0.40943465689E+02  0.21225902651E+03  0.22527128996E+03  0.31221373416E+03  0.00000000000E+00 0. -1.
          2    1    1    2  501    0 -0.27033041814E+02 -0.87052992531E+01  0.54150611759E+02  0.61146188260E+02  0.00000000000E+00 0.  1.
<mgrwt>
<rscale>  4 0.72981493E+03</rscale>
<asrwt>0</asrwt>
<pdfrwt beam="1">  1       21 0.82144900E-02 0.72981493E+03</pdfrwt>
<pdfrwt beam="2">  1        2 0.41943496E+00 0.72981493E+03</pdfrwt>
<totfact> 0.38648081E+03</totfact>
</mgrwt>
</event>
<event>
 5    0  0.3188794E-002  0.4590624E+03  0.7546771E-02  0.1025053E+00
          2   -1    0    0  503    0 -0.00000000000E+00  0.00000000000E+00  0.45766641457E+04  0.45766641457E+04  0.00000000000E+00 0. -1.
         21   -1    0    0  501  502  0.00000000000E+00 -0.00000000000E+00 -0.28476159876E+02  0.28476159876E+02  0.00000000000E+00 0.  1.
         25    1    1    2    0    0  0.28110532322E+03  0.40293373342E+02  0.11154434669E+04  0.11577922467E+04  0.12500000000E+03 0.  0.
         21    1    1    2  503  502 -0.61349270324E+02  0.40649616918E+02  0.12272915047E+04  0.12294960601E+04  0.00000000000E+00 0. -1.
          2    1    1    2  501    0 -0.21975605289E+03 -0.80942990259E+02  0.22054530142E+04  0.22178519987E+04  0.00000000000E+00 0. -1.
<mgrwt>
<rscale>  4 0.45906243E+03</rscale>
<asrwt>0</asrwt>
<pdfrwt beam="1">  1       21 0.43809513E-02 0.45906243E+03</pdfrwt>
<pdfrwt beam="2">  1        2 0.70410159E+00 0.45906243E+03</pdfrwt>
<totfact> 0.55795405E+02</totfact>
</mgrwt>
</event>
<event>
 5    0  0.3188794E-002  0.4668274E+03  0.7546771E-02  0.1022819E+00
         21   -1    0    0  503  502  0.00000000000E+00  0.00000000000E+00  0.12782588204E+03  0.12782588204E+03  0.00000000000E+00 0. -1.
         -1   -1    0    0    0  501 -0.00000000000E+00 -0.00000000000E+00 -0.77434930272E+03  0.77434930272E+03  0.00000000000E+00 0.  1.
         25    1    1    2    0    0 -0.10991422227E+03  0.25553325020E+03 -0.24188765991E+03  0.38924673182E+03  0.12500000000E+03 0.  0.
         21    1    1    2  503  501  0.12176092585E+03 -0.10308157164E+03 -0.17257636622E+03  0.23501943675E+03  0.00000000000E+00 0.  1.
         -1    1    1    2    0  502 -0.11846703575E+02 -0.15245167856E+03 -0.23205939455E+03  0.27790901619E+03  0.00000000000E+00 0.  1.
<mgrwt>
<rscale>  4 0.46682740E+03</rscale>
<asrwt>0</asrwt>
<pdfrwt beam="1">  1       21 0.19665521E-01 0.46682740E+03</pdfrwt>
<pdfrwt beam="2">  1       -1 0.11913066E+00 0.46682740E+03</pdfrwt>
<totfact> 0.14171094E+03</totfact>
</mgrwt>
</event>
<event>
 5    0  0.3188794E-002  0.3336882E+03  0.7546771E-02  0.1069517E+00
          2   -1    0    0  503    0 -0.00000000000E+00  0.00000000000E+00  0.18057090317E+04  0.18057090317E+04  0.00000000000E+00 0. -1.
         21   -1    0    0  501  502  0.00000000000E+00 -0.00000000000E+00 -0.43882360239E+02  0.43882360239E+02  0.00000000000E+00 0. -1.
         25    1    1    2    0    0  0.13144791436E+03  0.16654752578E+03  0.12981003729E+04  0.13212517590E+04  0.12500000000E+03 0.  0.
         21    1    1    2  503  502  0.66793804870E+00 -0.79769037518E+02  0.25062941793E+03  0.26301834655E+03  0.00000000000E+00 0.  1.
          2    1    1    2  501    0 -0.13211585241E+03 -0.86778488262E+02  0.21309688067E+03  0.26532128644E+03  0.00000000000E+00 0. -1.
<mgrwt>
<rscale>  4 0.33368818E+03</rscale>
<asrwt>0</asrwt>
<pdfrwt beam="1">  1       21 0.67511337E-02 0.33368818E+03</pdfrwt>
<pdfrwt beam="2">  1        2 0.27780133E+00 0.33368818E+03</pdfrwt>
<totfact> 0.18855485E+04</totfact>
</mgrwt>
</event>
<event>
 5    0  0.3188794E-002  0.1047366E+04  0.7546771E-02  0.9258068E-01
          1   -1    0    0  503    0 -0.00000000000E+00  0.00000000000E+00  0.21907103730E+04  0.21907103730E+04  0.00000000000E+00 0. -1.
         21   -1    0    0  501  502  0.00000000000E+00 -0.00000000000E+00 -0.19332276500E+03  0.19332276500E+03  0.00000000000E+00 0.  1.
         25    1    1    2    0    0  0.18091595680E+03  0.12345909362E+03  0.20879212284E+04  0.21030960005E+04  0.12500000000E+03 0.  0.
         21    1    1    2  503  502 -0.94674666232E+02 -0.14833229961E+03 -0.54495377220E+02  0.18421593219E+03  0.00000000000E+00 0.  1.
          1    1    1    2  501    0 -0.86241290571E+02  0.24873205983E+02 -0.36038243234E+02  0.96721205279E+02  0.00000000000E+00 0. -1.
<mgrwt>
<rscale>  4 0.10473658E+04</rscale>
<asrwt>0</asrwt>
<pdfrwt beam="1">  1       21 0.29741965E-01 0.10473658E+04</pdfrwt>
<pdfrwt beam="2">  1        1 0.33703235E+00 0.10473658E+04</pdfrwt>
<totfact> 0.24354648E+02</totfact>
</mgrwt>
</event>
<event>
 5    0  0.3188794E-002  0.5896634E+03  0.7546771E-02  0.9927086E-01
          2   -1    0    0  503    0 -0.00000000000E+00  0.00000000000E+00  0.35223431501E+03  0.35223431501E+03  0.00000000000E+00 0.  1.
         21   -1    0    0  501  502  0.00000000000E+00 -0.00000000000E+00 -0.14462860336E+04  0.14462860336E+04  0.00000000000E+00 0.  1.
         25    1    1    2    0    0  0.40971146886E+03  0.30582123656E+03  0.38189219486E+02  0.52770591519E+03  0.12500000000E+03 0.  0.
         21    1    1    2  503  502 -0.59886458182E+02  0.19058637973E+01 -0.17181638271E+02  0.62331604216E+02  0.00000000000E+00 0. -1.
          2    1    1    2  501    0 -0.34982501068E+03 -0.30772710035E+03 -0.11150592999E+04  0.12084828292E+04  0.00000000000E+00 0.  1.
<mgrwt>
<rscale>  4 0.58966343E+03</rscale>
<asrwt>0</asrwt>
<pdfrwt beam="1">  1       21 0.22250554E+00 0.58966343E+03</pdfrwt>
<pdfrwt beam="2">  1        2 0.54189895E-01 0.58966343E+03</pdfrwt>
<totfact> 0.89942865E+01</totfact>
</mgrwt>
</event>
<event>
 5    0  0.3188794E-002  0.5128090E+03  0.7546771E-02  0.1010489E+00
         21   -1    0    0  503  502  0.00000000000E+00  0.00000000000E+00  0.29480487930E+03  0.29480487930E+03  0.00000000000E+00 0. -1.
         -2   -1    0    0    0  501 -0.00000000000E+00 -0.00000000000E+00 -0.27651250866E+03  0.27651250866E+03  0.00000000000E+00 0.  1.
         25    1    1    2    0    0  0.24507840406E+03 -0.28633713732E+02 -0.63835682346E+02  0.28387199234E+03  0.12500000000E+03 0.  0.
         21    1    1    2  503  501 -0.22347364393E+03  0.44381450142E+02  0.31250557920E+02  0.22997125911E+03  0.00000000000E+00 0.  1.
         -2    1    1    2    0  502 -0.21604760125E+02 -0.15747736410E+02  0.50877495066E+02  0.57474136499E+02  0.00000000000E+00 0.  1.
<mgrwt>
<rscale>  4 0.51280903E+03</rscale>
<asrwt>0</asrwt>
<pdfrwt beam="1">  1       21 0.45354597E-01 0.51280903E+03</pdfrwt>
<pdfrwt beam="2">  1       -2 0.42540386E-01 0.51280903E+03</pdfrwt>
<totfact> 0.18795760E+03</totfact>
</mgrwt>
</event>
<event>
 5    0  0.3188794E-002  0.4162265E+03  0.7546771E-02  0.1038301E+00
          1   -1    0    0  503    0 -0.00000000000E+00  0.00000000000E+00  0.32625651244E+03  0.32625651244E+03  0.00000000000E+00 0. -1.
         21   -1    0    0  501  502  0.00000000000E+00 -0.00000000000E+00 -0.29364741581E+03  0.29364741581E+03  0.00000000000E+00 0.  1.
         25    1    1    2    0    0  0.22278226251E+03  0.25517855298E+02 -0.65490340908E+02  0.26494731963E+03  0.12500000000E+03 0.  0.
         21    1    1    2  503  502 -0.81683493625E+02  0.11483243777E+03  0.55353917202E+02  0.15140256948E+03  0.00000000000E+00 0. -1.
          1    1    1    2  501    0 -0.14109876888E+03 -0.14035029307E+03  0.42745520329E+02  0.20355403914E+03  0.00000000000E+00 0. -1.
<mgrwt>
<rscale>  4 0.41622648E+03</rscale>
<asrwt>0</asrwt>
<pdfrwt beam="1">  1       21 0.45176525E-01 0.41622648E+03</pdfrwt>
<pdfrwt beam="2">  1        1 0.50193310E-01 0.41622648E+03</pdfrwt>
<totfact> 0.38503415E+03</totfact>
</mgrwt>
</event>
<event>
 5    0  0.3188794E-002  0.7061647E+03  0.7546771E-02  0.9706747E-01
         -1   -1    0    0    0  501 -0.00000000000E+00  0.00000000000E+00  0.17793577264E+03  0.17793577264E+03  0.00000000000E+00 0.  1.
         21   -1    0    0  503  502  0.00000000000E+00 -0.00000000000E+00 -0.96828527340E+03  0.96828527340E+03  0.00000000000E+00 0. -1.
         25    1    1    2    0    0  0.16043245961E+03 -0.24589078640E+03 -0.20894279036E+03  0.38142226282E+03  0.12500000000E+03 0.  0.
         21    1    1    2  503  501 -0.23205875855E+03  0.30415459895E+03 -0.36172999162E+03  0.52650724052E+03  0.00000000000E+00 0. -1.
         -1    1    1    2    0  502  0.71626298932E+02 -0.58263812548E+02 -0.21967671877E+03  0.23829154270E+03  0.00000000000E+00 0.  1.
<mgrwt>
<rscale>  4 0.70616468E+03</rscale>
<asrwt>0</asrwt>
<pdfrwt beam="1">  1       21 0.14896697E+00 0.70616468E+03</pdfrwt>
<pdfrwt beam="2">  1       -1 0.27374734E-01 0.70616468E+03</pdfrwt>
<totfact> 0.28309989E+02</totfact>
</mgrwt>
</event>
<event>
 5    0  0.3188794E-002  0.6233785E+03  0.7546771E-02  0.9858056E-01
         21   -1    0    0  501  502  0.00000000000E+00  0.00000000000E+00  0.48615530016E+03  0.48615530016E+03  0.00000000000E+00 0. -1.
          2   -1    0    0  503    0 -0.00000000000E+00 -0.00000000000E+00 -0.82985470515E+03  0.82985470515E+03  0.00000000000E+00 0. -1.
         25    1    1    2    0    0 -0.21507277713E+03 -0.47099201233E+03  0.14288879690E+03  0.55148162564E+03  0.12500000000E+03 0.  0.
         21    1    1    2  503  502  0.40466193522E+01 -0.33325902733E+02 -0.68535138217E+02  0.76315503612E+02  0.00000000000E+00 0. -1.
          2    1    1    2  501    0  0.21102615778E+03  0.50431791507E+03 -0.41805306367E+03  0.68821287605E+03  0.00000000000E+00 0. -1.
<mgrwt>
<rscale>  4 0.62337851E+03</rscale>
<asrwt>0</asrwt>
<pdfrwt beam="1">  1       21 0.74793124E-01 0.62337851E+03</pdfrwt>
<pdfrwt beam="2">  1        2 0.12766995E+00 0.62337851E+03</pdfrwt>
<totfact> 0.59371536E+02</totfact>
</mgrwt>
</event>
<event>
 5    0  0.3188794E-002  0.6735328E+03  0.7546771E-02  0.9763597E-01
          1   -1    0    0  502    0 -0.00000000000E+00  0.00000000000E+00  0.14745438603E+04  0.14745438603E+04  0.00000000000E+00 0. -1.
         21   -1    0    0  503  502  0.00000000000E+00 -0.00000000000E+00 -0.12012919950E+03  0.12012919950E+03  0.00000000000E+00 0.  1.
         25    1    1    2    0    0 -0.79882451589E+02  0.30409532845E+03  0.92734091668E+03  0.98713795926E+03  0.12500000000E+03 0.  0.
         21    1    1    2  503  501  0.18868395509E+03 -0.17956546364E+03  0.20960081618E+03  0.33433200981E+03  0.00000000000E+00 0.  1.
          1    1    1    2  501    0 -0.10880150350E+03 -0.12452986481E+03  0.21747292790E+03  0.27320309069E+03  0.00000000000E+00 0. -1.
<mgrwt>
<rscale>  4 0.67353276E+03</rscale>
<asrwt>0</asrwt>
<pdfrwt beam="1">  1       21 0.18481416E-01 0.67353276E+03</pdfrwt>
<pdfrwt beam="2">  1        1 0.22685289E+00 0.67353276E+03</pdfrwt>
<totfact> 0.19861083E+03</totfact>
</mgrwt>
</event>
<event>
 5    0  0.3188794E-002  0.5086306E+03  0.7546771E-02  0.1011550E+00
         21   -1    0    0  503  502  0.00000000000E+00  0.00000000000E+00  0.14966645055E+03  0.14966645055E+03  0.00000000000E+00 0. -1.
         -2   -1    0    0    0  501 -0.00000000000E+00 -0.00000000000E+00 -0.50254734020E+03  0.50254734020E+03  0.00000000000E+00 0.  1.
         25    1    1    2    0    0 -0.23195237603E+03 -0.48833188809E+01 -0.25228887212E+03  0.36482931152E+03  0.12500000000E+03 0.  0.
         21    1    1    2  503  501  0.22969088614E+03  0.39244279001E+02 -0.98200359599E+02  0.25286622399E+03  0.00000000000E+00 0. -1.
         -2    1    1    2    0  502  0.22614898846E+01 -0.34360960120E+02 -0.23916579374E+01  0.34518255236E+02  0.00000000000E+00 0.  1.
<mgrwt>
<rscale>  4 0.50863059E+03</rscale>
<asrwt>0</asrwt>
<pdfrwt beam="1">  1       21 0.23025608E-01 0.50863059E+03</pdfrwt>
<pdfrwt beam="2">  1       -2 0.77314974E-01 0.50863059E+03</pdfrwt>
<totfact> 0.21189511E+03</totfact>
</mgrwt>
</event>
<event>
 5    0  0.3188794E-002  0.5738646E+03  0.7546771E-02  0.9961163E-01
         -1   -1    0    0    0  501 -0.00000000000E+00  0.00000000000E+00  0.47812030275E+03  0.47812030275E+03  0.00000000000E+00 0. -1.
         21   -1    0    0  503  502  0.00000000000E+00 -0.00000000000E+00 -0.67605401644E+03  0.67605401644E+03  0.00000000000E+00 0. -1.
         25    1    1    2    0    0  0.27899848735E+03 -0.38255306313E+02  0.61995906486E+02  0.31428031568E+03  0.12500000000E+03 0.  0.
         21    1    1    2  503  501 -0.22408437187E+03  0.60067046295E+02  0.24156754044E+03  0.33492795100E+03  0.00000000000E+00 0. -1.
         -1    1    1    2    0  502 -0.54914115478E+02 -0.21811739982E+02 -0.50149716061E+03  0.50496605251E+03  0.00000000000E+00 0. -1.
<mgrwt>
<rscale>  4 0.57386462E+03</rscale>
<asrwt>0</asrwt>
<pdfrwt beam="1">  1       21 0.10400831E+00 0.57386462E+03</pdfrwt>
<pdfrwt beam="2">  1       -1 0.73556970E-01 0.57386462E+03</pdfrwt>
<totfact> 0.11693437E+02</totfact>
</mgrwt>
</event>
<event>
 5    0  0.3188794E-002  0.4781321E+03  0.7546771E-02  0.1019650E+00
         21   -1    0    0  501  502  0.00000000000E+00  0.00000000000E+00  0.43307035374E+03  0.43307035374E+03  0.00000000000E+00 0.  1.
          1   -1    0    0  503    0 -0.00000000000E+00 -0.00000000000E+00 -0.31783719865E+03  0.31783719865E+03  0.00000000000E+00 0. -1.
         25    1    1    2    0    0 -0.28597669455E+03 -0.72025600781E+02 -0.56477071976E+02  0.32524608630E+03  0.12500000000E+03 0.  0.
         21    1    1    2  503  502  0.23051122627E+02  0.93359290274E+02  0.12509469805E+03  0.15778464695E+03  0.00000000000E+00 0.  1.
          1    1    1    2  501    0  0.26292557193E+03 -0.21333689493E+02  0.46615529021E+02  0.26787681913E+03  0.00000000000E+00 0. -1.
<mgrwt>
<rscale>  4 0.47813211E+03</rscale>
<asrwt>0</asrwt>
<pdfrwt beam="1">  1       21 0.66626208E-01 0.47813211E+03</pdfrwt>
<pdfrwt beam="2">  1        1 0.48898030E-01 0.47813211E+03</pdfrwt>
<totfact> 0.17023068E+03</totfact>
</mgrwt>
</event>
<event>
 5    0  0.3188794E-002  0.5274513E+03  0.7546771E-02  0.1006852E+00
          4   -1    0    0  503    0 -0.00000000000E+00  0.00000000000E+00  0.12659697674E+04  0.12659697674E+04  0.00000000000E+00 0. -1.
         21   -1    0    0  501  502  0.00000000000E+00 -0.00000000000E+00 -0.77234823283E+02  0.77234823283E+02  0.00000000000E+00 0.  1.
         25    1    1    2    0    0 -0.47179971288E+02  0.22478281235E+03  0.49417575985E+03  0.55909564839E+03  0.12500000000E+03 0.  0.
         21    1    1    2  503  502  0.24626802262E+02 -0.25800681261E+03  0.69725060020E+03  0.74386315557E+03  0.00000000000E+00 0.  1.
          4    1    1    2  501    0  0.22553169026E+02  0.33224000255E+02 -0.26914159690E+01  0.40245786686E+02  0.00000000000E+00 0. -1.
<mgrwt>
<rscale>  4 0.52745130E+03</rscale>
<asrwt>0</asrwt>
<pdfrwt beam="1">  1       21 0.11882281E-01 0.52745130E+03</pdfrwt>
<pdfrwt beam="2">  1        4 0.19476456E+00 0.52745130E+03</pdfrwt>
<totfact> 0.38096940E+02</totfact>
</mgrwt>
</event>
<event>
 5    0  0.3188794E-002  0.6746273E+03  0.7546771E-02  0.9761634E-01
          1   -1    0    0  503    0 -0.00000000000E+00  0.00000000000E+00  0.12794581184E+04  0.12794581184E+04  0.00000000000E+00 0.  1.
         21   -1    0    0  501  502  0.00000000000E+00 -0.00000000000E+00 -0.27610137481E+03  0.27610137481E+03  0.00000000000E+00 0. -1.
         25    1    1    2    0    0 -0.21495579757E+03  0.22734657847E+03  0.24741958509E+03  0.41801185717E+03  0.12500000000E+03 0.  0.
         21    1    1    2  503  502  0.20672488732E+03 -0.14022038195E+03 -0.10587384795E+03  0.27130463732E+03  0.00000000000E+00 0. -1.
          1    1    1    2  501    0  0.82309102538E+01 -0.87126196523E+02  0.86181100641E+03  0.86624299868E+03  0.00000000000E+00 0.  1.
<mgrwt>
<rscale>  4 0.67462733E+03</rscale>
<asrwt>0</asrwt>
<pdfrwt beam="1">  1       21 0.42477135E-01 0.67462733E+03</pdfrwt>
<pdfrwt beam="2">  1        1 0.19683971E+00 0.67462733E+03</pdfrwt>
<totfact> 0.51752150E+02</totfact>
</mgrwt>
</event>
<event>
 5    0  0.3188794E-002  0.4104825E+03  0.7546771E-02  0.1040209E+00
         21   -1    0    0  501  502  0.00000000000E+00  0.00000000000E+00  0.37528101435E+02  0.37528101435E+02  0.00000000000E+00 0. -1.
          1   -1    0    0  503    0 -0.00000000000E+00 -0.00000000000E+00 -0.39756181669E+04  0.39756181669E+04  0.00000000000E+00 0. -1.
         25    1    1    2    0    0 -0.44104893132E+01 -0.24414275214E+03 -0.28247075417E+04  0.28379962706E+04  0.12500000000E+03 0.  0.
         21    1    1    2  503  502  0.69611661310E+02  0.11010024101E+03 -0.92883080001E+03  0.93792030659E+03  0.00000000000E+00 0.  1.
          1    1    1    2  501    0 -0.65201171997E+02  0.13404251112E+03 -0.18455172375E+03  0.23722969114E+03  0.00000000000E+00 0. -1.
<mgrwt>
<rscale>  4 0.41048254E+03</rscale>
<asrwt>0</asrwt>
<pdfrwt beam="1">  1       21 0.57735581E-02 0.41048254E+03</pdfrwt>
<pdfrwt beam="2">  1        1 0.61163314E+00 0.41048254E+03</pdfrwt>
<totfact> 0.28782290E+02</totfact>
</mgrwt>
</event>
<event>
 5    0  0.3188794E-002  0.5806522E+03  0.7546771E-02  0.9946380E-01
          1   -1    0    0  503    0 -0.00000000000E+00  0.00000000000E+00  0.10235443784E+04  0.10235443784E+04  0.00000000000E+00 0. -1.
         21   -1    0    0  501  502  0.00000000000E+00 -0.00000000000E+00 -0.12182915624E+04  0.12182915624E+04  0.00000000000E+00 0. -1.
         25    1    1    2    0    0  0.21104905539E+03 -0.37811882193E+02  0.92954600640E+03  0.96210821649E+03  0.12500000000E+03 0.  0.
         21    1    1    2  503  502 -0.14158629376E+03  0.14455728498E+02  0.10370720105E+02  0.14269967940E+03  0.00000000000E+00 0.  1.
          1    1    1    2  501    0 -0.69462761630E+02  0.23356153695E+02 -0.11346639105E+04  0.11370280449E+04  0.00000000000E+00 0. -1.
<mgrwt>
<rscale>  4 0.58065225E+03</rscale>
<asrwt>0</asrwt>
<pdfrwt beam="1">  1       21 0.18742947E+00 0.58065225E+03</pdfrwt>
<pdfrwt beam="2">  1        1 0.15746837E+00 0.58065225E+03</pdfrwt>
<totfact> 0.22011568E+01</totfact>
</mgrwt>
</event>
<event>
 5    0  0.3188794E-002  0.4175525E+03  0.7546771E-02  0.1037866E+00
         21   -1    0    0  501  502  0.00000000000E+00  0.00000000000E+00  0.14322604109E+04  0.14322604109E+04  0.00000000000E+00 0.  1.
         -1   -1    0    0    0  501 -0.00000000000E+00 -0.00000000000E+00 -0.77473859846E+02  0.77473859846E+02  0.00000000000E+00 0.  1.
         25    1    1    2    0    0 -0.23707164023E+03  0.21739588880E+02  0.29377344452E+03  0.39825043507E+03  0.12500000000E+03 0.  0.
         21    1    1    2  503  502 -0.81253284354E+00  0.35024276111E+02  0.47761783484E+03  0.47890098797E+03  0.00000000000E+00 0. -1.
         -1    1    1    2    0  503  0.23788417308E+03 -0.56763864991E+02  0.58339527165E+03  0.63258284766E+03  0.00000000000E+00 0.  1.
<mgrwt>
<rscale>  4 0.41755253E+03</rscale>
<asrwt>0</asrwt>
<pdfrwt beam="1">  1       21 0.22034774E+00 0.41755253E+03</pdfrwt>
<pdfrwt beam="2">  1       -1 0.11919056E-01 0.41755253E+03</pdfrwt>
<totfact> 0.37238311E+02</totfact>
</mgrwt>
</event>
<event>
 5    0  0.3188794E-002  0.8417395E+03  0.7546771E-02  0.9501491E-01
         21   -1    0    0  503  502  0.00000000000E+00  0.00000000000E+00  0.15917385002E+04  0.15917385002E+04  0.00000000000E+00 0.  1.
         -3   -1    0    0    0  501 -0.00000000000E+00 -0.00000000000E+00 -0.15554069391E+03  0.15554069391E+03  0.00000000000E+00 0. -1.
         25    1    1    2    0    0 -0.29511325444E+03  0.14613704745E+03  0.18606636188E+03  0.39836360351E+03  0.12500000000E+03 0.  0.
         21    1    1    2  503  501  0.33315104069E+03 -0.21937112278E+03  0.83150862261E+03  0.92223635522E+03  0.00000000000E+00 0.  1.
         -3    1    1    2    0  502 -0.38037786255E+02  0.73234075328E+02  0.41862282178E+03  0.42667923536E+03  0.00000000000E+00 0. -1.
<mgrwt>
<rscale>  4 0.84173951E+03</rscale>
<asrwt>0</asrwt>
<pdfrwt beam="1">  1       21 0.24488283E+00 0.84173951E+03</pdfrwt>
<pdfrwt beam="2">  1       -3 0.23929339E-01 0.84173951E+03</pdfrwt>
<totfact> 0.46190109E+01</totfact>
</mgrwt>
</event>
<event>
 5    0  0.3188794E-002  0.4411143E+03  0.7546771E-02  0.1030405E+00
         -2   -1    0    0    0  501 -0.00000000000E+00  0.00000000000E+00  0.20171861368E+03  0.20171861368E+03  0.00000000000E+00 0. -1.
         21   -1    0    0  503  502  0.00000000000E+00 -0.00000000000E+00 -0.52951890668E+03  0.52951890668E+03  0.00000000000E+00 0. -1.
         25    1    1    2    0    0 -0.23857673340E+03  0.57450099163E+02 -0.36396906652E+02  0.27779328003E+03  0.12500000000E+03 0.  0.
         21    1    1    2  503  501  0.13881062243E+03  0.81059648178E+02 -0.73800280079E+02  0.17687717999E+03  0.00000000000E+00 0.  1.
         -2    1    1    2    0  502  0.99766110970E+02 -0.13850974734E+03 -0.21760310627E+03  0.27656706034E+03  0.00000000000E+00 0. -1.
<mgrwt>
<rscale>  4 0.44111428E+03</rscale>
<asrwt>0</asrwt>
<pdfrwt beam="1">  1       21 0.81464446E-01 0.44111428E+03</pdfrwt>
<pdfrwt beam="2">  1       -2 0.31033633E-01 0.44111428E+03</pdfrwt>
<totfact> 0.95330629E+02</totfact>
</mgrwt>
</event>
