<event>
 5    0  0.1911311E+001  0.2986350E+03  0.7546771E-02  0.1085925E+00
         21   -1    0    0  504  501  0.00000000000E+00  0.00000000000E+00  0.57657165493E+03  0.57657165493E+03  0.00000000000E+00 0.  1.
         21   -1    0    0  503  502 -0.00000000000E+00 -0.00000000000E+00 -0.64519202056E+03  0.64519202056E+03  0.00000000000E+00 0.  1.
         25    1    1    2    0    0 -0.38058711801E+03 -0.58790726972E+02  0.82916515324E+02  0.41328325939E+03  0.12500000000E+03 0.  0.
         21    1    1    2  503  501  0.24090133448E+03 -0.99605420683E+02 -0.40308445893E+03  0.48003309658E+03  0.00000000000E+00 0.  1.
         21    1    1    2  504  502  0.13968578354E+03  0.15839614766E+03  0.25154757798E+03  0.32844731953E+03  0.00000000000E+00 0.  1.
<mgrwt>
<rscale>  4 0.29863496E+03</rscale>
<asrwt>0</asrwt>
<pdfrwt beam="1">  1       21 0.88703332E-01 0.29863496E+03</pdfrwt>
<pdfrwt beam="2">  1       21 0.99260311E-01 0.29863496E+03</pdfrwt>
<totfact> 0.83119464E+02</totfact>
</mgrwt>
</event>
<event>
 5    0  0.1911311E+001  0.2954187E+03  0.7546771E-02  0.1087553E+00
         21   -1    0    0  504  501  0.00000000000E+00  0.00000000000E+00  0.11853003034E+04  0.11853003034E+04  0.00000000000E+00 0. -1.
         21   -1    0    0  503  502 -0.00000000000E+00 -0.00000000000E+00 -0.16756758286E+03  0.16756758286E+03  0.00000000000E+00 0. -1.
         25    1    1    2    0    0 -0.12838341329E+03  0.20394936545E+03  0.27715150526E+03  0.38796340206E+03  0.12500000000E+03 0.  0.
         21    1    1    2  503  501  0.41175228864E+01  0.45977636054E+02 -0.83185917553E+02  0.95135660459E+02  0.00000000000E+00 0.  1.
         21    1    1    2  504  502  0.12426589040E+03 -0.24992700150E+03  0.82376713285E+03  0.86976882374E+03  0.00000000000E+00 0. -1.
<mgrwt>
<rscale>  4 0.29541873E+03</rscale>
<asrwt>0</asrwt>
<pdfrwt beam="1">  1       21 0.18235389E+00 0.29541873E+03</pdfrwt>
<pdfrwt beam="2">  1       21 0.25779629E-01 0.29541873E+03</pdfrwt>
<totfact> 0.23068114E+03</totfact>
</mgrwt>
</event>
<event>
 5    0  0.1911311E+001  0.3269089E+03  0.7546771E-02  0.1072513E+00
         21   -1    0    0  503  501  0.00000000000E+00  0.00000000000E+00  0.14490158822E+03  0.14490158822E+03  0.00000000000E+00 0. -1.
         21   -1    0    0  501  502 -0.00000000000E+00 -0.00000000000E+00 -0.81819893630E+03  0.81819893630E+03  0.00000000000E+00 0.  1.
         25    1    1    2    0    0  0.28315178807E+03  0.83123903447E+02 -0.21149461220E+03  0.38397850122E+03  0.12500000000E+03 0.  0.
         21    1    1    2  503  504  0.25047243694E+02 -0.24722869889E+02 -0.57274975456E+02  0.67223563768E+02  0.00000000000E+00 0. -1.
         21    1    1    2  504  502 -0.30819903177E+03 -0.58401033558E+02 -0.40452776043E+03  0.51189845952E+03  0.00000000000E+00 0.  1.
<mgrwt>
<rscale>  4 0.32690895E+03</rscale>
<asrwt>0</asrwt>
<pdfrwt beam="1">  1       21 0.22292552E-01 0.32690895E+03</pdfrwt>
<pdfrwt beam="2">  1       21 0.12587676E+00 0.32690895E+03</pdfrwt>
<totfact> 0.81603178E+03</totfact>
</mgrwt>
</event>
<event>
 5    0  0.1911311E+001  0.3101313E+03  0.7546771E-02  0.1080283E+00
         21   -1    0    0  502  501  0.00000000000E+00  0.00000000000E+00  0.19911315280E+03  0.19911315280E+03  0.00000000000E+00 0.  1.
         21   -1    0    0  504  502 -0.00000000000E+00 -0.00000000000E+00 -0.82552450118E+03  0.82552450118E+03  0.00000000000E+00 0.  1.
         25    1    1    2    0    0  0.27875937113E+03 -0.11914557134E+02 -0.60749425890E+01  0.30579510884E+03  0.12500000000E+03 0.  0.
         21    1    1    2  503  501 -0.29628403085E+03  0.45999047421E+02 -0.42707269274E+03  0.52181531617E+03  0.00000000000E+00 0.  1.
         21    1    1    2  504  503  0.17524659726E+02 -0.34084490287E+02 -0.19326371304E+03  0.19702722897E+03  0.00000000000E+00 0.  1.
<mgrwt>
<rscale>  4 0.31013125E+03</rscale>
<asrwt>0</asrwt>
<pdfrwt beam="1">  1       21 0.30632793E-01 0.31013125E+03</pdfrwt>
<pdfrwt beam="2">  1       21 0.12700377E+00 0.31013125E+03</pdfrwt>
<totfact> 0.43388311E+03</totfact>
</mgrwt>
</event>
<event>
 5    0  0.1911311E+001  0.2566932E+03  0.7546771E-02  0.1109146E+00
         21   -1    0    0  502  501  0.00000000000E+00  0.00000000000E+00  0.70246925709E+03  0.70246925709E+03  0.00000000000E+00 0.  1.
         21   -1    0    0  504  502 -0.00000000000E+00 -0.00000000000E+00 -0.17997559454E+03  0.17997559454E+03  0.00000000000E+00 0.  1.
         25    1    1    2    0    0 -0.24165003697E+03 -0.40621034823E+02  0.46965860274E+03  0.54428761879E+03  0.12500000000E+03 0.  0.
         21    1    1    2  503  501  0.28935249703E+02 -0.18643664958E+02  0.10564708688E+03  0.11111319402E+03  0.00000000000E+00 0. -1.
         21    1    1    2  504  503  0.21271478727E+03  0.59264699782E+02 -0.52812027075E+02  0.22704403882E+03  0.00000000000E+00 0.  1.
<mgrwt>
<rscale>  4 0.25669324E+03</rscale>
<asrwt>0</asrwt>
<pdfrwt beam="1">  1       21 0.10807219E+00 0.25669324E+03</pdfrwt>
<pdfrwt beam="2">  1       21 0.27688553E-01 0.25669324E+03</pdfrwt>
<totfact> 0.81368819E+03</totfact>
</mgrwt>
</event>
<event>
 5    0  0.1911311E+001  0.4223585E+03  0.7546771E-02  0.1036301E+00
         21   -1    0    0  502  501  0.00000000000E+00  0.00000000000E+00  0.41239446417E+03  0.41239446417E+03  0.00000000000E+00 0.  1.
         21   -1    0    0  504  502 -0.00000000000E+00 -0.00000000000E+00 -0.54764535076E+03  0.54764535076E+03  0.00000000000E+00 0.  1.
         25    1    1    2    0    0  0.10828222008E+02 -0.38130248896E+03 -0.24725688522E+03  0.47145498806E+03  0.12500000000E+03 0.  0.
         21    1    1    2  503  501 -0.69267904002E+01  0.41220281256E+03  0.15067473571E+03  0.43893281387E+03  0.00000000000E+00 0.  1.
         21    1    1    2  504  503 -0.39014316075E+01 -0.30900323605E+02 -0.38668737083E+02  0.49652013001E+02  0.00000000000E+00 0. -1.
<mgrwt>
<rscale>  4 0.42235853E+03</rscale>
<asrwt>0</asrwt>
<pdfrwt beam="1">  1       21 0.63445302E-01 0.42235853E+03</pdfrwt>
<pdfrwt beam="2">  1       21 0.84253131E-01 0.42235853E+03</pdfrwt>
<totfact> 0.24602094E+03</totfact>
</mgrwt>
</event>
<event>
 5    0  0.1911311E+001  0.2869667E+03  0.7546771E-02  0.1091944E+00
         21   -1    0    0  502  501  0.00000000000E+00  0.00000000000E+00  0.72400172892E+02  0.72400172892E+02  0.00000000000E+00 0. -1.
         21   -1    0    0  504  502 -0.00000000000E+00 -0.00000000000E+00 -0.13279555323E+04  0.13279555323E+04  0.00000000000E+00 0. -1.
         25    1    1    2    0    0  0.24726125653E+03 -0.83770606305E+02 -0.65018420272E+03  0.71170228392E+03  0.12500000000E+03 0.  0.
         21    1    1    2  503  501  0.61082033352E+01  0.38934619581E+02 -0.10906369076E+02  0.40892097480E+02  0.00000000000E+00 0. -1.
         21    1    1    2  504  503 -0.25336945987E+03  0.44835986724E+02 -0.59446478765E+03  0.64776132383E+03  0.00000000000E+00 0. -1.
<mgrwt>
<rscale>  4 0.28696671E+03</rscale>
<asrwt>0</asrwt>
<pdfrwt beam="1">  1       21 0.11138488E-01 0.28696671E+03</pdfrwt>
<pdfrwt beam="2">  1       21 0.20430085E+00 0.28696671E+03</pdfrwt>
<totfact> 0.78856373E+03</totfact>
</mgrwt>
</event>
