<event>
 5    0  0.1856407E+000  0.2225837E+03  0.7546771E-02  0.1131971E+00
         21   -1    0    0  502  501  0.00000000000E+00  0.00000000000E+00  0.71446451893E+02  0.71446451893E+02  0.00000000000E+00 0. -1.
         21   -1    0    0  503  502 -0.00000000000E+00 -0.00000000000E+00 -0.11643681428E+04  0.11643681428E+04  0.00000000000E+00 0. -1.
         25    1    1    2    0    0 -0.17458644399E+03 -0.11823280185E+03 -0.38702908288E+03  0.45812218114E+03  0.12500000000E+03 0.  0.
         21    1    1    2  503  504 -0.53872356182E+01  0.99576720992E+02 -0.85192232771E+02  0.13115739474E+03  0.00000000000E+00 0. -1.
         21    1    1    2  504  501  0.17997367961E+03  0.18656080860E+02 -0.62070037522E+03  0.64653501878E+03  0.00000000000E+00 0. -1.
<mgrwt>
<rscale>  4 0.22258367E+03</rscale>
<asrwt>0</asrwt>
<pdfrwt beam="1">  1       21 0.10991762E-01 0.22258367E+03</pdfrwt>
<pdfrwt beam="2">  1       21 0.17913356E+00 0.22258367E+03</pdfrwt>
<totfact> 0.12378410E+04</totfact>
</mgrwt>
</event>
<event>
 5    0  0.1856407E+000  0.5034886E+03  0.7546771E-02  0.1012872E+00
         21   -1    0    0  502  501  0.00000000000E+00  0.00000000000E+00  0.13635745729E+04  0.13635745729E+04  0.00000000000E+00 0. -1.
         21   -1    0    0  503  502 -0.00000000000E+00 -0.00000000000E+00 -0.47127858841E+03  0.47127858841E+03  0.00000000000E+00 0. -1.
         25    1    1    2    0    0  0.33778038195E+02  0.57155733397E+03  0.99156586401E+03  0.11518014606E+04  0.12500000000E+03 0.  0.
         21    1    1    2  503  504  0.15710378189E+03 -0.28823940919E+03 -0.93703788829E+02  0.34138534728E+03  0.00000000000E+00 0. -1.
         21    1    1    2  504  501 -0.19088182008E+03 -0.28331792478E+03 -0.55660906767E+01  0.34166635348E+03  0.00000000000E+00 0. -1.
<mgrwt>
<rscale>  4 0.50348859E+03</rscale>
<asrwt>0</asrwt>
<pdfrwt beam="1">  1       21 0.20978070E+00 0.50348859E+03</pdfrwt>
<pdfrwt beam="2">  1       21 0.72504399E-01 0.50348859E+03</pdfrwt>
<totfact> 0.15569102E+02</totfact>
</mgrwt>
</event>
<event>
 5    0  0.1856407E+000  0.2109789E+03  0.7546771E-02  0.1140793E+00
         21   -1    0    0  502  501  0.00000000000E+00  0.00000000000E+00  0.11650846873E+03  0.11650846873E+03  0.00000000000E+00 0. -1.
         21   -1    0    0  503  502 -0.00000000000E+00 -0.00000000000E+00 -0.69843716529E+03  0.69843716529E+03  0.00000000000E+00 0. -1.
         25    1    1    2    0    0 -0.18807055401E+03 -0.14513532062E+03 -0.19554694442E+03  0.33211203237E+03  0.12500000000E+03 0.  0.
         21    1    1    2  503  504  0.52561261585E+02  0.70618138441E+02 -0.27786135414E+02  0.92312929850E+02  0.00000000000E+00 0. -1.
         21    1    1    2  504  501  0.13550929242E+03  0.74517182176E+02 -0.35859561673E+03  0.39052067181E+03  0.00000000000E+00 0. -1.
<mgrwt>
<rscale>  4 0.21097886E+03</rscale>
<asrwt>0</asrwt>
<pdfrwt beam="1">  1       21 0.17924380E-01 0.21097886E+03</pdfrwt>
<pdfrwt beam="2">  1       21 0.10745187E+00 0.21097886E+03</pdfrwt>
<totfact> 0.19333913E+04</totfact>
</mgrwt>
</event>
<event>
 5    0  0.1856407E+000  0.4289957E+03  0.7546771E-02  0.1034178E+00
         21   -1    0    0  502  501  0.00000000000E+00  0.00000000000E+00  0.39292683154E+03  0.39292683154E+03  0.00000000000E+00 0.  1.
         21   -1    0    0  503  502 -0.00000000000E+00 -0.00000000000E+00 -0.58351290634E+03  0.58351290634E+03  0.00000000000E+00 0.  1.
         25    1    1    2    0    0  0.61455890409E+02  0.43252476866E+03 -0.18664775745E+03  0.49124015240E+03  0.12500000000E+03 0.  0.
         21    1    1    2  503  504 -0.74000774017E+02 -0.37622207309E+03 -0.78041150285E+02  0.39129219769E+03  0.00000000000E+00 0.  1.
         21    1    1    2  504  501  0.12544883608E+02 -0.56302695563E+02  0.74102832936E+02  0.93907387790E+02  0.00000000000E+00 0. -1.
<mgrwt>
<rscale>  4 0.42899571E+03</rscale>
<asrwt>0</asrwt>
<pdfrwt beam="1">  1       21 0.60450282E-01 0.42899571E+03</pdfrwt>
<pdfrwt beam="2">  1       21 0.89771216E-01 0.42899571E+03</pdfrwt>
<totfact> 0.23517509E+03</totfact>
</mgrwt>
</event>
<event>
 5    0  0.1856407E+000  0.2206297E+03  0.7546771E-02  0.1133414E+00
         21   -1    0    0  502  501  0.00000000000E+00  0.00000000000E+00  0.10440521759E+03  0.10440521759E+03  0.00000000000E+00 0. -1.
         21   -1    0    0  503  502 -0.00000000000E+00 -0.00000000000E+00 -0.94982349286E+03  0.94982349286E+03  0.00000000000E+00 0. -1.
         25    1    1    2    0    0  0.16775269400E+03  0.18574701468E+03 -0.34341341838E+03  0.44294547715E+03  0.12500000000E+03 0.  0.
         21    1    1    2  503  504 -0.12424088795E+03 -0.24950085057E+02 -0.62554929203E+02  0.14132028924E+03  0.00000000000E+00 0. -1.
         21    1    1    2  504  501 -0.43511806046E+02 -0.16079692962E+03 -0.43944992769E+03  0.46996294406E+03  0.00000000000E+00 0. -1.
<mgrwt>
<rscale>  4 0.22062975E+03</rscale>
<asrwt>0</asrwt>
<pdfrwt beam="1">  1       21 0.16062340E-01 0.22062975E+03</pdfrwt>
<pdfrwt beam="2">  1       21 0.14612670E+00 0.22062975E+03</pdfrwt>
<totfact> 0.10863461E+04</totfact>
</mgrwt>
</event>
<event>
 5    0  0.1856407E+000  0.3733224E+03  0.7546771E-02  0.1053430E+00
         21   -1    0    0  502  501  0.00000000000E+00  0.00000000000E+00  0.44950563717E+03  0.44950563717E+03  0.00000000000E+00 0. -1.
         21   -1    0    0  503  502 -0.00000000000E+00 -0.00000000000E+00 -0.35289809008E+03  0.35289809008E+03  0.00000000000E+00 0. -1.
         25    1    1    2    0    0  0.99465461370E+02 -0.33741850616E+03  0.19951951915E+03  0.42329382800E+03  0.12500000000E+03 0.  0.
         21    1    1    2  503  504 -0.95959597679E+02  0.30218714838E+03 -0.58661194627E+02  0.32243829299E+03  0.00000000000E+00 0. -1.
         21    1    1    2  504  501 -0.35058636907E+01  0.35231357785E+02 -0.44250777430E+02  0.56671606248E+02  0.00000000000E+00 0. -1.
<mgrwt>
<rscale>  4 0.37332242E+03</rscale>
<asrwt>0</asrwt>
<pdfrwt beam="1">  1       21 0.69154714E-01 0.37332242E+03</pdfrwt>
<pdfrwt beam="2">  1       21 0.54292014E-01 0.37332242E+03</pdfrwt>
<totfact> 0.55265880E+03</totfact>
</mgrwt>
</event>
<event>
 5    0  0.1856407E+000  0.2332133E+03  0.7546771E-02  0.1124398E+00
         21   -1    0    0  502  501  0.00000000000E+00  0.00000000000E+00  0.45619965170E+03  0.45619965170E+03  0.00000000000E+00 0.  1.
         21   -1    0    0  503  502 -0.00000000000E+00 -0.00000000000E+00 -0.36645116257E+03  0.36645116257E+03  0.00000000000E+00 0.  1.
         25    1    1    2    0    0  0.15326301697E+03  0.14968623415E+03  0.35279872404E+03  0.43126263546E+03  0.12500000000E+03 0.  0.
         21    1    1    2  503  504 -0.13455777670E+03  0.35526055514E+01 -0.13732665237E+03  0.19229411256E+03  0.00000000000E+00 0.  1.
         21    1    1    2  504  501 -0.18705240272E+02 -0.15323883970E+03 -0.12572358255E+03  0.19909406625E+03  0.00000000000E+00 0.  1.
<mgrwt>
<rscale>  4 0.23321333E+03</rscale>
<asrwt>0</asrwt>
<pdfrwt beam="1">  1       21 0.70184562E-01 0.23321333E+03</pdfrwt>
<pdfrwt beam="2">  1       21 0.56377102E-01 0.23321333E+03</pdfrwt>
<totfact> 0.52947245E+03</totfact>
</mgrwt>
</event>
