<event>
 5    0  0.3188794E-002  0.3682268E+03  0.7546771E-02  0.1055373E+00
          2   -1    0    0  503    0 -0.00000000000E+00  0.00000000000E+00  0.10399432855E+04  0.10399432855E+04  0.00000000000E+00 0. -1.
         21   -1    0    0  501  502  0.00000000000E+00 -0.00000000000E+00 -0.70072124621E+02  0.70072124621E+02  0.00000000000E+00 0.  1.
         25    1    1    2    0    0  0.14301796415E+03 -0.16800693813E+03  0.65374259360E+03  0.70120243013E+03  0.12500000000E+03 0.  0.
         21    1    1    2  503  502 -0.10443555517E+03  0.26012710280E+02  0.17162282897E+03  0.20257798919E+03  0.00000000000E+00 0. -1.
          2    1    1    2  501    0 -0.38582408978E+02  0.14199422785E+03  0.14450573829E+03  0.20623499078E+03  0.00000000000E+00 0. -1.
<mgrwt>
<rscale>  4 0.36822679E+03</rscale>
<asrwt>0</asrwt>
<pdfrwt beam="1">  1       21 0.10780328E-01 0.36822679E+03</pdfrwt>
<pdfrwt beam="2">  1        2 0.15999126E+00 0.36822679E+03</pdfrwt>
<totfact> 0.21774582E+04</totfact>
</mgrwt>
</event>
<event>
 5    0  0.3188794E-002  0.8432894E+03  0.7546771E-02  0.9499388E-01
         21   -1    0    0  501  502  0.00000000000E+00  0.00000000000E+00  0.84465640166E+03  0.84465640166E+03  0.00000000000E+00 0. -1.
          2   -1    0    0  503    0 -0.00000000000E+00 -0.00000000000E+00 -0.41852746874E+03  0.41852746874E+03  0.00000000000E+00 0. -1.
         25    1    1    2    0    0 -0.21676922087E+03 -0.34689010034E+03 -0.12845273290E+03  0.44659460523E+03  0.12500000000E+03 0.  0.
         21    1    1    2  503  502  0.28031385919E+03  0.23441954585E+03  0.15550817857E+03  0.39712866521E+03  0.00000000000E+00 0.  1.
          2    1    1    2  501    0 -0.63544638322E+02  0.11247055450E+03  0.39907348725E+03  0.41946059996E+03  0.00000000000E+00 0. -1.
<mgrwt>
<rscale>  4 0.84328937E+03</rscale>
<asrwt>0</asrwt>
<pdfrwt beam="1">  1       21 0.12994714E+00 0.84328937E+03</pdfrwt>
<pdfrwt beam="2">  1        2 0.64388842E-01 0.84328937E+03</pdfrwt>
<totfact> 0.33825440E+02</totfact>
</mgrwt>
</event>
<event>
 5    0  0.3188794E-002  0.3782958E+03  0.7546771E-02  0.1051565E+00
          2   -1    0    0  503    0 -0.00000000000E+00  0.00000000000E+00  0.34624276419E+04  0.34624276419E+04  0.00000000000E+00 0.  1.
         21   -1    0    0  501  502  0.00000000000E+00 -0.00000000000E+00 -0.24488313561E+02  0.24488313561E+02  0.00000000000E+00 0. -1.
         25    1    1    2    0    0  0.13947564984E+03 -0.20069736319E+03  0.16768630587E+04  0.16991843944E+04  0.12500000000E+03 0.  0.
         21    1    1    2  503  502 -0.10308793881E+03 -0.10101180905E+00  0.54847567486E+03  0.55807947395E+03  0.00000000000E+00 0.  1.
          2    1    1    2  501    0 -0.36387711029E+02  0.20079837500E+03  0.12126005948E+04  0.12296520872E+04  0.00000000000E+00 0.  1.
<mgrwt>
<rscale>  4 0.37829577E+03</rscale>
<asrwt>0</asrwt>
<pdfrwt beam="1">  1       21 0.37674356E-02 0.37829577E+03</pdfrwt>
<pdfrwt beam="2">  1        2 0.53268079E+00 0.37829577E+03</pdfrwt>
<totfact> 0.56876428E+03</totfact>
</mgrwt>
</event>
<event>
 5    0  0.3188794E-002  0.7476654E+03  0.7546771E-02  0.9639020E-01
          1   -1    0    0  502    0 -0.00000000000E+00  0.00000000000E+00  0.29625148231E+04  0.29625148231E+04  0.00000000000E+00 0. -1.
         21   -1    0    0  503  502  0.00000000000E+00 -0.00000000000E+00 -0.14693490152E+03  0.14693490152E+03  0.00000000000E+00 0.  1.
         25    1    1    2    0    0 -0.25085592956E+03  0.12326963563E+03  0.31040268800E+03  0.43600335914E+03  0.12500000000E+03 0.  0.
         21    1    1    2  503  501  0.43778127989E+03 -0.42671957019E+02  0.53419824823E+03  0.69198346320E+03  0.00000000000E+00 0.  1.
          1    1    1    2  501    0 -0.18692535033E+03 -0.80597678609E+02  0.19709789854E+04  0.19814629023E+04  0.00000000000E+00 0. -1.
<mgrwt>
<rscale>  4 0.74766539E+03</rscale>
<asrwt>0</asrwt>
<pdfrwt beam="1">  1       21 0.22605372E-01 0.74766539E+03</pdfrwt>
<pdfrwt beam="2">  1        1 0.45577147E+00 0.74766539E+03</pdfrwt>
<totfact> 0.12935813E+02</totfact>
</mgrwt>
</event>
<event>
 5    0  0.3188794E-002  0.4845748E+03  0.7546771E-02  0.1017885E+00
          1   -1    0    0  503    0 -0.00000000000E+00  0.00000000000E+00  0.89514773390E+03  0.89514773390E+03  0.00000000000E+00 0. -1.
         21   -1    0    0  501  502  0.00000000000E+00 -0.00000000000E+00 -0.87507753462E+02  0.87507753462E+02  0.00000000000E+00 0.  1.
         25    1    1    2    0    0  0.22026216593E+03 -0.54097590872E+02  0.29787434265E+03  0.39471014059E+03  0.12500000000E+03 0.  0.
         21    1    1    2  503  502 -0.19585915101E+03  0.27306952242E+02  0.51469045996E+03  0.55137350884E+03  0.00000000000E+00 0. -1.
          1    1    1    2  501    0 -0.24403014923E+02  0.26790638630E+02 -0.49248221772E+01  0.36571837922E+02  0.00000000000E+00 0. -1.
<mgrwt>
<rscale>  4 0.48457478E+03</rscale>
<asrwt>0</asrwt>
<pdfrwt beam="1">  1       21 0.13462732E-01 0.48457478E+03</pdfrwt>
<pdfrwt beam="2">  1        1 0.13771503E+00 0.48457478E+03</pdfrwt>
<totfact> 0.97635306E+03</totfact>
</mgrwt>
</event>
<event>
 5    0  0.3188794E-002  0.5114651E+03  0.7546771E-02  0.1010829E+00
         21   -1    0    0  501  502  0.00000000000E+00  0.00000000000E+00  0.75212974625E+03  0.75212974625E+03  0.00000000000E+00 0.  1.
          1   -1    0    0  503    0 -0.00000000000E+00 -0.00000000000E+00 -0.15106563455E+03  0.15106563455E+03  0.00000000000E+00 0. -1.
         25    1    1    2    0    0  0.17409470092E+03  0.98668256306E+02  0.88805885441E+02  0.25210290554E+03  0.12500000000E+03 0.  0.
         21    1    1    2  503  502 -0.26080730697E+03 -0.45927882411E+02  0.22865386477E+03  0.34987485138E+03  0.00000000000E+00 0.  1.
          1    1    1    2  501    0  0.86712606046E+02 -0.52740373895E+02  0.28360436149E+03  0.30121762389E+03  0.00000000000E+00 0. -1.
<mgrwt>
<rscale>  4 0.51146508E+03</rscale>
<asrwt>0</asrwt>
<pdfrwt beam="1">  1       21 0.11571227E+00 0.51146508E+03</pdfrwt>
<pdfrwt beam="2">  1        1 0.23240867E-01 0.51146508E+03</pdfrwt>
<totfact> 0.11930015E+03</totfact>
</mgrwt>
</event>
<event>
 5    0  0.3188794E-002  0.5654507E+03  0.7546771E-02  0.9979796E-01
          4   -1    0    0  503    0 -0.00000000000E+00  0.00000000000E+00  0.72972235446E+03  0.72972235446E+03  0.00000000000E+00 0.  1.
         21   -1    0    0  501  502  0.00000000000E+00 -0.00000000000E+00 -0.15534482116E+04  0.15534482116E+04  0.00000000000E+00 0.  1.
         25    1    1    2    0    0  0.22289562271E+03 -0.12733499893E+03  0.58637532947E+03  0.65219451668E+03  0.12500000000E+03 0.  0.
         21    1    1    2  503  502 -0.17741318495E+03 -0.34469514818E+02  0.28174057529E+02  0.18291354013E+03  0.00000000000E+00 0. -1.
          4    1    1    2  501    0 -0.45482437758E+02  0.16180451375E+03 -0.14382752441E+04  0.14480625092E+04  0.00000000000E+00 0.  1.
<mgrwt>
<rscale>  4 0.56545072E+03</rscale>
<asrwt>0</asrwt>
<pdfrwt beam="1">  1       21 0.23899203E+00 0.56545072E+03</pdfrwt>
<pdfrwt beam="2">  1        4 0.11226498E+00 0.56545072E+03</pdfrwt>
<totfact> 0.17290503E+00</totfact>
</mgrwt>
</event>
<event>
 5    0  0.3188794E-002  0.5058599E+03  0.7546771E-02  0.1012261E+00
         21   -1    0    0  501  502  0.00000000000E+00  0.00000000000E+00  0.47676890860E+02  0.47676890860E+02  0.00000000000E+00 0.  1.
          1   -1    0    0  503    0 -0.00000000000E+00 -0.00000000000E+00 -0.34069844252E+04  0.34069844252E+04  0.00000000000E+00 0. -1.
         25    1    1    2    0    0 -0.92106805693E+02 -0.20101091498E+03 -0.69376886373E+03  0.73880260414E+03  0.12500000000E+03 0.  0.
         21    1    1    2  503  502  0.10144303315E+03 -0.70998301770E+02 -0.18880960114E+04  0.18921516842E+04  0.00000000000E+00 0. -1.
          1    1    1    2  501    0 -0.93362274552E+01  0.27200921675E+03 -0.77744265927E+03  0.82370702777E+03  0.00000000000E+00 0. -1.
<mgrwt>
<rscale>  4 0.50585990E+03</rscale>
<asrwt>0</asrwt>
<pdfrwt beam="1">  1       21 0.73349059E-02 0.50585990E+03</pdfrwt>
<pdfrwt beam="2">  1        1 0.52415147E+00 0.50585990E+03</pdfrwt>
<totfact> 0.51978510E+02</totfact>
</mgrwt>
</event>
<event>
 5    0  0.3188794E-002  0.4630984E+03  0.7546771E-02  0.1023886E+00
         21   -1    0    0  501  502  0.00000000000E+00  0.00000000000E+00  0.10915470067E+03  0.10915470067E+03  0.00000000000E+00 0.  1.
          2   -1    0    0  503    0 -0.00000000000E+00 -0.00000000000E+00 -0.25280092251E+04  0.25280092251E+04  0.00000000000E+00 0.  1.
         25    1    1    2    0    0 -0.30262994184E+03 -0.11761551247E+03 -0.13910973984E+04  0.14339439537E+04  0.12500000000E+03 0.  0.
         21    1    1    2  503  502 -0.15073919079E+02 -0.10723104052E+03 -0.65636962427E+03  0.66524191295E+03  0.00000000000E+00 0. -1.
          2    1    1    2  501    0  0.31770386092E+03  0.22484655299E+03 -0.37138750174E+03  0.53797805911E+03  0.00000000000E+00 0.  1.
<mgrwt>
<rscale>  4 0.46309836E+03</rscale>
<asrwt>0</asrwt>
<pdfrwt beam="1">  1       21 0.16793031E-01 0.46309836E+03</pdfrwt>
<pdfrwt beam="2">  1        2 0.38892449E+00 0.46309836E+03</pdfrwt>
<totfact> 0.14341684E+03</totfact>
</mgrwt>
</event>
<event>
 5    0  0.3188794E-002  0.5685889E+03  0.7546771E-02  0.9972806E-01
         21   -1    0    0  501  502  0.00000000000E+00  0.00000000000E+00  0.65357005012E+02  0.65357005012E+02  0.00000000000E+00 0.  1.
          2   -1    0    0  503    0 -0.00000000000E+00 -0.00000000000E+00 -0.34066777623E+04  0.34066777623E+04  0.00000000000E+00 0. -1.
         25    1    1    2    0    0  0.39815760210E+03  0.12208834608E+03 -0.19528480857E+04  0.20006688097E+04  0.12500000000E+03 0.  0.
         21    1    1    2  503  502 -0.57382491014E+02  0.34729127931E+02 -0.56883332275E+02  0.87946438771E+02  0.00000000000E+00 0. -1.
          2    1    1    2  501    0 -0.34077511108E+03 -0.15681747401E+03 -0.13315893393E+04  0.13834195188E+04  0.00000000000E+00 0. -1.
<mgrwt>
<rscale>  4 0.56858885E+03</rscale>
<asrwt>0</asrwt>
<pdfrwt beam="1">  1       21 0.10054921E-01 0.56858885E+03</pdfrwt>
<pdfrwt beam="2">  1        2 0.52410441E+00 0.56858885E+03</pdfrwt>
<totfact> 0.10530876E+03</totfact>
</mgrwt>
</event>
<event>
 5    0  0.3188794E-002  0.2908469E+03  0.7546771E-02  0.1089908E+00
         -3   -1    0    0    0  501 -0.00000000000E+00  0.00000000000E+00  0.77388293392E+03  0.77388293392E+03  0.00000000000E+00 0. -1.
         21   -1    0    0  503  502  0.00000000000E+00 -0.00000000000E+00 -0.15777502381E+03  0.15777502381E+03  0.00000000000E+00 0. -1.
         25    1    1    2    0    0  0.20766102083E+03  0.99757977261E+02  0.61307400955E+03  0.66675294884E+03  0.12500000000E+03 0.  0.
         21    1    1    2  503  501 -0.77591362399E+01  0.21134593166E+02  0.20752692559E+02  0.30619429647E+02  0.00000000000E+00 0.  1.
         -3    1    1    2    0  502 -0.19990188459E+03 -0.12089257043E+03 -0.17718792000E+02  0.23428557923E+03  0.00000000000E+00 0. -1.
<mgrwt>
<rscale>  4 0.29084695E+03</rscale>
<asrwt>0</asrwt>
<pdfrwt beam="1">  1       21 0.24273081E-01 0.29084695E+03</pdfrwt>
<pdfrwt beam="2">  1       -3 0.11905891E+00 0.29084695E+03</pdfrwt>
<totfact> 0.47019731E+02</totfact>
</mgrwt>
</event>
<event>
 5    0  0.3188794E-002  0.4279933E+03  0.7546771E-02  0.1034496E+00
          2   -1    0    0  503    0 -0.00000000000E+00  0.00000000000E+00  0.58167122004E+03  0.58167122004E+03  0.00000000000E+00 0.  1.
         21   -1    0    0  501  502  0.00000000000E+00 -0.00000000000E+00 -0.17584815564E+03  0.17584815564E+03  0.00000000000E+00 0. -1.
         25    1    1    2    0    0 -0.13908700275E+03 -0.15278045132E+03  0.31777830644E+03  0.39911791827E+03  0.12500000000E+03 0.  0.
         21    1    1    2  503  502  0.12070052543E+03  0.13918142202E+03  0.18363181570E+03  0.26011675996E+03  0.00000000000E+00 0. -1.
          2    1    1    2  501    0  0.18386477314E+02  0.13599029301E+02 -0.95587057743E+02  0.98284697455E+02  0.00000000000E+00 0.  1.
<mgrwt>
<rscale>  4 0.42799328E+03</rscale>
<asrwt>0</asrwt>
<pdfrwt beam="1">  1       21 0.27053563E-01 0.42799328E+03</pdfrwt>
<pdfrwt beam="2">  1        2 0.89487880E-01 0.42799328E+03</pdfrwt>
<totfact> 0.81747630E+03</totfact>
</mgrwt>
</event>
<event>
 5    0  0.3188794E-002  0.5748500E+03  0.7546771E-02  0.9959003E-01
          3   -1    0    0  503    0 -0.00000000000E+00  0.00000000000E+00  0.20331588370E+03  0.20331588370E+03  0.00000000000E+00 0.  1.
         21   -1    0    0  501  502  0.00000000000E+00 -0.00000000000E+00 -0.81713606368E+03  0.81713606368E+03  0.00000000000E+00 0.  1.
         25    1    1    2    0    0  0.10305143617E+03 -0.19661813013E+03 -0.13014750412E+03  0.28607981477E+03  0.12500000000E+03 0.  0.
         21    1    1    2  503  502 -0.15518752344E+03  0.27638681965E+03 -0.90249498547E+02  0.32957216736E+03  0.00000000000E+00 0.  1.
          3    1    1    2  501    0  0.52136087275E+02 -0.79768689523E+02 -0.39342317731E+03  0.40479996525E+03  0.00000000000E+00 0.  1.
<mgrwt>
<rscale>  4 0.57485000E+03</rscale>
<asrwt>0</asrwt>
<pdfrwt beam="1">  1       21 0.12571324E+00 0.57485000E+03</pdfrwt>
<pdfrwt beam="2">  1        3 0.31279367E-01 0.57485000E+03</pdfrwt>
<totfact> 0.21208425E+02</totfact>
</mgrwt>
</event>
<event>
 5    0  0.3188794E-002  0.4161228E+03  0.7546771E-02  0.1038336E+00
          2   -1    0    0  503    0 -0.00000000000E+00  0.00000000000E+00  0.62039100073E+03  0.62039100073E+03  0.00000000000E+00 0.  1.
         21   -1    0    0  501  502  0.00000000000E+00 -0.00000000000E+00 -0.14805254079E+03  0.14805254079E+03  0.00000000000E+00 0.  1.
         25    1    1    2    0    0 -0.63055417503E+02  0.20207832552E+03  0.46183664178E+03  0.52319185679E+03  0.12500000000E+03 0.  0.
         21    1    1    2  503  502 -0.26916357380E+02 -0.65319076816E+02 -0.29779797877E+02  0.76667518887E+02  0.00000000000E+00 0. -1.
          2    1    1    2  501    0  0.89971774883E+02 -0.13675924870E+03  0.40281616043E+02  0.16858416584E+03  0.00000000000E+00 0.  1.
<mgrwt>
<rscale>  4 0.41612276E+03</rscale>
<asrwt>0</asrwt>
<pdfrwt beam="1">  1       21 0.22777314E-01 0.41612276E+03</pdfrwt>
<pdfrwt beam="2">  1        2 0.95444768E-01 0.41612276E+03</pdfrwt>
<totfact> 0.10594239E+04</totfact>
</mgrwt>
</event>
<event>
 5    0  0.3188794E-002  0.4599423E+03  0.7546771E-02  0.1024798E+00
         21   -1    0    0  501  502  0.00000000000E+00  0.00000000000E+00  0.47419803379E+02  0.47419803379E+02  0.00000000000E+00 0.  1.
          1   -1    0    0  503    0 -0.00000000000E+00 -0.00000000000E+00 -0.15634663102E+04  0.15634663102E+04  0.00000000000E+00 0.  1.
         25    1    1    2    0    0 -0.17889891632E+03 -0.92827813379E+02 -0.71786733504E+03  0.75602932212E+03  0.12500000000E+03 0.  0.
         21    1    1    2  503  502  0.19856515585E+03  0.97025662054E+02 -0.80408088728E+03  0.83389937853E+03  0.00000000000E+00 0.  1.
          1    1    1    2  501    0 -0.19666239538E+02 -0.41978486752E+01  0.59017154949E+01  0.20957412933E+02  0.00000000000E+00 0.  1.
<mgrwt>
<rscale>  4 0.45994226E+03</rscale>
<asrwt>0</asrwt>
<pdfrwt beam="1">  1       21 0.72953542E-02 0.45994226E+03</pdfrwt>
<pdfrwt beam="2">  1        1 0.24053328E+00 0.45994226E+03</pdfrwt>
<totfact> 0.97774523E+03</totfact>
</mgrwt>
</event>
<event>
 5    0  0.3188794E-002  0.4941820E+03  0.7546771E-02  0.1015309E+00
          2   -1    0    0  503    0 -0.00000000000E+00  0.00000000000E+00  0.14219382903E+04  0.14219382903E+04  0.00000000000E+00 0. -1.
         21   -1    0    0  501  502  0.00000000000E+00 -0.00000000000E+00 -0.62884454216E+02  0.62884454216E+02  0.00000000000E+00 0.  1.
         25    1    1    2    0    0 -0.58956352202E+02 -0.21985036519E+03  0.59273708148E+03  0.64712617185E+03  0.12500000000E+03 0.  0.
         21    1    1    2  503  502  0.83643225920E+02  0.20931425892E+03  0.77682857562E+03  0.80887037536E+03  0.00000000000E+00 0.  1.
          2    1    1    2  501    0 -0.24686873717E+02  0.10536106269E+02 -0.10511821026E+02  0.28826197295E+02  0.00000000000E+00 0. -1.
<mgrwt>
<rscale>  4 0.49418201E+03</rscale>
<asrwt>0</asrwt>
<pdfrwt beam="1">  1       21 0.96745325E-02 0.49418201E+03</pdfrwt>
<pdfrwt beam="2">  1        2 0.21875971E+00 0.49418201E+03</pdfrwt>
<totfact> 0.15652708E+04</totfact>
</mgrwt>
</event>
<event>
 5    0  0.3188794E-002  0.1375563E+04  0.7546771E-02  0.8971699E-01
          2   -1    0    0  503    0 -0.00000000000E+00  0.00000000000E+00  0.10190035512E+04  0.10190035512E+04  0.00000000000E+00 0. -1.
         21   -1    0    0  501  502  0.00000000000E+00 -0.00000000000E+00 -0.97743376707E+03  0.97743376707E+03  0.00000000000E+00 0.  1.
         25    1    1    2    0    0  0.64111478041E+03 -0.31261637254E+03  0.13322502026E+03  0.73629550051E+03  0.12500000000E+03 0.  0.
         21    1    1    2  503  502 -0.53380696252E+03  0.31233470412E+03  0.41333637667E+03  0.74387485568E+03  0.00000000000E+00 0. -1.
          2    1    1    2  501    0 -0.10730781789E+03  0.28166842603E+00 -0.50499161281E+03  0.51626696207E+03  0.00000000000E+00 0. -1.
<mgrwt>
<rscale>  4 0.13755635E+04</rscale>
<asrwt>0</asrwt>
<pdfrwt beam="1">  1       21 0.15037443E+00 0.13755635E+04</pdfrwt>
<pdfrwt beam="2">  1        2 0.15676978E+00 0.13755635E+04</pdfrwt>
<totfact> 0.68164715E+01</totfact>
</mgrwt>
</event>
<event>
 5    0  0.3188794E-002  0.4953886E+03  0.7546771E-02  0.1014990E+00
          1   -1    0    0  503    0 -0.00000000000E+00  0.00000000000E+00  0.49848184068E+03  0.49848184068E+03  0.00000000000E+00 0. -1.
         21   -1    0    0  501  502  0.00000000000E+00 -0.00000000000E+00 -0.38539548274E+03  0.38539548274E+03  0.00000000000E+00 0. -1.
         25    1    1    2    0    0 -0.37515068649E+01 -0.23020555098E+03  0.94219191103E+02  0.27840784019E+03  0.12500000000E+03 0.  0.
         21    1    1    2  503  502 -0.20570016986E+02  0.19639363258E+03  0.27911786197E+03  0.34190695428E+03  0.00000000000E+00 0. -1.
          1    1    1    2  501    0  0.24321523851E+02  0.33811918398E+02 -0.26025069513E+03  0.26356252895E+03  0.00000000000E+00 0. -1.
<mgrwt>
<rscale>  4 0.49538862E+03</rscale>
<asrwt>0</asrwt>
<pdfrwt beam="1">  1       21 0.59291612E-01 0.49538862E+03</pdfrwt>
<pdfrwt beam="2">  1        1 0.76689514E-01 0.49538862E+03</pdfrwt>
<totfact> 0.12157376E+03</totfact>
</mgrwt>
</event>
<event>
 5    0  0.3188794E-002  0.5690139E+03  0.7546771E-02  0.9971863E-01
         21   -1    0    0  501  502  0.00000000000E+00  0.00000000000E+00  0.11942490061E+04  0.11942490061E+04  0.00000000000E+00 0. -1.
         -3   -1    0    0    0  501 -0.00000000000E+00 -0.00000000000E+00 -0.28917594895E+03  0.28917594895E+03  0.00000000000E+00 0. -1.
         25    1    1    2    0    0  0.41296199597E+03  0.63450083997E+02  0.49962676845E+03  0.66318581938E+03  0.12500000000E+03 0.  0.
         21    1    1    2  503  502  0.50692163746E+02 -0.70503771542E+02  0.34123037544E+03  0.35210601584E+03  0.00000000000E+00 0. -1.
         -3    1    1    2    0  503 -0.46365415972E+03  0.70536875445E+01  0.64215913218E+02  0.46813311979E+03  0.00000000000E+00 0. -1.
<mgrwt>
<rscale>  4 0.56901386E+03</rscale>
<asrwt>0</asrwt>
<pdfrwt beam="1">  1       21 0.18373061E+00 0.56901386E+03</pdfrwt>
<pdfrwt beam="2">  1       -3 0.44488608E-01 0.56901386E+03</pdfrwt>
<totfact> 0.37295231E+01</totfact>
</mgrwt>
</event>
<event>
 5    0  0.3188794E-002  0.6005603E+03  0.7546771E-02  0.9904244E-01
         21   -1    0    0  501  502  0.00000000000E+00  0.00000000000E+00  0.13820782565E+03  0.13820782565E+03  0.00000000000E+00 0. -1.
          2   -1    0    0  503    0 -0.00000000000E+00 -0.00000000000E+00 -0.25295233374E+04  0.25295233374E+04  0.00000000000E+00 0. -1.
         25    1    1    2    0    0  0.12718752188E+03 -0.20337846465E+03 -0.20287233003E+04  0.20466760112E+04  0.12500000000E+03 0.  0.
         21    1    1    2  503  502  0.78471221746E+02  0.19366363117E+03 -0.35870589720E+03  0.41513040767E+03  0.00000000000E+00 0.  1.
          2    1    1    2  501    0 -0.20565874363E+03  0.97148334825E+01 -0.38863142219E+01  0.20592474416E+03  0.00000000000E+00 0. -1.
<mgrwt>
<rscale>  4 0.60056030E+03</rscale>
<asrwt>0</asrwt>
<pdfrwt beam="1">  1       21 0.21262743E-01 0.60056030E+03</pdfrwt>
<pdfrwt beam="2">  1        2 0.38915742E+00 0.60056030E+03</pdfrwt>
<totfact> 0.88222274E+02</totfact>
</mgrwt>
</event>
<event>
 5    0  0.3188794E-002  0.4673066E+03  0.7546771E-02  0.1022683E+00
          1   -1    0    0  503    0 -0.00000000000E+00  0.00000000000E+00  0.34596648366E+03  0.34596648366E+03  0.00000000000E+00 0. -1.
         21   -1    0    0  501  502  0.00000000000E+00 -0.00000000000E+00 -0.28917310029E+03  0.28917310029E+03  0.00000000000E+00 0. -1.
         25    1    1    2    0    0 -0.34338060369E+02  0.20868695776E+03 -0.29533310724E+02  0.24744002339E+03  0.12500000000E+03 0.  0.
         21    1    1    2  503  502 -0.55929965935E+02 -0.15239935102E+03  0.18252640183E+03  0.24427363887E+03  0.00000000000E+00 0.  1.
          1    1    1    2  501    0  0.90268026304E+02 -0.56287606750E+02 -0.96199707731E+02  0.14342592169E+03  0.00000000000E+00 0. -1.
<mgrwt>
<rscale>  4 0.46730658E+03</rscale>
<asrwt>0</asrwt>
<pdfrwt beam="1">  1       21 0.44488169E-01 0.46730658E+03</pdfrwt>
<pdfrwt beam="2">  1        1 0.53225613E-01 0.46730658E+03</pdfrwt>
<totfact> 0.36577990E+03</totfact>
</mgrwt>
</event>
<event>
 5    0  0.3188794E-002  0.4662143E+03  0.7546771E-02  0.1022994E+00
          4   -1    0    0  503    0 -0.00000000000E+00  0.00000000000E+00  0.23539598031E+04  0.23539598031E+04  0.00000000000E+00 0.  1.
         21   -1    0    0  501  502  0.00000000000E+00 -0.00000000000E+00 -0.60550499370E+02  0.60550499370E+02  0.00000000000E+00 0. -1.
         25    1    1    2    0    0  0.29385740197E+03 -0.18099702048E+03  0.12459513963E+04  0.12988964454E+04  0.12500000000E+03 0.  0.
         21    1    1    2  503  502 -0.33301178165E+02  0.91855966228E+02  0.40507845415E+03  0.41669538156E+03  0.00000000000E+00 0.  1.
          4    1    1    2  501    0 -0.26055622380E+03  0.89141054250E+02  0.64237945333E+03  0.69891847548E+03  0.00000000000E+00 0.  1.
<mgrwt>
<rscale>  4 0.46621427E+03</rscale>
<asrwt>0</asrwt>
<pdfrwt beam="1">  1       21 0.93154633E-02 0.46621427E+03</pdfrwt>
<pdfrwt beam="2">  1        4 0.36214759E+00 0.46621427E+03</pdfrwt>
<totfact> 0.55161297E+01</totfact>
</mgrwt>
</event>
<event>
 5    0  0.3188794E-002  0.4198393E+03  0.7546771E-02  0.1037119E+00
         21   -1    0    0  501  502  0.00000000000E+00  0.00000000000E+00  0.29030559843E+03  0.29030559843E+03  0.00000000000E+00 0. -1.
          2   -1    0    0  503    0 -0.00000000000E+00 -0.00000000000E+00 -0.28179525908E+03  0.28179525908E+03  0.00000000000E+00 0. -1.
         25    1    1    2    0    0  0.20302916078E+03  0.19328169055E+02 -0.58478151055E+02  0.24625010131E+03  0.12500000000E+03 0.  0.
         21    1    1    2  503  502 -0.17673230724E+03 -0.34344274936E+02 -0.64253465629E+02  0.19116052283E+03  0.00000000000E+00 0.  1.
          2    1    1    2  501    0 -0.26296853541E+02  0.15016105881E+02  0.13124195603E+03  0.13469023337E+03  0.00000000000E+00 0. -1.
<mgrwt>
<rscale>  4 0.41983926E+03</rscale>
<asrwt>0</asrwt>
<pdfrwt beam="1">  1       21 0.44662400E-01 0.41983926E+03</pdfrwt>
<pdfrwt beam="2">  1        2 0.43353117E-01 0.41983926E+03</pdfrwt>
<totfact> 0.66851579E+03</totfact>
</mgrwt>
</event>
<event>
 5    0  0.3188794E-002  0.3689373E+03  0.7546771E-02  0.1055100E+00
         -2   -1    0    0    0  501 -0.00000000000E+00  0.00000000000E+00  0.65347246489E+03  0.65347246489E+03  0.00000000000E+00 0.  1.
         21   -1    0    0  503  502  0.00000000000E+00 -0.00000000000E+00 -0.16140055859E+03  0.16140055859E+03  0.00000000000E+00 0. -1.
         25    1    1    2    0    0 -0.53510876171E+02 -0.27735755155E+03  0.18219030145E+03  0.35862087392E+03  0.12500000000E+03 0.  0.
         21    1    1    2  503  501  0.59441829321E+02  0.25657388427E+01  0.45727213169E+02  0.75039270472E+02  0.00000000000E+00 0.  1.
         -2    1    1    2    0  502 -0.59309531497E+01  0.27479181271E+03  0.26415439169E+03  0.38121287909E+03  0.00000000000E+00 0.  1.
<mgrwt>
<rscale>  4 0.36893729E+03</rscale>
<asrwt>0</asrwt>
<pdfrwt beam="1">  1       21 0.24830856E-01 0.36893729E+03</pdfrwt>
<pdfrwt beam="2">  1       -2 0.10053422E+00 0.36893729E+03</pdfrwt>
<totfact> 0.10253352E+03</totfact>
</mgrwt>
</event>
<event>
 5    0  0.3188794E-002  0.4947411E+03  0.7546771E-02  0.1015161E+00
         21   -1    0    0  503  502  0.00000000000E+00  0.00000000000E+00  0.12898473722E+04  0.12898473722E+04  0.00000000000E+00 0. -1.
         -2   -1    0    0    0  501 -0.00000000000E+00 -0.00000000000E+00 -0.30551639834E+03  0.30551639834E+03  0.00000000000E+00 0. -1.
         25    1    1    2    0    0 -0.14769046241E+03 -0.17483025044E+03 -0.13982598393E+03  0.29589591909E+03  0.12500000000E+03 0.  0.
         21    1    1    2  503  501  0.17286184253E+03  0.11276305565E+03  0.36308048966E+02  0.20955905550E+03  0.00000000000E+00 0.  1.
         -2    1    1    2    0  502 -0.25171380126E+02  0.62067194786E+02  0.10878489089E+04  0.10899087960E+04  0.00000000000E+00 0. -1.
<mgrwt>
<rscale>  4 0.49474111E+03</rscale>
<asrwt>0</asrwt>
<pdfrwt beam="1">  1       21 0.19843805E+00 0.49474111E+03</pdfrwt>
<pdfrwt beam="2">  1       -2 0.47002523E-01 0.49474111E+03</pdfrwt>
<totfact> 0.41134982E+01</totfact>
</mgrwt>
</event>
<event>
 5    0  0.3188794E-002  0.3865419E+03  0.7546771E-02  0.1048542E+00
          2   -1    0    0  503    0 -0.00000000000E+00  0.00000000000E+00  0.14137260016E+04  0.14137260016E+04  0.00000000000E+00 0.  1.
         21   -1    0    0  501  502  0.00000000000E+00 -0.00000000000E+00 -0.46630024609E+02  0.46630024609E+02  0.00000000000E+00 0. -1.
         25    1    1    2    0    0  0.87418012158E+02  0.21552971005E+03  0.62794020669E+03  0.68119664411E+03  0.12500000000E+03 0.  0.
         21    1    1    2  503  502 -0.79162231906E+02 -0.89026300688E+02  0.38407097009E+03  0.40212293051E+03  0.00000000000E+00 0.  1.
          2    1    1    2  501    0 -0.82557802524E+01 -0.12650340937E+03  0.35508480020E+03  0.37703645158E+03  0.00000000000E+00 0.  1.
<mgrwt>
<rscale>  4 0.38654195E+03</rscale>
<asrwt>0</asrwt>
<pdfrwt beam="1">  1       21 0.71738510E-02 0.38654195E+03</pdfrwt>
<pdfrwt beam="2">  1        2 0.21749627E+00 0.38654195E+03</pdfrwt>
<totfact> 0.27298101E+04</totfact>
</mgrwt>
</event>
<event>
 5    0  0.3188794E-002  0.4177912E+03  0.7546771E-02  0.1037788E+00
         21   -1    0    0  503  502  0.00000000000E+00  0.00000000000E+00  0.17762267253E+03  0.17762267253E+03  0.00000000000E+00 0.  1.
         -3   -1    0    0    0  501 -0.00000000000E+00 -0.00000000000E+00 -0.50800580489E+03  0.50800580489E+03  0.00000000000E+00 0. -1.
         25    1    1    2    0    0 -0.88104509232E+02 -0.19869761345E+03 -0.15403116712E+02  0.25120788631E+03  0.12500000000E+03 0.  0.
         21    1    1    2  503  501  0.12617238715E+03  0.35146152007E+02 -0.14739747338E+03  0.19718199319E+03  0.00000000000E+00 0. -1.
         -3    1    1    2    0  502 -0.38067877919E+02  0.16355146145E+03 -0.16758254228E+03  0.23723859793E+03  0.00000000000E+00 0. -1.
<mgrwt>
<rscale>  4 0.41779116E+03</rscale>
<asrwt>0</asrwt>
<pdfrwt beam="1">  1       21 0.27326565E-01 0.41779116E+03</pdfrwt>
<pdfrwt beam="2">  1       -3 0.78154739E-01 0.41779116E+03</pdfrwt>
<totfact> 0.97101638E+02</totfact>
</mgrwt>
</event>
<event>
 5    0  0.3188794E-002  0.5140180E+03  0.7546771E-02  0.1010183E+00
          1   -1    0    0  503    0 -0.00000000000E+00  0.00000000000E+00  0.21254425209E+04  0.21254425209E+04  0.00000000000E+00 0. -1.
         21   -1    0    0  501  502  0.00000000000E+00 -0.00000000000E+00 -0.91011100084E+02  0.91011100084E+02  0.00000000000E+00 0. -1.
         25    1    1    2    0    0 -0.21268750983E+03  0.23936310335E+02  0.19199756016E+04  0.19359081162E+04  0.12500000000E+03 0.  0.
         21    1    1    2  503  502  0.15088611507E+02  0.32375289811E+02 -0.13848578484E+02  0.38309381535E+02  0.00000000000E+00 0.  1.
          1    1    1    2  501    0  0.19759889832E+03 -0.56311600146E+02  0.12830439774E+03  0.24223612325E+03  0.00000000000E+00 0. -1.
<mgrwt>
<rscale>  4 0.51401800E+03</rscale>
<asrwt>0</asrwt>
<pdfrwt beam="1">  1       21 0.14001709E-01 0.51401800E+03</pdfrwt>
<pdfrwt beam="2">  1        1 0.32699112E+00 0.51401800E+03</pdfrwt>
<totfact> 0.12648968E+03</totfact>
</mgrwt>
</event>
<event>
 5    0  0.3188794E-002  0.4572647E+03  0.7546771E-02  0.1025578E+00
          2   -1    0    0  502    0 -0.00000000000E+00  0.00000000000E+00  0.10479880499E+04  0.10479880499E+04  0.00000000000E+00 0. -1.
         21   -1    0    0  503  502  0.00000000000E+00 -0.00000000000E+00 -0.14738794649E+03  0.14738794649E+03  0.00000000000E+00 0. -1.
         25    1    1    2    0    0 -0.28531062288E+03  0.68678592743E+02  0.42093260689E+03  0.52813649767E+03  0.12500000000E+03 0.  0.
         21    1    1    2  503  501  0.11371402698E+02  0.59706492459E+02 -0.35075990227E+02  0.70174775607E+02  0.00000000000E+00 0.  1.
          2    1    1    2  501    0  0.27393922018E+03 -0.12838508520E+03  0.51474348678E+03  0.59706472316E+03  0.00000000000E+00 0. -1.
<mgrwt>
<rscale>  4 0.45726475E+03</rscale>
<asrwt>0</asrwt>
<pdfrwt beam="1">  1       21 0.22675069E-01 0.45726475E+03</pdfrwt>
<pdfrwt beam="2">  1        2 0.16122893E+00 0.45726475E+03</pdfrwt>
<totfact> 0.53264370E+03</totfact>
</mgrwt>
</event>
<event>
 5    0  0.3188794E-002  0.3237967E+03  0.7546771E-02  0.1073915E+00
         21   -1    0    0  501  502  0.00000000000E+00  0.00000000000E+00  0.37009806512E+03  0.37009806512E+03  0.00000000000E+00 0.  1.
          2   -1    0    0  503    0 -0.00000000000E+00 -0.00000000000E+00 -0.25114759958E+03  0.25114759958E+03  0.00000000000E+00 0.  1.
         25    1    1    2    0    0 -0.19863235126E+03 -0.25623760134E+02 -0.15176683711E+02  0.23657286358E+03  0.12500000000E+03 0.  0.
         21    1    1    2  503  502  0.42352545543E+02  0.11798345203E+02 -0.96325435469E+02  0.10588450586E+03  0.00000000000E+00 0.  1.
          2    1    1    2  501    0  0.15627980572E+03  0.13825414931E+02  0.23045258471E+03  0.27878829526E+03  0.00000000000E+00 0.  1.
<mgrwt>
<rscale>  4 0.32379674E+03</rscale>
<asrwt>0</asrwt>
<pdfrwt beam="1">  1       21 0.56938163E-01 0.32379674E+03</pdfrwt>
<pdfrwt beam="2">  1        2 0.38638093E-01 0.32379674E+03</pdfrwt>
<totfact> 0.46016064E+03</totfact>
</mgrwt>
</event>
<event>
 5    0  0.3188794E-002  0.3615589E+03  0.7546771E-02  0.1057968E+00
          2   -1    0    0  503    0 -0.00000000000E+00  0.00000000000E+00  0.18278014959E+04  0.18278014959E+04  0.00000000000E+00 0. -1.
         21   -1    0    0  501  502  0.00000000000E+00 -0.00000000000E+00 -0.40827656089E+02  0.40827656089E+02  0.00000000000E+00 0. -1.
         25    1    1    2    0    0  0.74172611644E+02 -0.20819584853E+03  0.12924809843E+04  0.13171860850E+04  0.12500000000E+03 0.  0.
         21    1    1    2  503  502  0.22878718549E+02  0.80354287096E+02  0.17131971266E+03  0.19060611523E+03  0.00000000000E+00 0. -1.
          2    1    1    2  501    0 -0.97051330193E+02  0.12784156143E+03  0.32317314291E+03  0.36083695185E+03  0.00000000000E+00 0. -1.
<mgrwt>
<rscale>  4 0.36155890E+03</rscale>
<asrwt>0</asrwt>
<pdfrwt beam="1">  1       21 0.62811793E-02 0.36155890E+03</pdfrwt>
<pdfrwt beam="2">  1        2 0.28120017E+00 0.36155890E+03</pdfrwt>
<totfact> 0.20698475E+04</totfact>
</mgrwt>
</event>
<event>
 5    0  0.3188794E-002  0.4835352E+03  0.7546771E-02  0.1018168E+00
         21   -1    0    0  501  502  0.00000000000E+00  0.00000000000E+00  0.23620310658E+03  0.23620310658E+03  0.00000000000E+00 0.  1.
          1   -1    0    0  503    0 -0.00000000000E+00 -0.00000000000E+00 -0.11417945485E+04  0.11417945485E+04  0.00000000000E+00 0.  1.
         25    1    1    2    0    0 -0.69917732564E+02 -0.19795567247E+03 -0.66199947741E+03  0.70565093757E+03  0.12500000000E+03 0.  0.
         21    1    1    2  503  502  0.84840709657E+02  0.21580747813E+03 -0.42783783762E+03  0.48663747177E+03  0.00000000000E+00 0.  1.
          1    1    1    2  501    0 -0.14922977093E+02 -0.17851805661E+02  0.18424587309E+03  0.18570924576E+03  0.00000000000E+00 0.  1.
<mgrwt>
<rscale>  4 0.48353519E+03</rscale>
<asrwt>0</asrwt>
<pdfrwt beam="1">  1       21 0.36338939E-01 0.48353519E+03</pdfrwt>
<pdfrwt beam="2">  1        1 0.17566070E+00 0.48353519E+03</pdfrwt>
<totfact> 0.93272345E+02</totfact>
</mgrwt>
</event>
<event>
 5    0  0.3188794E-002  0.6411277E+03  0.7546771E-02  0.9823571E-01
         21   -1    0    0  501  502  0.00000000000E+00  0.00000000000E+00  0.72642888591E+02  0.72642888591E+02  0.00000000000E+00 0.  1.
          2   -1    0    0  503    0 -0.00000000000E+00 -0.00000000000E+00 -0.17405505997E+04  0.17405505997E+04  0.00000000000E+00 0. -1.
         25    1    1    2    0    0 -0.11660931354E+03  0.24714443867E+03 -0.43919276251E+03  0.53215917563E+03  0.12500000000E+03 0.  0.
         21    1    1    2  503  502  0.55560408350E+02 -0.26947258910E+03 -0.11286977229E+04  0.11617491059E+04  0.00000000000E+00 0.  1.
          2    1    1    2  501    0  0.61048905188E+02  0.22328150423E+02 -0.10001722566E+03  0.11928520677E+03  0.00000000000E+00 0. -1.
<mgrwt>
<rscale>  4 0.64112767E+03</rscale>
<asrwt>0</asrwt>
<pdfrwt beam="1">  1       21 0.11175830E-01 0.64112767E+03</pdfrwt>
<pdfrwt beam="2">  1        2 0.26777700E+00 0.64112767E+03</pdfrwt>
<totfact> 0.79103141E+03</totfact>
</mgrwt>
</event>
<event>
 5    0  0.3188794E-002  0.4287432E+03  0.7546771E-02  0.1034258E+00
         21   -1    0    0  503  502  0.00000000000E+00  0.00000000000E+00  0.30755634004E+02  0.30755634004E+02  0.00000000000E+00 0. -1.
          1   -1    0    0  502    0 -0.00000000000E+00 -0.00000000000E+00 -0.31006553832E+04  0.31006553832E+04  0.00000000000E+00 0.  1.
         25    1    1    2    0    0  0.19156589167E+03 -0.78129034779E+02 -0.14230557231E+04  0.14434383354E+04  0.12500000000E+03 0.  0.
         21    1    1    2  503  501 -0.70726044359E+02  0.95131042890E+02 -0.17673860854E+03  0.21281124129E+03  0.00000000000E+00 0. -1.
          1    1    1    2  501    0 -0.12083984731E+03 -0.17002008111E+02 -0.14701054175E+04  0.14751614405E+04  0.00000000000E+00 0.  1.
<mgrwt>
<rscale>  4 0.42874323E+03</rscale>
<asrwt>0</asrwt>
<pdfrwt beam="1">  1       21 0.47316340E-02 0.42874323E+03</pdfrwt>
<pdfrwt beam="2">  1        1 0.47702411E+00 0.42874323E+03</pdfrwt>
<totfact> 0.19158187E+03</totfact>
</mgrwt>
</event>
<event>
 5    0  0.3188794E-002  0.4262859E+03  0.7546771E-02  0.1035040E+00
         21   -1    0    0  501  502  0.00000000000E+00  0.00000000000E+00  0.76930738016E+02  0.76930738016E+02  0.00000000000E+00 0. -1.
          2   -1    0    0  503    0 -0.00000000000E+00 -0.00000000000E+00 -0.15868525007E+04  0.15868525007E+04  0.00000000000E+00 0. -1.
         25    1    1    2    0    0 -0.73928099312E+01 -0.30031965973E+03 -0.84954320648E+03  0.90972260131E+03  0.12500000000E+03 0.  0.
         21    1    1    2  503  502 -0.58467656708E+02  0.36205262868E+02 -0.47866745555E+02  0.83788503210E+02  0.00000000000E+00 0.  1.
          2    1    1    2  501    0  0.65860466639E+02  0.26411439686E+03 -0.61251181068E+03  0.67027213423E+03  0.00000000000E+00 0. -1.
<mgrwt>
<rscale>  4 0.42628593E+03</rscale>
<asrwt>0</asrwt>
<pdfrwt beam="1">  1       21 0.11835499E-01 0.42628593E+03</pdfrwt>
<pdfrwt beam="2">  1        2 0.24413114E+00 0.42628593E+03</pdfrwt>
<totfact> 0.89254847E+03</totfact>
</mgrwt>
</event>
<event>
 5    0  0.3188794E-002  0.3154078E+03  0.7546771E-02  0.1077782E+00
         21   -1    0    0  501  502  0.00000000000E+00  0.00000000000E+00  0.93221195505E+02  0.93221195505E+02  0.00000000000E+00 0.  1.
          1   -1    0    0  503    0 -0.00000000000E+00 -0.00000000000E+00 -0.13866056791E+04  0.13866056791E+04  0.00000000000E+00 0.  1.
         25    1    1    2    0    0 -0.21008724233E+03  0.38645769376E+02 -0.95207197697E+03  0.98371550471E+03  0.12500000000E+03 0.  0.
         21    1    1    2  503  502  0.47282938441E+02  0.48014605987E+02 -0.29951502561E+03  0.30700216484E+03  0.00000000000E+00 0. -1.
          1    1    1    2  501    0  0.16280430389E+03 -0.86660375363E+02 -0.41797481045E+02  0.18910920507E+03  0.00000000000E+00 0.  1.
<mgrwt>
<rscale>  4 0.31540780E+03</rscale>
<asrwt>0</asrwt>
<pdfrwt beam="1">  1       21 0.14341723E-01 0.31540780E+03</pdfrwt>
<pdfrwt beam="2">  1        1 0.21332394E+00 0.31540780E+03</pdfrwt>
<totfact> 0.39363245E+03</totfact>
</mgrwt>
</event>
<event>
 5    0  0.3188794E-002  0.3955114E+03  0.7546771E-02  0.1045345E+00
         21   -1    0    0  501  502  0.00000000000E+00  0.00000000000E+00  0.10363588239E+03  0.10363588239E+03  0.00000000000E+00 0.  1.
          3   -1    0    0  503    0 -0.00000000000E+00 -0.00000000000E+00 -0.13583034629E+04  0.13583034629E+04  0.00000000000E+00 0.  1.
         25    1    1    2    0    0  0.16151114894E+03  0.20822654716E+03 -0.63086031081E+03  0.69502077518E+03  0.12500000000E+03 0.  0.
         21    1    1    2  503  502 -0.42690599164E+02 -0.18476925982E+02 -0.51660257578E+03  0.51869268874E+03  0.00000000000E+00 0.  1.
          3    1    1    2  501    0 -0.11882054978E+03 -0.18974962117E+03 -0.10720469392E+03  0.24822588137E+03  0.00000000000E+00 0.  1.
<mgrwt>
<rscale>  4 0.39551144E+03</rscale>
<asrwt>0</asrwt>
<pdfrwt beam="1">  1       21 0.15943981E-01 0.39551144E+03</pdfrwt>
<pdfrwt beam="2">  1        3 0.20896977E+00 0.39551144E+03</pdfrwt>
<totfact> 0.23714059E+02</totfact>
</mgrwt>
</event>
<event>
 5    0  0.3188794E-002  0.3914597E+03  0.7546771E-02  0.1046778E+00
         21   -1    0    0  501  502  0.00000000000E+00  0.00000000000E+00  0.64130785587E+02  0.64130785587E+02  0.00000000000E+00 0. -1.
          2   -1    0    0  503    0 -0.00000000000E+00 -0.00000000000E+00 -0.23757546842E+04  0.23757546842E+04  0.00000000000E+00 0. -1.
         25    1    1    2    0    0  0.80817620209E+02 -0.19381773985E+03 -0.14991916887E+04  0.15189791057E+04  0.12500000000E+03 0.  0.
         21    1    1    2  503  502 -0.13891989204E+03 -0.22007208727E+02 -0.58638222838E+03  0.60301506731E+03  0.00000000000E+00 0.  1.
          2    1    1    2  501    0  0.58102271836E+02  0.21582494857E+03 -0.22604998147E+03  0.31789129674E+03  0.00000000000E+00 0. -1.
<mgrwt>
<rscale>  4 0.39145971E+03</rscale>
<asrwt>0</asrwt>
<pdfrwt beam="1">  1       21 0.98662773E-02 0.39145971E+03</pdfrwt>
<pdfrwt beam="2">  1        2 0.36550062E+00 0.39145971E+03</pdfrwt>
<totfact> 0.47064715E+03</totfact>
</mgrwt>
</event>
<event>
 5    0  0.3188794E-002  0.5184820E+03  0.7546771E-02  0.1009064E+00
         21   -1    0    0  501  502  0.00000000000E+00  0.00000000000E+00  0.56471579238E+02  0.56471579238E+02  0.00000000000E+00 0.  1.
          2   -1    0    0  503    0 -0.00000000000E+00 -0.00000000000E+00 -0.15161487468E+04  0.15161487468E+04  0.00000000000E+00 0. -1.
         25    1    1    2    0    0 -0.21355110189E+03  0.50749055579E+02 -0.92065042781E+03  0.95467363533E+03  0.12500000000E+03 0.  0.
         21    1    1    2  503  502  0.21144548640E+03 -0.11302583956E+03 -0.43422340267E+03  0.49601814237E+03  0.00000000000E+00 0.  1.
          2    1    1    2  501    0  0.21056154830E+01  0.62276783977E+02 -0.10480333708E+03  0.12192854835E+03  0.00000000000E+00 0. -1.
<mgrwt>
<rscale>  4 0.51848195E+03</rscale>
<asrwt>0</asrwt>
<pdfrwt beam="1">  1       21 0.86879349E-02 0.51848195E+03</pdfrwt>
<pdfrwt beam="2">  1        2 0.23325366E+00 0.51848195E+03</pdfrwt>
<totfact> 0.16788068E+04</totfact>
</mgrwt>
</event>
<event>
 5    0  0.3188794E-002  0.4864450E+03  0.7546771E-02  0.1017379E+00
         21   -1    0    0  501  502  0.00000000000E+00  0.00000000000E+00  0.12209296926E+03  0.12209296926E+03  0.00000000000E+00 0. -1.
          2   -1    0    0  503    0 -0.00000000000E+00 -0.00000000000E+00 -0.17059823392E+04  0.17059823392E+04  0.00000000000E+00 0. -1.
         25    1    1    2    0    0  0.12344383086E+03  0.16828140587E+03 -0.48311866713E+03  0.54091187588E+03  0.12500000000E+03 0.  0.
         21    1    1    2  503  502 -0.28039655290E+02 -0.16952087510E+03 -0.11614497312E+04  0.11740907237E+04  0.00000000000E+00 0. -1.
          2    1    1    2  501    0 -0.95404175572E+02  0.12394692286E+01  0.60679028416E+02  0.11307270887E+03  0.00000000000E+00 0. -1.
<mgrwt>
<rscale>  4 0.48644496E+03</rscale>
<asrwt>0</asrwt>
<pdfrwt beam="1">  1       21 0.18783535E-01 0.48644496E+03</pdfrwt>
<pdfrwt beam="2">  1        2 0.26245881E+00 0.48644496E+03</pdfrwt>
<totfact> 0.32285027E+03</totfact>
</mgrwt>
</event>
<event>
 5    0  0.3188794E-002  0.4369489E+03  0.7546771E-02  0.1031687E+00
         21   -1    0    0  501  502  0.00000000000E+00  0.00000000000E+00  0.10083999390E+03  0.10083999390E+03  0.00000000000E+00 0.  1.
         -2   -1    0    0    0  501 -0.00000000000E+00 -0.00000000000E+00 -0.90686628064E+03  0.90686628064E+03  0.00000000000E+00 0. -1.
         25    1    1    2    0    0  0.27632291414E+03  0.27478524846E+02 -0.44593491802E+03  0.53999293821E+03  0.12500000000E+03 0.  0.
         21    1    1    2  503  502 -0.12932522210E+03  0.22728168582E+02 -0.23111967284E+03  0.26581551101E+03  0.00000000000E+00 0.  1.
         -2    1    1    2    0  503 -0.14699769204E+03 -0.50206693428E+02 -0.12897169588E+03  0.20189782532E+03  0.00000000000E+00 0. -1.
<mgrwt>
<rscale>  4 0.43694890E+03</rscale>
<asrwt>0</asrwt>
<pdfrwt beam="1">  1       21 0.15513846E-01 0.43694890E+03</pdfrwt>
<pdfrwt beam="2">  1       -2 0.13951788E+00 0.43694890E+03</pdfrwt>
<totfact> 0.11105654E+03</totfact>
</mgrwt>
</event>
<event>
 5    0  0.3188794E-002  0.3582257E+03  0.7546771E-02  0.1059289E+00
          1   -1    0    0  502    0 -0.00000000000E+00  0.00000000000E+00  0.22148336515E+04  0.22148336515E+04  0.00000000000E+00 0.  1.
         21   -1    0    0  503  502  0.00000000000E+00 -0.00000000000E+00 -0.32656961660E+02  0.32656961660E+02  0.00000000000E+00 0.  1.
         25    1    1    2    0    0  0.17768560554E+03 -0.96529988559E+02  0.13376787119E+04  0.13586388591E+04  0.12500000000E+03 0.  0.
         21    1    1    2  503  501 -0.44041622395E+02 -0.21065008825E+02  0.35148825315E+02  0.60156786990E+02  0.00000000000E+00 0. -1.
          1    1    1    2  501    0 -0.13364398314E+03  0.11759499738E+03  0.80934915260E+03  0.82869496707E+03  0.00000000000E+00 0.  1.
<mgrwt>
<rscale>  4 0.35822568E+03</rscale>
<asrwt>0</asrwt>
<pdfrwt beam="1">  1       21 0.50241497E-02 0.35822568E+03</pdfrwt>
<pdfrwt beam="2">  1        1 0.34074352E+00 0.35822568E+03</pdfrwt>
<totfact> 0.70956484E+03</totfact>
</mgrwt>
</event>
<event>
 5    0  0.3188794E-002  0.5109292E+03  0.7546771E-02  0.1010965E+00
          2   -1    0    0  503    0 -0.00000000000E+00  0.00000000000E+00  0.13628951911E+04  0.13628951911E+04  0.00000000000E+00 0. -1.
         21   -1    0    0  501  502  0.00000000000E+00 -0.00000000000E+00 -0.14302336713E+03  0.14302336713E+03  0.00000000000E+00 0.  1.
         25    1    1    2    0    0 -0.10372220726E+03 -0.30842803952E+03  0.31851131025E+03  0.47218704620E+03  0.12500000000E+03 0.  0.
         21    1    1    2  503  502 -0.22620321349E+02 -0.39278931886E+02  0.44016312420E+03  0.44249077881E+03  0.00000000000E+00 0. -1.
          2    1    1    2  501    0  0.12634252861E+03  0.34770697141E+03  0.46119738950E+03  0.59124073319E+03  0.00000000000E+00 0. -1.
<mgrwt>
<rscale>  4 0.51092918E+03</rscale>
<asrwt>0</asrwt>
<pdfrwt beam="1">  1       21 0.22003596E-01 0.51092918E+03</pdfrwt>
<pdfrwt beam="2">  1        2 0.20967618E+00 0.51092918E+03</pdfrwt>
<totfact> 0.36612637E+03</totfact>
</mgrwt>
</event>
<event>
 5    0  0.3188794E-002  0.1515169E+04  0.7546771E-02  0.8874428E-01
         21   -1    0    0  501  502  0.00000000000E+00  0.00000000000E+00  0.14346277074E+04  0.14346277074E+04  0.00000000000E+00 0. -1.
          2   -1    0    0  503    0 -0.00000000000E+00 -0.00000000000E+00 -0.18036185722E+04  0.18036185722E+04  0.00000000000E+00 0. -1.
         25    1    1    2    0    0 -0.19113458369E+03 -0.10247307659E+03 -0.16159922960E+01  0.25032133737E+03  0.12500000000E+03 0.  0.
         21    1    1    2  503  502 -0.11034903867E+04 -0.52810034240E+03 -0.82661895881E+03  0.14764416372E+04  0.00000000000E+00 0. -1.
          2    1    1    2  501    0  0.12946249703E+04  0.63057341899E+03  0.45924408627E+03  0.15114833050E+04  0.00000000000E+00 0. -1.
<mgrwt>
<rscale>  4 0.15151690E+04</rscale>
<asrwt>0</asrwt>
<pdfrwt beam="1">  1       21 0.22071196E+00 0.15151690E+04</pdfrwt>
<pdfrwt beam="2">  1        2 0.27747978E+00 0.15151690E+04</pdfrwt>
<totfact> 0.71442650E+00</totfact>
</mgrwt>
</event>
<event>
 5    0  0.3188794E-002  0.3529203E+03  0.7546771E-02  0.1061423E+00
         21   -1    0    0  503  502  0.00000000000E+00  0.00000000000E+00  0.12315084830E+03  0.12315084830E+03  0.00000000000E+00 0.  1.
         -2   -1    0    0    0  501 -0.00000000000E+00 -0.00000000000E+00 -0.89857348073E+03  0.89857348073E+03  0.00000000000E+00 0.  1.
         25    1    1    2    0    0 -0.22279042633E+03  0.21713536233E+02 -0.64005729454E+03  0.68949647716E+03  0.12500000000E+03 0.  0.
         21    1    1    2  503  501  0.26102167073E+02  0.72172726783E+02 -0.72054760171E+02  0.10527162049E+03  0.00000000000E+00 0. -1.
         -2    1    1    2    0  502  0.19668825925E+03 -0.93886263016E+02 -0.63310577724E+02  0.22695623138E+03  0.00000000000E+00 0.  1.
<mgrwt>
<rscale>  4 0.35292032E+03</rscale>
<asrwt>0</asrwt>
<pdfrwt beam="1">  1       21 0.18946285E-01 0.35292032E+03</pdfrwt>
<pdfrwt beam="2">  1       -2 0.13824207E+00 0.35292032E+03</pdfrwt>
<totfact> 0.79283262E+02</totfact>
</mgrwt>
</event>
<event>
 5    0  0.3188794E-002  0.5984905E+03  0.7546771E-02  0.9908543E-01
         21   -1    0    0  501  502  0.00000000000E+00  0.00000000000E+00  0.34424595228E+03  0.34424595228E+03  0.00000000000E+00 0.  1.
          2   -1    0    0  503    0 -0.00000000000E+00 -0.00000000000E+00 -0.13004373070E+04  0.13004373070E+04  0.00000000000E+00 0.  1.
         25    1    1    2    0    0 -0.19801978865E+03  0.38510241617E+03 -0.89909071456E+03  0.10057359597E+04  0.12500000000E+03 0.  0.
         21    1    1    2  503  502 -0.20647143134E+01 -0.14600517601E+03 -0.23746169700E+03  0.27876483281E+03  0.00000000000E+00 0.  1.
          2    1    1    2  501    0  0.20008450296E+03 -0.23909724015E+03  0.18036105682E+03  0.36018246680E+03  0.00000000000E+00 0.  1.
<mgrwt>
<rscale>  4 0.59849052E+03</rscale>
<asrwt>0</asrwt>
<pdfrwt beam="1">  1       21 0.52960916E-01 0.59849052E+03</pdfrwt>
<pdfrwt beam="2">  1        2 0.20006728E+00 0.59849052E+03</pdfrwt>
<totfact> 0.65535601E+02</totfact>
</mgrwt>
</event>
<event>
 5    0  0.3188794E-002  0.5173634E+03  0.7546771E-02  0.1009344E+00
          3   -1    0    0  503    0 -0.00000000000E+00  0.00000000000E+00  0.31534296695E+03  0.31534296695E+03  0.00000000000E+00 0. -1.
         21   -1    0    0  501  502  0.00000000000E+00 -0.00000000000E+00 -0.28961999880E+03  0.28961999880E+03  0.00000000000E+00 0.  1.
         25    1    1    2    0    0 -0.67706866467E+01  0.24890049287E+03  0.14586429782E+03  0.31448162256E+03  0.12500000000E+03 0.  0.
         21    1    1    2  503  502 -0.18214836881E+02 -0.19984292379E+03 -0.61128033105E+02  0.20977514367E+03  0.00000000000E+00 0.  1.
          3    1    1    2  501    0  0.24985523528E+02 -0.49057569078E+02 -0.59013296560E+02  0.80706199519E+02  0.00000000000E+00 0. -1.
<mgrwt>
<rscale>  4 0.51736343E+03</rscale>
<asrwt>0</asrwt>
<pdfrwt beam="1">  1       21 0.44556923E-01 0.51736343E+03</pdfrwt>
<pdfrwt beam="2">  1        3 0.48514303E-01 0.51736343E+03</pdfrwt>
<totfact> 0.98436221E+02</totfact>
</mgrwt>
</event>
<event>
 5    0  0.3188794E-002  0.7771577E+03  0.7546771E-02  0.9593682E-01
          1   -1    0    0  503    0 -0.00000000000E+00  0.00000000000E+00  0.37223322804E+03  0.37223322804E+03  0.00000000000E+00 0.  1.
         21   -1    0    0  501  502  0.00000000000E+00 -0.00000000000E+00 -0.12100601118E+04  0.12100601118E+04  0.00000000000E+00 0.  1.
         25    1    1    2    0    0 -0.30675540941E+03 -0.21727132680E+03  0.19895996984E+02  0.39664412431E+03  0.12500000000E+03 0.  0.
         21    1    1    2  503  502  0.37352878376E+03  0.15078722044E+02 -0.83991080314E+02  0.38315221744E+03  0.00000000000E+00 0. -1.
          1    1    1    2  501    0 -0.66773374345E+02  0.20219260476E+03 -0.77373180044E+03  0.80249699809E+03  0.00000000000E+00 0.  1.
<mgrwt>
<rscale>  4 0.77715774E+03</rscale>
<asrwt>0</asrwt>
<pdfrwt beam="1">  1       21 0.18616309E+00 0.77715774E+03</pdfrwt>
<pdfrwt beam="2">  1        1 0.57266651E-01 0.77715774E+03</pdfrwt>
<totfact> 0.95381736E+01</totfact>
</mgrwt>
</event>
<event>
 5    0  0.3188794E-002  0.4089334E+03  0.7546771E-02  0.1040730E+00
         21   -1    0    0  501  502  0.00000000000E+00  0.00000000000E+00  0.49943448834E+03  0.49943448834E+03  0.00000000000E+00 0.  1.
          2   -1    0    0  503    0 -0.00000000000E+00 -0.00000000000E+00 -0.77902221108E+03  0.77902221108E+03  0.00000000000E+00 0.  1.
         25    1    1    2    0    0 -0.17745799891E+03  0.11470613972E+03 -0.22487096219E+03  0.33292760400E+03  0.12500000000E+03 0.  0.
         21    1    1    2  503  502 -0.70810083643E+02  0.30997964425E+01 -0.45472909781E+03  0.46021976173E+03  0.00000000000E+00 0.  1.
          2    1    1    2  501    0  0.24826808255E+03 -0.11780593617E+03  0.40001233727E+03  0.48530933370E+03  0.00000000000E+00 0.  1.
<mgrwt>
<rscale>  4 0.40893337E+03</rscale>
<asrwt>0</asrwt>
<pdfrwt beam="1">  1       21 0.76836076E-01 0.40893337E+03</pdfrwt>
<pdfrwt beam="2">  1        2 0.11984957E+00 0.40893337E+03</pdfrwt>
<totfact> 0.63752491E+02</totfact>
</mgrwt>
</event>
<event>
 5    0  0.3188794E-002  0.5762509E+03  0.7546771E-02  0.9955941E-01
          2   -1    0    0  503    0 -0.00000000000E+00  0.00000000000E+00  0.25229390930E+03  0.25229390930E+03  0.00000000000E+00 0. -1.
         21   -1    0    0  501  502  0.00000000000E+00 -0.00000000000E+00 -0.50863017668E+03  0.50863017668E+03  0.00000000000E+00 0.  1.
         25    1    1    2    0    0 -0.20110432912E+03 -0.74403884513E+02  0.15176755782E+03  0.29092487145E+03  0.12500000000E+03 0.  0.
         21    1    1    2  503  502  0.15810980568E+03  0.17694118033E+02 -0.24602385849E+03  0.29298384156E+03  0.00000000000E+00 0.  1.
          2    1    1    2  501    0  0.42994523437E+02  0.56709766480E+02 -0.16207996671E+03  0.17701537297E+03  0.00000000000E+00 0. -1.
<mgrwt>
<rscale>  4 0.57625093E+03</rscale>
<asrwt>0</asrwt>
<pdfrwt beam="1">  1       21 0.78250795E-01 0.57625093E+03</pdfrwt>
<pdfrwt beam="2">  1        2 0.38814448E-01 0.57625093E+03</pdfrwt>
<totfact> 0.21594908E+03</totfact>
</mgrwt>
</event>
<event>
 5    0  0.3188794E-002  0.5226798E+03  0.7546771E-02  0.1008023E+00
         21   -1    0    0  503  502  0.00000000000E+00  0.00000000000E+00  0.13316462801E+03  0.13316462801E+03  0.00000000000E+00 0. -1.
          2   -1    0    0  502    0 -0.00000000000E+00 -0.00000000000E+00 -0.10297409201E+04  0.10297409201E+04  0.00000000000E+00 0.  1.
         25    1    1    2    0    0 -0.33807203445E+03 -0.54959384471E+01 -0.38654426014E+03  0.52854930788E+03  0.12500000000E+03 0.  0.
         21    1    1    2  503  501  0.13528734565E+03 -0.71877141067E+02 -0.27239184952E+03  0.31251609397E+03  0.00000000000E+00 0.  1.
          2    1    1    2  501    0  0.20278468880E+03  0.77373079514E+02 -0.23764018242E+03  0.32184014626E+03  0.00000000000E+00 0.  1.
<mgrwt>
<rscale>  4 0.52267984E+03</rscale>
<asrwt>0</asrwt>
<pdfrwt beam="1">  1       21 0.20486866E-01 0.52267984E+03</pdfrwt>
<pdfrwt beam="2">  1        2 0.15842168E+00 0.52267984E+03</pdfrwt>
<totfact> 0.65757903E+03</totfact>
</mgrwt>
</event>
<event>
 5    0  0.3188794E-002  0.3974405E+03  0.7546771E-02  0.1044670E+00
         21   -1    0    0  501  502  0.00000000000E+00  0.00000000000E+00  0.10684514215E+04  0.10684514215E+04  0.00000000000E+00 0. -1.
          2   -1    0    0  503    0 -0.00000000000E+00 -0.00000000000E+00 -0.28968726260E+03  0.28968726260E+03  0.00000000000E+00 0.  1.
         25    1    1    2    0    0  0.22509020758E+03 -0.90377432069E+02  0.93952334263E+03  0.97834696970E+03  0.12500000000E+03 0.  0.
         21    1    1    2  503  502 -0.76251108734E+02 -0.56925993257E+01  0.59676345249E+02  0.96994347529E+02  0.00000000000E+00 0.  1.
          2    1    1    2  501    0 -0.14883909884E+03  0.96070031395E+02 -0.22043552897E+03  0.28279736687E+03  0.00000000000E+00 0.  1.
<mgrwt>
<rscale>  4 0.39744048E+03</rscale>
<asrwt>0</asrwt>
<pdfrwt beam="1">  1       21 0.16437714E+00 0.39744048E+03</pdfrwt>
<pdfrwt beam="2">  1        2 0.44567272E-01 0.39744048E+03</pdfrwt>
<totfact> 0.29679016E+02</totfact>
</mgrwt>
</event>
<event>
 5    0  0.3188794E-002  0.3803233E+03  0.7546771E-02  0.1050814E+00
         21   -1    0    0  501  502  0.00000000000E+00  0.00000000000E+00  0.12189341782E+04  0.12189341782E+04  0.00000000000E+00 0. -1.
          1   -1    0    0  503    0 -0.00000000000E+00 -0.00000000000E+00 -0.65299956980E+02  0.65299956980E+02  0.00000000000E+00 0. -1.
         25    1    1    2    0    0 -0.39006034056E+02 -0.23196143686E+03  0.52915279054E+03  0.59241476570E+03  0.12500000000E+03 0.  0.
         21    1    1    2  503  502 -0.70545374328E+02  0.86102904472E+02  0.29347412819E+03  0.31387485391E+03  0.00000000000E+00 0.  1.
          1    1    1    2  501    0  0.10955140838E+03  0.14585853239E+03  0.33100730246E+03  0.37794451555E+03  0.00000000000E+00 0. -1.
<mgrwt>
<rscale>  4 0.38032332E+03</rscale>
<asrwt>0</asrwt>
<pdfrwt beam="1">  1       21 0.18752832E+00 0.38032332E+03</pdfrwt>
<pdfrwt beam="2">  1        1 0.10046148E-01 0.38032332E+03</pdfrwt>
<totfact> 0.10148744E+03</totfact>
</mgrwt>
</event>
<event>
 5    0  0.3188794E-002  0.8207586E+03  0.7546771E-02  0.9530447E-01
         21   -1    0    0  501  502  0.00000000000E+00  0.00000000000E+00  0.17219879838E+04  0.17219879838E+04  0.00000000000E+00 0. -1.
          1   -1    0    0  503    0 -0.00000000000E+00 -0.00000000000E+00 -0.11730793017E+03  0.11730793017E+03  0.00000000000E+00 0.  1.
         25    1    1    2    0    0 -0.18574659528E+03  0.34734678391E+03  0.75390253346E+03  0.85973578262E+03  0.12500000000E+03 0.  0.
         21    1    1    2  503  502  0.14189999887E+03 -0.37879915744E+03  0.60391218422E+03  0.72686610707E+03  0.00000000000E+00 0.  1.
          1    1    1    2  501    0  0.43846596413E+02  0.31452373539E+02  0.24686533598E+03  0.25269402432E+03  0.00000000000E+00 0.  1.
<mgrwt>
<rscale>  4 0.82075864E+03</rscale>
<asrwt>0</asrwt>
<pdfrwt beam="1">  1       21 0.26492121E+00 0.82075864E+03</pdfrwt>
<pdfrwt beam="2">  1        1 0.18047375E-01 0.82075864E+03</pdfrwt>
<totfact> 0.13070208E+02</totfact>
</mgrwt>
</event>
<event>
 5    0  0.3188794E-002  0.5486264E+03  0.7546771E-02  0.1001812E+00
         21   -1    0    0  501  502  0.00000000000E+00  0.00000000000E+00  0.12278080867E+03  0.12278080867E+03  0.00000000000E+00 0. -1.
          1   -1    0    0  503    0 -0.00000000000E+00 -0.00000000000E+00 -0.13666828439E+04  0.13666828439E+04  0.00000000000E+00 0. -1.
         25    1    1    2    0    0  0.27702520517E+03 -0.13489502034E+03 -0.92651190746E+03  0.98437236119E+03  0.12500000000E+03 0.  0.
         21    1    1    2  503  502 -0.16955210945E+03  0.11054248025E+03 -0.33704947805E+03  0.39315379740E+03  0.00000000000E+00 0.  1.
          1    1    1    2  501    0 -0.10747309572E+03  0.24352540090E+02  0.19659350251E+02  0.11193749401E+03  0.00000000000E+00 0. -1.
<mgrwt>
<rscale>  4 0.54862641E+03</rscale>
<asrwt>0</asrwt>
<pdfrwt beam="1">  1       21 0.18889356E-01 0.54862641E+03</pdfrwt>
<pdfrwt beam="2">  1        1 0.21025889E+00 0.54862641E+03</pdfrwt>
<totfact> 0.23069390E+03</totfact>
</mgrwt>
</event>
<event>
 5    0  0.3188794E-002  0.4967686E+03  0.7546771E-02  0.1014626E+00
          2   -1    0    0  503    0 -0.00000000000E+00  0.00000000000E+00  0.72562149677E+02  0.72562149677E+02  0.00000000000E+00 0. -1.
         21   -1    0    0  501  502  0.00000000000E+00 -0.00000000000E+00 -0.12019871210E+04  0.12019871210E+04  0.00000000000E+00 0.  1.
         25    1    1    2    0    0  0.17054702609E+03 -0.11649494868E+03 -0.23686991982E+03  0.33821549357E+03  0.12500000000E+03 0.  0.
         21    1    1    2  503  502 -0.14344571961E+03  0.16118809860E+03 -0.56813016610E+03  0.60772540118E+03  0.00000000000E+00 0.  1.
          2    1    1    2  501    0 -0.27101306470E+02 -0.44693149915E+02 -0.32442488541E+03  0.32860837594E+03  0.00000000000E+00 0. -1.
<mgrwt>
<rscale>  4 0.49676860E+03</rscale>
<asrwt>0</asrwt>
<pdfrwt beam="1">  1       21 0.18492107E+00 0.49676860E+03</pdfrwt>
<pdfrwt beam="2">  1        2 0.11163409E-01 0.49676860E+03</pdfrwt>
<totfact> 0.10223026E+03</totfact>
</mgrwt>
</event>
<event>
 5    0  0.3188794E-002  0.5438281E+03  0.7546771E-02  0.1002933E+00
          1   -1    0    0  503    0 -0.00000000000E+00  0.00000000000E+00  0.12897114589E+04  0.12897114589E+04  0.00000000000E+00 0. -1.
         21   -1    0    0  501  502  0.00000000000E+00 -0.00000000000E+00 -0.17692574173E+03  0.17692574173E+03  0.00000000000E+00 0. -1.
         25    1    1    2    0    0 -0.18523651411E+03 -0.15013782928E+03  0.33698940308E+03  0.43132446224E+03  0.12500000000E+03 0.  0.
         21    1    1    2  503  502  0.20770948100E+03 -0.81314286707E+01  0.83828754040E+03  0.86367548826E+03  0.00000000000E+00 0. -1.
          1    1    1    2  501    0 -0.22472966888E+02  0.15826925795E+03 -0.62491226332E+02  0.17163725010E+03  0.00000000000E+00 0. -1.
<mgrwt>
<rscale>  4 0.54382808E+03</rscale>
<asrwt>0</asrwt>
<pdfrwt beam="1">  1       21 0.27219346E-01 0.54382808E+03</pdfrwt>
<pdfrwt beam="2">  1        1 0.19841714E+00 0.54382808E+03</pdfrwt>
<totfact> 0.12884437E+03</totfact>
</mgrwt>
</event>
<event>
 5    0  0.3188794E-002  0.5668180E+03  0.7546771E-02  0.9976745E-01
         21   -1    0    0  501  502  0.00000000000E+00  0.00000000000E+00  0.14960080793E+04  0.14960080793E+04  0.00000000000E+00 0. -1.
          2   -1    0    0  503    0 -0.00000000000E+00 -0.00000000000E+00 -0.66777614757E+02  0.66777614757E+02  0.00000000000E+00 0.  1.
         25    1    1    2    0    0  0.17318825000E+03  0.18640760885E+03  0.47973334310E+03  0.55723518110E+03  0.12500000000E+03 0.  0.
         21    1    1    2  503  502 -0.15267489381E+03 -0.22746307990E+03  0.69678082859E+03  0.74870060706E+03  0.00000000000E+00 0.  1.
          2    1    1    2  501    0 -0.20513356188E+02  0.41055471058E+02  0.25271629285E+03  0.25684990590E+03  0.00000000000E+00 0.  1.
<mgrwt>
<rscale>  4 0.56681804E+03</rscale>
<asrwt>0</asrwt>
<pdfrwt beam="1">  1       21 0.23015506E+00 0.56681804E+03</pdfrwt>
<pdfrwt beam="2">  1        2 0.10273480E-01 0.56681804E+03</pdfrwt>
<totfact> 0.56023126E+02</totfact>
</mgrwt>
</event>
<event>
 5    0  0.3188794E-002  0.5181814E+03  0.7546771E-02  0.1009139E+00
          2   -1    0    0  503    0 -0.00000000000E+00  0.00000000000E+00  0.58478441388E+03  0.58478441388E+03  0.00000000000E+00 0. -1.
         21   -1    0    0  501  502  0.00000000000E+00 -0.00000000000E+00 -0.20255098074E+03  0.20255098074E+03  0.00000000000E+00 0. -1.
         25    1    1    2    0    0  0.11833248942E+02 -0.21333601260E+03  0.67836845764E+02  0.25666927688E+03  0.12500000000E+03 0.  0.
         21    1    1    2  503  502  0.40978870765E+02  0.18774228107E+03  0.39011044595E+03  0.43487077619E+03  0.00000000000E+00 0. -1.
          2    1    1    2  501    0 -0.52812119707E+02  0.25593731535E+02 -0.75713858572E+02  0.95795341544E+02  0.00000000000E+00 0. -1.
<mgrwt>
<rscale>  4 0.51818136E+03</rscale>
<asrwt>0</asrwt>
<pdfrwt beam="1">  1       21 0.31161690E-01 0.51818136E+03</pdfrwt>
<pdfrwt beam="2">  1        2 0.89966832E-01 0.51818136E+03</pdfrwt>
<totfact> 0.60666499E+03</totfact>
</mgrwt>
</event>
