<event>
 5    0  0.1911311E+001  0.2274361E+03  0.7546771E-02  0.1128457E+00
         21   -1    0    0  504  501  0.00000000000E+00  0.00000000000E+00  0.19176372004E+03  0.19176372004E+03  0.00000000000E+00 0.  1.
         21   -1    0    0  503  502 -0.00000000000E+00 -0.00000000000E+00 -0.35792611670E+03  0.35792611670E+03  0.00000000000E+00 0.  1.
         25    1    1    2    0    0  0.11856281587E+03  0.18056043733E+03 -0.16434134957E+03  0.29881815878E+03  0.12500000000E+03 0.  0.
         21    1    1    2  503  501 -0.32117084171E+02 -0.20069543948E+02 -0.49616343873E+02  0.62418549080E+02  0.00000000000E+00 0.  1.
         21    1    1    2  504  502 -0.86445731703E+02 -0.16049089338E+03  0.47795296785E+02  0.18845312887E+03  0.00000000000E+00 0.  1.
<mgrwt>
<rscale>  4 0.22743607E+03</rscale>
<asrwt>0</asrwt>
<pdfrwt beam="1">  1       21 0.29502111E-01 0.22743607E+03</pdfrwt>
<pdfrwt beam="2">  1       21 0.55065556E-01 0.22743607E+03</pdfrwt>
<totfact> 0.33646688E+04</totfact>
</mgrwt>
</event>
<event>
 5    0  0.1911311E+001  0.1871872E+03  0.7546771E-02  0.1161023E+00
         21   -1    0    0  504  501  0.00000000000E+00  0.00000000000E+00  0.26766118652E+03  0.26766118652E+03  0.00000000000E+00 0.  1.
         21   -1    0    0  503  502 -0.00000000000E+00 -0.00000000000E+00 -0.33599079170E+03  0.33599079170E+03  0.00000000000E+00 0.  1.
         25    1    1    2    0    0  0.10956274115E+03  0.18104255347E+03 -0.34882006652E+02  0.24823810103E+03  0.12500000000E+03 0.  0.
         21    1    1    2  503  501 -0.84666181890E+02 -0.92173021247E+02 -0.15726237360E+03  0.20098677158E+03  0.00000000000E+00 0.  1.
         21    1    1    2  504  502 -0.24896559265E+02 -0.88869532225E+02  0.12381477507E+03  0.15442710561E+03  0.00000000000E+00 0.  1.
<mgrwt>
<rscale>  4 0.18718716E+03</rscale>
<asrwt>0</asrwt>
<pdfrwt beam="1">  1       21 0.41178644E-01 0.18718716E+03</pdfrwt>
<pdfrwt beam="2">  1       21 0.51690891E-01 0.18718716E+03</pdfrwt>
<totfact> 0.20253378E+04</totfact>
</mgrwt>
</event>
<event>
 5    0  0.1911311E+001  0.3229611E+03  0.7546771E-02  0.1074295E+00
         21   -1    0    0  504  501  0.00000000000E+00  0.00000000000E+00  0.11785935707E+04  0.11785935707E+04  0.00000000000E+00 0. -1.
         21   -1    0    0  503  502 -0.00000000000E+00 -0.00000000000E+00 -0.37960491303E+03  0.37960491303E+03  0.00000000000E+00 0. -1.
         25    1    1    2    0    0  0.58780816341E+02 -0.38905642578E+03  0.50900433411E+03  0.65538576347E+03  0.12500000000E+03 0.  0.
         21    1    1    2  503  501  0.38817294824E+02  0.28532445074E+03 -0.22693642505E+03  0.36662919358E+03  0.00000000000E+00 0. -1.
         21    1    1    2  504  502 -0.97598111165E+02  0.10373197504E+03  0.51692074859E+03  0.53618352667E+03  0.00000000000E+00 0. -1.
<mgrwt>
<rscale>  4 0.32296106E+03</rscale>
<asrwt>0</asrwt>
<pdfrwt beam="1">  1       21 0.18132209E+00 0.32296106E+03</pdfrwt>
<pdfrwt beam="2">  1       21 0.58400756E-01 0.32296106E+03</pdfrwt>
<totfact> 0.43424110E+02</totfact>
</mgrwt>
</event>
<event>
 5    0  0.1911311E+001  0.2541211E+03  0.7546771E-02  0.1110728E+00
         21   -1    0    0  502  501  0.00000000000E+00  0.00000000000E+00  0.40976625982E+03  0.40976625982E+03  0.00000000000E+00 0.  1.
         21   -1    0    0  504  502 -0.00000000000E+00 -0.00000000000E+00 -0.18883992434E+03  0.18883992434E+03  0.00000000000E+00 0.  1.
         25    1    1    2    0    0 -0.23022608097E+02  0.23536876276E+03  0.32603985337E+02  0.26947451610E+03  0.12500000000E+03 0.  0.
         21    1    1    2  503  501 -0.88513536961E+00 -0.31159612830E+02  0.10109155703E+03  0.10578850523E+03  0.00000000000E+00 0. -1.
         21    1    1    2  504  503  0.23907743466E+02 -0.20420914993E+03  0.87230793119E+02  0.22334316283E+03  0.00000000000E+00 0.  1.
<mgrwt>
<rscale>  4 0.25412108E+03</rscale>
<asrwt>0</asrwt>
<pdfrwt beam="1">  1       21 0.63040963E-01 0.25412108E+03</pdfrwt>
<pdfrwt beam="2">  1       21 0.29052296E-01 0.25412108E+03</pdfrwt>
<totfact> 0.25595610E+04</totfact>
</mgrwt>
</event>
