<event>
 5    0  0.2159162E+000  0.4060692E+03  0.7546771E-02  0.1041698E+00
         21   -1    0    0  502  501  0.00000000000E+00  0.00000000000E+00  0.31484480702E+03  0.31484480702E+03  0.00000000000E+00 0.  1.
         21   -1    0    0  503  502 -0.00000000000E+00 -0.00000000000E+00 -0.53871501764E+03  0.53871501764E+03  0.00000000000E+00 0.  1.
         25    1    1    2    0    0 -0.29391194032E+03 -0.25076469791E+03 -0.30421384792E+02  0.40720710091E+03  0.12500000000E+03 0.  0.
         21    1    1    2  503  504  0.33122112711E+02  0.79321404985E+02 -0.16318151350E+02  0.87494238111E+02  0.00000000000E+00 0. -1.
         21    1    1    2  504  501  0.26078982761E+03  0.17144329293E+03 -0.17713067447E+03  0.35885848563E+03  0.00000000000E+00 0.  1.
<mgrwt>
<rscale>  4 0.40606916E+03</rscale>
<asrwt>0</asrwt>
<pdfrwt beam="1">  1       21 0.48437663E-01 0.40606916E+03</pdfrwt>
<pdfrwt beam="2">  1       21 0.82879233E-01 0.40606916E+03</pdfrwt>
<totfact> 0.46063488E+03</totfact>
</mgrwt>
</event>
<event>
 5    0  0.2159162E+000  0.2404425E+03  0.7546771E-02  0.1119498E+00
         21   -1    0    0  502  501  0.00000000000E+00  0.00000000000E+00  0.12377073008E+03  0.12377073008E+03  0.00000000000E+00 0.  1.
         21   -1    0    0  503  502 -0.00000000000E+00 -0.00000000000E+00 -0.43330571552E+03  0.43330571552E+03  0.00000000000E+00 0.  1.
         25    1    1    2    0    0  0.46108227708E+02  0.20015401297E+03 -0.11308317665E+03  0.26570736236E+03  0.12500000000E+03 0.  0.
         21    1    1    2  503  504 -0.38772735611E+02 -0.45953773959E+02 -0.44932625544E+02  0.75060077312E+02  0.00000000000E+00 0.  1.
         21    1    1    2  504  501 -0.73354920965E+01 -0.15420023901E+03 -0.15151918325E+03  0.21630900593E+03  0.00000000000E+00 0.  1.
<mgrwt>
<rscale>  4 0.24044250E+03</rscale>
<asrwt>0</asrwt>
<pdfrwt beam="1">  1       21 0.19041651E-01 0.24044250E+03</pdfrwt>
<pdfrwt beam="2">  1       21 0.66662418E-01 0.24044250E+03</pdfrwt>
<totfact> 0.51049684E+04</totfact>
</mgrwt>
</event>
<event>
 5    0  0.2159162E+000  0.2897374E+03  0.7546771E-02  0.1090486E+00
         21   -1    0    0  502  501  0.00000000000E+00  0.00000000000E+00  0.94203813479E+02  0.94203813479E+02  0.00000000000E+00 0.  1.
         21   -1    0    0  503  502 -0.00000000000E+00 -0.00000000000E+00 -0.10246453733E+04  0.10246453733E+04  0.00000000000E+00 0.  1.
         25    1    1    2    0    0 -0.22561277640E+03 -0.13199107468E+03 -0.23455513103E+03  0.37277859134E+03  0.12500000000E+03 0.  0.
         21    1    1    2  503  504  0.16107625521E+03  0.99710095199E+02 -0.57368843665E+03  0.60415733499E+03  0.00000000000E+00 0.  1.
         21    1    1    2  504  501  0.64536521199E+02  0.32280979482E+02 -0.12219799210E+03  0.14191326040E+03  0.00000000000E+00 0.  1.
<mgrwt>
<rscale>  4 0.28973741E+03</rscale>
<asrwt>0</asrwt>
<pdfrwt beam="1">  1       21 0.14492895E-01 0.28973741E+03</pdfrwt>
<pdfrwt beam="2">  1       21 0.15763774E+00 0.28973741E+03</pdfrwt>
<totfact> 0.10284822E+04</totfact>
</mgrwt>
</event>
<event>
 5    0  0.2159162E+000  0.3454629E+03  0.7546771E-02  0.1064493E+00
         21   -1    0    0  502  501  0.00000000000E+00  0.00000000000E+00  0.75420336815E+03  0.75420336815E+03  0.00000000000E+00 0.  1.
         21   -1    0    0  503  502 -0.00000000000E+00 -0.00000000000E+00 -0.23525748908E+03  0.23525748908E+03  0.00000000000E+00 0.  1.
         25    1    1    2    0    0  0.25315297279E+03  0.19908082983E+03  0.55435023259E+03  0.65318357665E+03  0.12500000000E+03 0.  0.
         21    1    1    2  503  504 -0.24716384122E+03 -0.16031729586E+03 -0.24803054149E+02  0.29564639564E+03  0.00000000000E+00 0.  1.
         21    1    1    2  504  501 -0.59891315643E+01 -0.38763533966E+02 -0.10601299370E+02  0.40630884937E+02  0.00000000000E+00 0.  1.
<mgrwt>
<rscale>  4 0.34546288E+03</rscale>
<asrwt>0</asrwt>
<pdfrwt beam="1">  1       21 0.11603129E+00 0.34546288E+03</pdfrwt>
<pdfrwt beam="2">  1       21 0.36193460E-01 0.34546288E+03</pdfrwt>
<totfact> 0.38382174E+03</totfact>
</mgrwt>
</event>
<event>
 5    0  0.5027413E+000  0.2432439E+03  0.7546771E-02  0.1117651E+00
         21   -1    0    0  502  501  0.00000000000E+00  0.00000000000E+00  0.36278172263E+03  0.36278172263E+03  0.00000000000E+00 0.  1.
         21   -1    0    0  503  502 -0.00000000000E+00 -0.00000000000E+00 -0.22560863506E+03  0.22560863506E+03  0.00000000000E+00 0.  1.
         25    1    1    2    0    0 -0.20423583720E+03 -0.79507705206E+02  0.21530444050E+03  0.33168472151E+03  0.12500000000E+03 0.  0.
         21    1    1    2  503  504  0.17393375770E+03  0.75926790159E+02 -0.19720838218E+02  0.19080550566E+03  0.00000000000E+00 0.  1.
         21    1    1    2  504  501  0.30302079506E+02  0.35809150466E+01 -0.58410514703E+02  0.65900130523E+02  0.00000000000E+00 0.  1.
<mgrwt>
<rscale>  4 0.24324385E+03</rscale>
<asrwt>0</asrwt>
<pdfrwt beam="1">  1       21 0.55812573E-01 0.24324385E+03</pdfrwt>
<pdfrwt beam="2">  1       21 0.34709021E-01 0.24324385E+03</pdfrwt>
<totfact> 0.23545984E+04</totfact>
</mgrwt>
</event>
<event>
 5    0  0.2159162E+000  0.2707657E+03  0.7546771E-02  0.1100842E+00
         21   -1    0    0  502  501  0.00000000000E+00  0.00000000000E+00  0.49466375582E+03  0.49466375582E+03  0.00000000000E+00 0. -1.
         21   -1    0    0  503  502 -0.00000000000E+00 -0.00000000000E+00 -0.12051089735E+04  0.12051089735E+04  0.00000000000E+00 0.  1.
         25    1    1    2    0    0 -0.23097400351E+03 -0.65879260428E+02  0.44320546556E+03  0.51936995673E+03  0.12500000000E+03 0.  0.
         21    1    1    2  503  504  0.11708596446E+03  0.44481302169E+02 -0.44298794786E+03  0.46035424540E+03  0.00000000000E+00 0. -1.
         21    1    1    2  504  501  0.11388803905E+03  0.21397958259E+02 -0.71066273543E+03  0.72004852724E+03  0.00000000000E+00 0.  1.
<mgrwt>
<rscale>  4 0.27076571E+03</rscale>
<asrwt>0</asrwt>
<pdfrwt beam="1">  1       21 0.76102117E-01 0.27076571E+03</pdfrwt>
<pdfrwt beam="2">  1       21 0.18540138E+00 0.27076571E+03</pdfrwt>
<totfact> 0.23643687E+02</totfact>
</mgrwt>
</event>
