<LesHouchesEvents version="3.0">
  <!--
  <scalesfunctionalform>
    muR  H_T/2 := sum_i mT(i)/2, i=final state
    muF1 H_T/2 := sum_i mT(i)/2, i=final state
    muF2 H_T/2 := sum_i mT(i)/2, i=final state
    QES  H_T/2 := sum_i mT(i)/2, i=final state
  </scalesfunctionalform>
HERWIG6   
  -->
  <header>
      143
  </header>
  <init>
   2212   2212 0.65000000D+04 0.65000000D+04 -1 -1   247000   247000 -3   1
 0.32907254D-01 0.85294617D-03 0.49582427D-03     66
  </init>
  <event>
  5     66 0.49582427E-03 0.73613280E+02 0.75467711E-02 0.10224238E+00
       -2 -1    0    0    0  501 0.00000000E+00 0.00000000E+00 0.28098216E+03 0.28098234E+03 0.32000000E+00 0.0000E+00 0.9000E+01
        1 -1    0    0  502    0 0.00000000E+00 0.00000000E+00 -.52280458E+03 0.52280467E+03 0.32000000E+00 0.0000E+00 0.9000E+01
       25  1    1    2    0    0 0.21977750E+03 0.28328078E+02 0.46312257E+01 0.25446233E+03 0.12500000E+03 0.0000E+00 0.9000E+01
      -24  1    1    2    0    0 -.28206167E+03 0.10908029E+02 -.32754142E+03 0.43980492E+03 0.80419002E+02 0.0000E+00 0.9000E+01
       21  1    1    2  502  501 0.62284161E+02 -.39236107E+02 0.81087780E+02 0.10951977E+03 0.75000000E+00 0.0000E+00 0.9000E+01
#aMCatNLO 1  0  0  1  5 0.82177850D+02 0.00000000D+00  -5  6  0 0.00000000D+00 0.00000000D+00 0.00000000D+00 0.00000000D+00 0.00000000D+00
  <mgrwgt>
 0.1256870743D+00    3    2    0
 0.383273887312444D+03 0.000000000000000D+00 0.000000000000000D+00 0.383273887312444D+03
 0.383273887312444D+03 0.000000000000000D+00 0.000000000000000D+00 -.383273887312444D+03
 0.268284818681211D+03 0.219777193623138D+03 0.283282738803099D+02 0.851307112440067D+02
 0.357842317540238D+03 -.282062079960806D+03 0.109082903942268D+02 -.204709307353273D+03
 0.140420638403438D+03 0.622848863376685D+02 -.392365642745367D+02 0.119578596109266D+03
 0.000000000000000D+00 0.000000000000000D+00 0.000000000000000D+00 -.000000000000000D+00
 0.415625091411453D+03 0.000000000000000D+00 0.000000000000000D+00 0.415625091411453D+03
 0.188793518408409D+04 0.000000000000000D+00 0.000000000000000D+00 -.188793518408409D+04
 0.229366605906458D+03 0.168797602613073D+03 -.352728119125321D+02 0.851307112440067D+02
 0.434088716979663D+03 -.363187780106148D+03 -.903024590982452D+02 -.204709307353273D+03
 0.145355382932324D+03 0.330098878781512D+02 -.757594482702420D+02 0.119578596109266D+03
 0.149474956967709D+04 0.161380289614924D+03 0.201334719281019D+03 -.147231009267263D+04
0.430357985817D-02 0.000000000000D+00 0.000000000000D+00 0.224163079772D-05 0.000000000000D+00  6 -2 1 25 -24 21 21 2 0.43228047D-01 0.80431495D-01 0.96577460D+05 0.96577460D+05 0.96577460D+05 0.11649636D+01  1  2  2  1  6  1       -2 0.112452259964D+00 0.100000000000D+01
0.250837001611D-03 0.227106148505D-03 -.165268798140D-04 0.224163079772D-05 0.000000000000D+00  6 -2 1 25 -24 21 21 4 0.43228047D-01 0.80431495D-01 0.96577460D+05 0.96577460D+05 0.96577460D+05 0.11649636D+01  1  2  3  1  6  1       -2 0.889517721146D-02 0.100000000000D+01
0.122374353978D-03 0.000000000000D+00 0.000000000000D+00 0.224163079772D-05 0.000000000000D+00  6 -2 1 25 -24 21 21 4 0.43228047D-01 0.80431495D-01 0.96577460D+05 0.96577460D+05 0.96577460D+05 0.11649636D+01  1  2 15  1  6  1       -2 0.433963712604D-02 0.100000000000D+01
  </mgrwgt>
  </event>
  <event>
  5     66 0.49582427E-03 0.21488404E+02 0.75467711E-02 0.12152395E+00
       -2 -1    0    0    0  501 0.00000000E+00 0.00000000E+00 0.58603189E+02 0.58604063E+02 0.32000000E+00 0.0000E+00 0.9000E+01
        1 -1    0    0  502    0 -.00000000E+00 -.00000000E+00 -.34444993E+03 0.34445008E+03 0.32000000E+00 0.0000E+00 0.9000E+01
       25  1    1    2    0    0 -.14969525E+01 0.82702153E+02 -.18082541E+03 0.23487170E+03 0.12500000E+03 0.0000E+00 0.9000E+01
      -24  1    1    2    0    0 -.13040327E+02 -.66887362E+02 -.10162776E+03 0.14642195E+03 0.80419002E+02 0.0000E+00 0.9000E+01
       21  1    1    2  502  501 0.14537280E+02 -.15814791E+02 -.33935663E+01 0.21760489E+02 0.75000000E+00 0.0000E+00 0.9000E+01
#aMCatNLO 1  0  0  5  1 0.13738796D+01 0.00000000D+00  -5  6  0 0.00000000D+00 0.00000000D+00 0.00000000D+00 0.00000000D+00 0.00000000D+00
  <mgrwgt>
 0.4948030446D+00   25    2    0
 0.142077691853019D+03 0.000000000000000D+00 0.000000000000000D+00 0.142077691853019D+03
 0.142077691853019D+03 -.000000000000000D+00 -.000000000000000D+00 -.142077691853019D+03
 0.151249231217078D+03 -.149984198616595D+01 0.827052965160822D+02 -.202216306454375D+02
 0.105455205854484D+03 -.130423417255514D+02 -.668851706026748D+02 0.313938898611679D+01
 0.274509466344757D+02 0.145421837117173D+02 -.158201259134074D+02 0.170822416593207D+02
 0.000000000000000D+00 0.000000000000000D+00 -.000000000000000D+00 0.000000000000000D+00
 0.142077691853019D+03 0.000000000000000D+00 0.000000000000000D+00 0.142077691853019D+03
 0.142077691853019D+03 -.000000000000000D+00 -.000000000000000D+00 -.142077691853019D+03
 0.151078635331550D+03 -.127526058607078D+01 0.824609792871331D+02 -.199578220026183D+02
 0.105549825299401D+03 -.128855986311597D+02 -.670556880117854D+02 0.332351012431083D+01
 0.162256075585332D+01 0.122619297879343D+01 0.586250269799417D+00 0.886264523916520D+00
 0.259043623192325D+02 0.129346662384371D+02 -.159915415451471D+02 0.157480473543910D+02
0.406453002319D-03 0.000000000000D+00 0.000000000000D+00 0.472563312097D-04 0.000000000000D+00  6 -2 1 25 -24 21 21 2 0.90159539D-02 0.52992376D-01 0.19152929D+05 0.19152929D+05 0.19152929D+05 0.12359006D+01  1  2  2  3  6  5       21 0.301282632458D+00 0.100000000000D+01
0.806488276563D-04 0.214491142135D-04 -.156088655044D-05 0.472563312097D-04 0.000000000000D+00  6 -2 1 25 -24 21 21 4 0.90159539D-02 0.52992376D-01 0.19152929D+05 0.19152929D+05 0.19152929D+05 0.12359006D+01  1  2  3  3  6  5       21 0.913122164051D-01 0.100000000000D+01
0.345575719423D-05 0.000000000000D+00 0.000000000000D+00 0.472563312097D-04 0.000000000000D+00  6 -2 1 25 -24 21 21 4 0.90159539D-02 0.52992376D-01 0.19152929D+05 0.19152929D+05 0.19152929D+05 0.12359006D+01  1  2 15  3  6  5       21 0.391267744285D-02 0.100000000000D+01
0.754788617282D-09 0.000000000000D+00 0.000000000000D+00 0.472459618933D-04 0.000000000000D+00  6 -2 1 25 -24 21 21 4 0.90159539D-02 0.52992376D-01 0.19207054D+05 0.19207054D+05 0.19207054D+05 0.12357650D+01  1  2 12  3  6  5       21 0.854279492788D-06 0.100000000000D+01
0.850203248147D-09 0.000000000000D+00 0.000000000000D+00 0.472459618933D-04 0.000000000000D+00  6 -2 1 25 -24 21 21 4 0.90159539D-02 0.52992376D-01 0.19207054D+05 0.19207054D+05 0.19207054D+05 0.12357650D+01  1  2 12  3  6  5       21 0.962271002720D-06 0.100000000000D+01
-.458815131326D-03 0.000000000000D+00 0.000000000000D+00 0.472563312097D-04 0.000000000000D+00  6 -2 1 25 -24 21 21 4 0.90159539D-02 0.52992376D-01 0.19152929D+05 0.19152929D+05 0.19152929D+05 0.12359006D+01  1  2  4  3  6  5       21 -.519479672291D+00 0.100000000000D+01
-.111616040281D-04 0.000000000000D+00 0.000000000000D+00 0.472563312097D-04 0.000000000000D+00  6 -2 1 25 -24 21 21 4 0.90159539D-02 0.52992376D-01 0.19152929D+05 0.19152929D+05 0.19152929D+05 0.12359006D+01  1  2  5  3  6  5       21 -.126373914174D-01 0.100000000000D+01
0.542910856743D-03 0.000000000000D+00 -.000000000000D+00 0.472563312097D-04 0.000000000000D+00  6 -2 1 25 -24 21 21 4 0.90159539D-02 0.52992376D-01 0.19152929D+05 0.19152929D+05 0.19152929D+05 0.12359006D+01  1  2  6  3  6  5       21 0.614694535312D+00 0.100000000000D+01
0.986423676605D-05 0.000000000000D+00 0.000000000000D+00 0.472563312097D-04 0.140711276756D-03  6 -2 1 25 -24 21 21 4 0.90159539D-02 0.52992376D-01 0.19207054D+05 0.19207054D+05 0.19207054D+05 0.12357650D+01  1  2 11  3  6  5       21 0.111644704071D-01 0.100000000000D+01
0.113262426848D-08 0.000000000000D+00 0.000000000000D+00 0.472459618933D-04 0.000000000000D+00  6 -2 1 25 -24 1 -1 4 0.90159539D-02 0.52992376D-01 0.19207054D+05 0.19207054D+05 0.19207054D+05 0.12357650D+01  1  2 12  6  6  5       21 0.128191875638D-05 0.100000000000D+01
0.115747045791D-08 0.000000000000D+00 0.000000000000D+00 0.472459618933D-04 0.000000000000D+00  6 -2 1 25 -24 1 -1 4 0.90159539D-02 0.52992376D-01 0.19207054D+05 0.19207054D+05 0.19207054D+05 0.12357650D+01  1  2 12  6  6  5       21 0.131003999406D-05 0.100000000000D+01
-.219810751568D-04 0.000000000000D+00 0.000000000000D+00 0.472563312097D-04 0.000000000000D+00  6 -2 1 25 -24 1 -1 4 0.90159539D-02 0.52992376D-01 0.19152929D+05 0.19152929D+05 0.19152929D+05 0.12359006D+01  1  2  5  6  6  5       21 -.248874131201D-01 0.100000000000D+01
0.229187989017D-04 0.000000000000D+00 0.000000000000D+00 0.472563312097D-04 0.164653461174D-05  6 -2 1 25 -24 1 -1 4 0.90159539D-02 0.52992376D-01 0.19207054D+05 0.19207054D+05 0.19207054D+05 0.12357650D+01  1  2 11  6  6  5       21 0.259397922183D-01 0.100000000000D+01
0.113262426848D-08 0.000000000000D+00 0.000000000000D+00 0.472459618933D-04 0.000000000000D+00  6 -2 1 25 -24 2 -2 4 0.90159539D-02 0.52992376D-01 0.19207054D+05 0.19207054D+05 0.19207054D+05 0.12357650D+01  1  2 12  7  6  5       21 0.128191875638D-05 0.100000000000D+01
0.115747045791D-08 0.000000000000D+00 0.000000000000D+00 0.472459618933D-04 0.000000000000D+00  6 -2 1 25 -24 2 -2 4 0.90159539D-02 0.52992376D-01 0.19207054D+05 0.19207054D+05 0.19207054D+05 0.12357650D+01  1  2 12  7  6  5       21 0.131003999406D-05 0.100000000000D+01
-.219810751568D-04 0.000000000000D+00 0.000000000000D+00 0.472563312097D-04 0.000000000000D+00  6 -2 1 25 -24 2 -2 4 0.90159539D-02 0.52992376D-01 0.19152929D+05 0.19152929D+05 0.19152929D+05 0.12359006D+01  1  2  5  7  6  5       21 -.248874131201D-01 0.100000000000D+01
0.230464309208D-04 0.000000000000D+00 0.000000000000D+00 0.472563312097D-04 0.163437219355D-05  6 -2 1 25 -24 2 -2 4 0.90159539D-02 0.52992376D-01 0.19207054D+05 0.19207054D+05 0.19207054D+05 0.12357650D+01  1  2 11  7  6  5       21 0.260842477838D-01 0.100000000000D+01
0.113262426848D-08 0.000000000000D+00 0.000000000000D+00 0.472459618933D-04 0.000000000000D+00  6 -2 1 25 -24 3 -3 4 0.90159539D-02 0.52992376D-01 0.19207054D+05 0.19207054D+05 0.19207054D+05 0.12357650D+01  1  2 12  8  6  5       21 0.128191875638D-05 0.100000000000D+01
0.113262426848D-08 0.000000000000D+00 0.000000000000D+00 0.472459618933D-04 0.000000000000D+00  6 -2 1 25 -24 4 -4 4 0.90159539D-02 0.52992376D-01 0.19207054D+05 0.19207054D+05 0.19207054D+05 0.12357650D+01  1  2 12  8  6  5       21 0.128191875638D-05 0.100000000000D+01
0.115747045791D-08 0.000000000000D+00 0.000000000000D+00 0.472459618933D-04 0.000000000000D+00  6 -2 1 25 -24 3 -3 4 0.90159539D-02 0.52992376D-01 0.19207054D+05 0.19207054D+05 0.19207054D+05 0.12357650D+01  1  2 12  8  6  5       21 0.131003999406D-05 0.100000000000D+01
0.115747045791D-08 0.000000000000D+00 0.000000000000D+00 0.472459618933D-04 0.000000000000D+00  6 -2 1 25 -24 4 -4 4 0.90159539D-02 0.52992376D-01 0.19207054D+05 0.19207054D+05 0.19207054D+05 0.12357650D+01  1  2 12  8  6  5       21 0.131003999406D-05 0.100000000000D+01
-.219810751568D-04 0.000000000000D+00 0.000000000000D+00 0.472563312097D-04 0.000000000000D+00  6 -2 1 25 -24 3 -3 4 0.90159539D-02 0.52992376D-01 0.19152929D+05 0.19152929D+05 0.19152929D+05 0.12359006D+01  1  2  5  8  6  5       21 -.248874131201D-01 0.100000000000D+01
-.219810751568D-04 0.000000000000D+00 0.000000000000D+00 0.472563312097D-04 0.000000000000D+00  6 -2 1 25 -24 4 -4 4 0.90159539D-02 0.52992376D-01 0.19152929D+05 0.19152929D+05 0.19152929D+05 0.12359006D+01  1  2  5  8  6  5       21 -.248874131201D-01 0.100000000000D+01
0.230015952314D-04 0.000000000000D+00 0.000000000000D+00 0.472563312097D-04 0.162821291837D-05  6 -2 1 25 -24 3 -3 4 0.90159539D-02 0.52992376D-01 0.19207054D+05 0.19207054D+05 0.19207054D+05 0.12357650D+01  1  2 11  8  6  5       21 0.260335021723D-01 0.100000000000D+01
0.230015952314D-04 0.000000000000D+00 0.000000000000D+00 0.472563312097D-04 0.162821291837D-05  6 -2 1 25 -24 4 -4 4 0.90159539D-02 0.52992376D-01 0.19207054D+05 0.19207054D+05 0.19207054D+05 0.12357650D+01  1  2 11  8  6  5       21 0.260335021723D-01 0.100000000000D+01
  </mgrwgt>
  </event>
  <event>
  6     66 0.49582427E-03 0.23035060E+02 0.75467711E-02 0.11924175E+00
       21 -1    0    0  503  501 0.00000000E+00 0.00000000E+00 0.20853618E+03 0.20853752E+03 0.75000000E+00 0.0000E+00 0.9000E+01
        3 -1    0    0  502    0 0.00000000E+00 0.00000000E+00 -.33772599E+03 0.33772636E+03 0.50000000E+00 0.0000E+00 0.9000E+01
       25  1    1    2    0    0 0.57271605E+02 -.76598783E+02 -.89063420E+02 0.18084442E+03 0.12500000E+03 0.0000E+00 0.9000E+01
      -24  1    1    2    0    0 -.42591461E+02 0.94199985E+02 -.17947088E+03 0.22218164E+03 0.80419002E+02 0.0000E+00 0.9000E+01
        4  1    1    2  503    0 -.15930152E+02 -.17594144E+02 0.13972197E+03 0.14173198E+03 0.15500000E+01 0.0000E+00 0.9000E+01
       21  1    1    2  502  501 0.12500081E+01 -.70576358E-02 -.37748507E+00 0.15058437E+01 0.75000000E+00 0.0000E+00 0.9000E+01
#aMCatNLO 2  0  0  1  5 0.65721979D+02 0.00000000D+00  -5  6  0 0.00000000D+00 0.00000000D+00 0.00000000D+00 0.00000000D+00 0.00000000D+00
  <mgrwgt>
 0.2432516982D+00    1    2    0
 0.150639627388558D+03 0.000000000000000D+00 0.000000000000000D+00 0.150639627388558D+03
 0.150639627388558D+03 0.000000000000000D+00 0.000000000000000D+00 -.150639627388558D+03
 0.164729628823481D+03 0.485425705541163D+02 -.861422132938054D+02 0.416411880854150D+02
 0.134931254577448D+03 -.498539631947514D+02 0.862586326043413D+02 -.425823691506127D+02
 0.000000000000000D+00 -.000000000000000D+00 -.000000000000000D+00 0.000000000000000D+00
 0.161837137618792D+01 0.131139264063519D+01 -.116419310535881D+00 0.941181065197661D+00
 0.464693196579189D+03 0.000000000000000D+00 0.000000000000000D+00 0.464693196579189D+03
 0.151555444478122D+03 0.000000000000000D+00 0.000000000000000D+00 -.151555444478122D+03
 0.162776149834077D+03 0.571876185758926D+02 -.765941426693924D+02 0.416411880854150D+02
 0.137750618366261D+03 -.426560813865921D+02 0.942083725800322D+02 -.425823691506127D+02
 0.314035946085633D+03 -.159301521570675D+02 -.175941437768987D+02 0.313137752101067D+03
 0.168592677133891D+01 0.139861496776703D+01 -.200861337411836D-01 0.941181065197661D+00
0.634948975181D-03 0.000000000000D+00 0.000000000000D+00 0.103113158327D-01 0.296842600642D-04  6 21 3 25 -24 4 21 4 0.32082217D-01 0.51957323D-01 0.24570038D+05 0.24570038D+05 0.24570038D+05 0.12241062D+01  1  2  1  4  5  1       -4 0.243251698152D+00 0.100000000000D+01
  </mgrwgt>
  </event>
  <event>
  6     66 -.49582427E-03 0.11293763E+03 0.75467711E-02 0.11464748E+00
       -4 -1    0    0    0  501 0.00000000E+00 0.00000000E+00 0.31723643E+03 0.31724022E+03 0.15500000E+01 0.0000E+00 0.9000E+01
        3 -1    0    0  503    0 0.00000000E+00 0.00000000E+00 -.29542100E+03 0.29542142E+03 0.50000000E+00 0.0000E+00 0.9000E+01
       25  1    1    2    0    0 0.89342695E+01 -.11691133E+03 0.20752795E+03 0.26914853E+03 0.12500000E+03 0.0000E+00 0.9000E+01
      -24  1    1    2    0    0 -.63217510E+02 0.21604427E+02 -.93202210E+01 0.10496327E+03 0.80419002E+02 0.0000E+00 0.9000E+01
       21  1    1    2  502  501 0.66342791E+02 0.99101606E+02 -.85408946E+02 0.14668928E+03 0.75000000E+00 0.0000E+00 0.9000E+01
       21  1    1    2  503  502 -.12059551E+02 -.37947072E+01 -.90983345E+02 0.91860569E+02 0.75000000E+00 0.0000E+00 0.9000E+01
#aMCatNLO 2  0  0  2  5 0.12642491D+02 0.00000000D+00  -5  6  0 0.00000000D+00 0.00000000D+00 0.00000000D+00 0.00000000D+00 0.00000000D+00
  <mgrwgt>
 -.2938570492D-02    2    2    0
 0.254140885160797D+03 0.000000000000000D+00 0.000000000000000D+00 0.254140885160797D+03
 0.254140885160797D+03 0.000000000000000D+00 0.000000000000000D+00 -.254140885160797D+03
 0.230384303441723D+03 0.347740040989031D+01 -.118628764055251D+03 0.152862851266882D+03
 0.110955512977437D+03 -.658335044715270D+02 0.207810954641420D+02 -.328329966043816D+02
 0.166941953902433D+03 0.623561040616367D+02 0.978476685911089D+02 -.120029854662501D+03
 0.000000000000000D+00 -.000000000000000D+00 -.000000000000000D+00 -.000000000000000D+00
 0.254570227177895D+03 0.000000000000000D+00 0.000000000000000D+00 0.254570227177895D+03
 0.368144733080326D+03 0.000000000000000D+00 0.000000000000000D+00 -.368144733080326D+03
 0.229652409783928D+03 0.893399818309221D+01 -.116911768862629D+03 0.152862851266882D+03
 0.109583003250967D+03 -.632176480801548D+02 0.216042114487274D+02 -.328329966043816D+02
 0.169203561289000D+03 0.663432007800799D+02 0.991022646201046D+02 -.120029854662501D+03
 0.114275985934326D+03 -.120595508830172D+02 -.379470720620323D+01 -.113574505902432D+03
-.211925794754D-02 0.000000000000D+00 0.000000000000D+00 0.151138055347D-05 0.000000000000D+00  6 -4 3 25 -24 21 21 4 0.48723381D-01 0.45772737D-01 0.41582572D+05 0.41582572D+05 0.41582572D+05 0.12002928D+01  1  2 13  2  6  2        3 -.178940443796D-01 0.100000000000D+01
0.175256740801D-02 0.000000000000D+00 0.000000000000D+00 0.151883806979D-05 0.315225045333D-07  6 -4 3 25 -24 21 21 4 0.48805693D-01 0.45449489D-01 0.41582572D+05 0.41582572D+05 0.41582572D+05 0.12002928D+01  1  2  1  2  6  2        3 0.149554738879D-01 0.100000000000D+01
  </mgrwgt>
  </event>
  <event>
  5     66 -.49582427E-03 0.61564790E+02 0.75467711E-02 0.11568884E+00
       -2 -1    0    0    0  501 0.00000000E+00 0.00000000E+00 0.43307745E+02 0.43308927E+02 0.32000000E+00 0.0000E+00 0.9000E+01
        1 -1    0    0  502    0 -.00000000E+00 -.00000000E+00 -.10144666E+04 0.10144666E+04 0.32000000E+00 0.0000E+00 0.9000E+01
       25  1    1    2    0    0 -.37073927E+02 0.94354851E+02 -.44921972E+03 0.47717992E+03 0.12500000E+03 0.0000E+00 0.9000E+01
      -24  1    1    2    0    0 0.10566410E+03 -.71697298E+02 -.19940121E+03 0.25006692E+03 0.80419002E+02 0.0000E+00 0.9000E+01
       21  1    1    2  502  501 -.68590172E+02 -.22657553E+02 -.32253789E+03 0.33052871E+03 0.75000000E+00 0.0000E+00 0.9000E+01
#aMCatNLO 1  0  0  5  1 0.55506887D+01 0.00000000D+00  -5  6  0 0.00000000D+00 0.00000000D+00 0.00000000D+00 0.00000000D+00 0.00000000D+00
  <mgrwgt>
 -.7783118377D-01   25    2    0
 0.209606562419502D+03 0.000000000000000D+00 0.000000000000000D+00 0.209606562419502D+03
 0.209606562419502D+03 -.000000000000000D+00 -.000000000000000D+00 -.209606562419502D+03
 0.163366746196295D+03 -.370729289117181D+02 0.943551807789705D+02 -.280426739958799D+02
 0.169042347631819D+03 0.105665130721014D+03 -.716969573983041D+02 0.761743118645847D+02
 0.868040310108894D+02 -.685922018092955D+02 -.226582233806665D+02 -.481316378687049D+02
 0.000000000000000D+00 0.000000000000000D+00 0.000000000000000D+00 -.000000000000000D+00
 0.209606562419502D+03 0.000000000000000D+00 0.000000000000000D+00 0.209606562419502D+03
 0.209606562419502D+03 -.000000000000000D+00 -.000000000000000D+00 -.209606562419502D+03
 0.163401673429481D+03 -.372944611170210D+02 0.942820015244582D+02 -.281981247264387D+02
 0.168858962622972D+03 0.105436050987662D+03 -.717726298455115D+02 0.760135649796928D+02
 0.391895556905707D+02 -.337707993451944D+02 -.104317110897445D+02 -.169273090168243D+02
 0.477629330959796D+02 -.343707905254469D+02 -.120776605892022D+02 -.308881312364298D+02
0.420449236844D-04 0.000000000000D+00 0.000000000000D+00 0.339504780578D-05 0.000000000000D+00  6 -2 1 25 -24 21 21 2 0.66628248D-02 0.15607187D+00 0.36880548D+05 0.36880548D+05 0.36880548D+05 0.12055977D+01  1  2  2  3  6  5       21 0.105182492552D-01 0.100000000000D+01
-.461702533227D-06 0.221877158013D-05 -.161463577631D-06 0.339504780578D-05 0.000000000000D+00  6 -2 1 25 -24 21 21 4 0.66628248D-02 0.15607187D+00 0.36880548D+05 0.36880548D+05 0.36880548D+05 0.12055977D+01  1  2  3  3  6  5       21 -.167879235971D-03 0.100000000000D+01
0.216314079267D-05 0.000000000000D+00 0.000000000000D+00 0.339504780578D-05 0.000000000000D+00  6 -2 1 25 -24 21 21 4 0.66628248D-02 0.15607187D+00 0.36880548D+05 0.36880548D+05 0.36880548D+05 0.12055977D+01  1  2 15  3  6  5       21 0.786537645857D-03 0.100000000000D+01
0.133876240234D-03 0.000000000000D+00 0.000000000000D+00 0.339580229059D-05 0.000000000000D+00  6 -2 1 25 -24 21 21 4 0.66628248D-02 0.15607187D+00 0.36769745D+05 0.36769745D+05 0.36769745D+05 0.12057317D+01  1  2 12  3  6  5       21 0.486996067249D-01 0.100000000000D+01
0.133116302875D-03 0.000000000000D+00 0.000000000000D+00 0.339580229059D-05 0.000000000000D+00  6 -2 1 25 -24 21 21 4 0.66628248D-02 0.15607187D+00 0.36769745D+05 0.36769745D+05 0.36769745D+05 0.12057317D+01  1  2 12  3  6  5       21 0.484231674518D-01 0.100000000000D+01
-.112546464231D-02 0.000000000000D+00 0.000000000000D+00 0.339504780578D-05 0.000000000000D+00  6 -2 1 25 -24 21 21 4 0.66628248D-02 0.15607187D+00 0.36880548D+05 0.36880548D+05 0.36880548D+05 0.12055977D+01  1  2  4  3  6  5       21 -.409229169574D+00 0.100000000000D+01
-.431190347311D-03 0.000000000000D+00 0.000000000000D+00 0.339504780578D-05 0.000000000000D+00  6 -2 1 25 -24 21 21 4 0.66628248D-02 0.15607187D+00 0.36880548D+05 0.36880548D+05 0.36880548D+05 0.12055977D+01  1  2  5  3  6  5       21 -.156784727947D+00 0.100000000000D+01
0.865563230295D-03 0.000000000000D+00 -.000000000000D+00 0.339504780578D-05 0.000000000000D+00  6 -2 1 25 -24 21 21 4 0.66628248D-02 0.15607187D+00 0.36880548D+05 0.36880548D+05 0.36880548D+05 0.12055977D+01  1  2  6  3  6  5       21 0.314726654781D+00 0.100000000000D+01
0.171777442240D-03 0.000000000000D+00 0.000000000000D+00 0.339504780578D-05 0.629872087017D-06  6 -2 1 25 -24 21 21 4 0.66628248D-02 0.15607187D+00 0.36769745D+05 0.36769745D+05 0.36769745D+05 0.12057317D+01  1  2 11  3  6  5       21 0.624867703686D-01 0.100000000000D+01
0.174373565120D-05 0.000000000000D+00 0.000000000000D+00 0.339580229059D-05 0.000000000000D+00  6 -2 1 25 -24 1 -1 4 0.66628248D-02 0.15607187D+00 0.36769745D+05 0.36769745D+05 0.36769745D+05 0.12057317D+01  1  2 12  6  6  5       21 0.634311512610D-03 0.100000000000D+01
0.173307515492D-05 0.000000000000D+00 0.000000000000D+00 0.339580229059D-05 0.000000000000D+00  6 -2 1 25 -24 1 -1 4 0.66628248D-02 0.15607187D+00 0.36769745D+05 0.36769745D+05 0.36769745D+05 0.12057317D+01  1  2 12  6  6  5       21 0.630433587930D-03 0.100000000000D+01
-.241455154640D-05 0.000000000000D+00 0.000000000000D+00 0.339504780578D-05 0.000000000000D+00  6 -2 1 25 -24 1 -1 4 0.66628248D-02 0.15607187D+00 0.36880548D+05 0.36880548D+05 0.36880548D+05 0.12055977D+01  1  2  5  6  6  5       21 -.877952880156D-03 0.100000000000D+01
0.801384670714D-06 0.000000000000D+00 0.000000000000D+00 0.339504780578D-05 0.234623265009D-08  6 -2 1 25 -24 1 -1 4 0.66628248D-02 0.15607187D+00 0.36769745D+05 0.36769745D+05 0.36769745D+05 0.12057317D+01  1  2 11  6  6  5       21 0.291516390294D-03 0.100000000000D+01
0.174373565120D-05 0.000000000000D+00 0.000000000000D+00 0.339580229059D-05 0.000000000000D+00  6 -2 1 25 -24 2 -2 4 0.66628248D-02 0.15607187D+00 0.36769745D+05 0.36769745D+05 0.36769745D+05 0.12057317D+01  1  2 12  7  6  5       21 0.634311512610D-03 0.100000000000D+01
0.173307515492D-05 0.000000000000D+00 0.000000000000D+00 0.339580229059D-05 0.000000000000D+00  6 -2 1 25 -24 2 -2 4 0.66628248D-02 0.15607187D+00 0.36769745D+05 0.36769745D+05 0.36769745D+05 0.12057317D+01  1  2 12  7  6  5       21 0.630433587930D-03 0.100000000000D+01
-.241455154640D-05 0.000000000000D+00 0.000000000000D+00 0.339504780578D-05 0.000000000000D+00  6 -2 1 25 -24 2 -2 4 0.66628248D-02 0.15607187D+00 0.36880548D+05 0.36880548D+05 0.36880548D+05 0.12055977D+01  1  2  5  7  6  5       21 -.877952880156D-03 0.100000000000D+01
0.803384574516D-06 0.000000000000D+00 0.000000000000D+00 0.339504780578D-05 0.234901526962D-08  6 -2 1 25 -24 2 -2 4 0.66628248D-02 0.15607187D+00 0.36769745D+05 0.36769745D+05 0.36769745D+05 0.12057317D+01  1  2 11  7  6  5       21 0.292243887036D-03 0.100000000000D+01
0.174373565120D-05 0.000000000000D+00 0.000000000000D+00 0.339580229059D-05 0.000000000000D+00  6 -2 1 25 -24 3 -3 4 0.66628248D-02 0.15607187D+00 0.36769745D+05 0.36769745D+05 0.36769745D+05 0.12057317D+01  1  2 12  8  6  5       21 0.634311512610D-03 0.100000000000D+01
0.174373565120D-05 0.000000000000D+00 0.000000000000D+00 0.339580229059D-05 0.000000000000D+00  6 -2 1 25 -24 4 -4 4 0.66628248D-02 0.15607187D+00 0.36769745D+05 0.36769745D+05 0.36769745D+05 0.12057317D+01  1  2 12  8  6  5       21 0.634311512610D-03 0.100000000000D+01
0.173307515492D-05 0.000000000000D+00 0.000000000000D+00 0.339580229059D-05 0.000000000000D+00  6 -2 1 25 -24 3 -3 4 0.66628248D-02 0.15607187D+00 0.36769745D+05 0.36769745D+05 0.36769745D+05 0.12057317D+01  1  2 12  8  6  5       21 0.630433587930D-03 0.100000000000D+01
0.173307515492D-05 0.000000000000D+00 0.000000000000D+00 0.339580229059D-05 0.000000000000D+00  6 -2 1 25 -24 4 -4 4 0.66628248D-02 0.15607187D+00 0.36769745D+05 0.36769745D+05 0.36769745D+05 0.12057317D+01  1  2 12  8  6  5       21 0.630433587930D-03 0.100000000000D+01
-.241455154640D-05 0.000000000000D+00 0.000000000000D+00 0.339504780578D-05 0.000000000000D+00  6 -2 1 25 -24 3 -3 4 0.66628248D-02 0.15607187D+00 0.36880548D+05 0.36880548D+05 0.36880548D+05 0.12055977D+01  1  2  5  8  6  5       21 -.877952880156D-03 0.100000000000D+01
-.241455154640D-05 0.000000000000D+00 0.000000000000D+00 0.339504780578D-05 0.000000000000D+00  6 -2 1 25 -24 4 -4 4 0.66628248D-02 0.15607187D+00 0.36880548D+05 0.36880548D+05 0.36880548D+05 0.12055977D+01  1  2  5  8  6  5       21 -.877952880156D-03 0.100000000000D+01
0.795398433625D-06 0.000000000000D+00 0.000000000000D+00 0.339504780578D-05 0.232512529060D-08  6 -2 1 25 -24 3 -3 4 0.66628248D-02 0.15607187D+00 0.36769745D+05 0.36769745D+05 0.36769745D+05 0.12057317D+01  1  2 11  8  6  5       21 0.289338801563D-03 0.100000000000D+01
0.795398433625D-06 0.000000000000D+00 0.000000000000D+00 0.339504780578D-05 0.232512529060D-08  6 -2 1 25 -24 4 -4 4 0.66628248D-02 0.15607187D+00 0.36769745D+05 0.36769745D+05 0.36769745D+05 0.12057317D+01  1  2 11  8  6  5       21 0.289338801563D-03 0.100000000000D+01
  </mgrwgt>
  </event>
  <event>
  5     66 0.49582427E-03 0.18373172E+03 0.75467711E-02 0.10983084E+00
       -2 -1    0    0    0  501 0.00000000E+00 0.00000000E+00 0.41113090E+02 0.41114335E+02 0.32000000E+00 0.0000E+00 0.9000E+01
        1 -1    0    0  502    0 -.00000000E+00 -.00000000E+00 -.23263085E+04 0.23263085E+04 0.32000000E+00 0.0000E+00 0.9000E+01
       25  1    1    2    0    0 -.18766192E+03 0.11049588E+03 -.64992546E+03 0.69674561E+03 0.12500000E+03 0.0000E+00 0.9000E+01
      -24  1    1    2    0    0 0.11177577E+03 0.61526932E+02 -.61464378E+03 0.63287723E+03 0.80419002E+02 0.0000E+00 0.9000E+01
       21  1    1    2  502  501 0.75886159E+02 -.17202281E+03 -.10206261E+04 0.10378000E+04 0.75000000E+00 0.0000E+00 0.9000E+01
#aMCatNLO 1  0  0  5  1 0.51625655D+02 0.00000000D+00  -5  6  0 0.00000000D+00 0.00000000D+00 0.00000000D+00 0.00000000D+00 0.00000000D+00
  <mgrwgt>
 0.1665037352D-01    9    2    0
 0.309262397152500D+03 0.000000000000000D+00 0.000000000000000D+00 0.309262397152500D+03
 0.309262397152500D+03 -.000000000000000D+00 -.000000000000000D+00 -.309262397152500D+03
 0.265607899814872D+03 -.187662150092652D+03 0.110496394826873D+03 0.865795622357471D+02
 0.151500575088914D+03 0.111775636199104D+03 0.615272242943351D+02 -.143462929295773D+02
 0.201416319401214D+03 0.758865138935485D+02 -.172023619121208D+03 -.722332693061698D+02
 0.000000000000000D+00 0.000000000000000D+00 0.000000000000000D+00 0.000000000000000D+00
 0.309262397152500D+03 0.000000000000000D+00 0.000000000000000D+00 0.309262397152500D+03
 0.309262397152500D+03 -.000000000000000D+00 -.000000000000000D+00 -.309262397152500D+03
 0.250266016471660D+03 -.179622833606937D+03 0.922724411073286D+02 0.789272656292009D+02
 0.151581446782274D+03 0.116498829634609D+03 0.508204361326739D+02 -.188421076126788D+02
 0.163608355938080D+03 0.352810947966566D+02 -.123823970819035D+03 -.100948317139601D+03
 0.530689751129862D+02 0.278429091756708D+02 -.192689064209678D+02 0.408631591230791D+02
0.334349534136D-03 0.000000000000D+00 0.000000000000D+00 0.562402858344D-06 0.000000000000D+00  6 -2 1 25 -24 21 21 2 0.63251883D-02 0.35789371D+00 0.87006934D+05 0.87006934D+05 0.87006934D+05 0.11691656D+01  1  2  2  3  6  5       21 0.112668563093D-01 0.100000000000D+01
-.283912133974D-04 0.176441096609D-04 -.128399024734D-05 0.562402858344D-06 0.000000000000D+00  6 -2 1 25 -24 21 21 4 0.63251883D-02 0.35789371D+00 0.87006934D+05 0.87006934D+05 0.87006934D+05 0.11691656D+01  1  2  3  3  6  5       21 -.130778999694D-02 0.100000000000D+01
0.159101942488D-04 0.000000000000D+00 0.000000000000D+00 0.562402858344D-06 0.000000000000D+00  6 -2 1 25 -24 21 21 4 0.63251883D-02 0.35789371D+00 0.87006934D+05 0.87006934D+05 0.87006934D+05 0.11691656D+01  1  2 15  3  6  5       21 0.732874379012D-03 0.100000000000D+01
0.232876122381D-03 0.000000000000D+00 0.000000000000D+00 0.567844807093D-06 0.000000000000D+00  6 -2 1 25 -24 21 21 4 0.63251883D-02 0.35789371D+00 0.75766045D+05 0.75766045D+05 0.75766045D+05 0.11748085D+01  1  2 12  3  6  5       21 0.109798182882D-01 0.100000000000D+01
-.122895536701D-03 0.000000000000D+00 0.000000000000D+00 0.562402858344D-06 0.000000000000D+00  6 -2 1 25 -24 21 21 4 0.63251883D-02 0.35789371D+00 0.87006934D+05 0.87006934D+05 0.87006934D+05 0.11691656D+01  1  2  4  3  6  5       21 -.566096106274D-02 0.100000000000D+01
0.339126485467D-05 0.000000000000D+00 0.000000000000D+00 0.567844807093D-06 0.000000000000D+00  6 -2 1 25 -24 1 -1 4 0.63251883D-02 0.35789371D+00 0.75766045D+05 0.75766045D+05 0.75766045D+05 0.11748085D+01  1  2 12  6  6  5       21 0.159893901919D-03 0.100000000000D+01
0.339126485467D-05 0.000000000000D+00 0.000000000000D+00 0.567844807093D-06 0.000000000000D+00  6 -2 1 25 -24 2 -2 4 0.63251883D-02 0.35789371D+00 0.75766045D+05 0.75766045D+05 0.75766045D+05 0.11748085D+01  1  2 12  7  6  5       21 0.159893901919D-03 0.100000000000D+01
0.339126485467D-05 0.000000000000D+00 0.000000000000D+00 0.567844807093D-06 0.000000000000D+00  6 -2 1 25 -24 3 -3 4 0.63251883D-02 0.35789371D+00 0.75766045D+05 0.75766045D+05 0.75766045D+05 0.11748085D+01  1  2 12  8  6  5       21 0.159893901919D-03 0.100000000000D+01
0.339126485467D-05 0.000000000000D+00 0.000000000000D+00 0.567844807093D-06 0.000000000000D+00  6 -2 1 25 -24 4 -4 4 0.63251883D-02 0.35789371D+00 0.75766045D+05 0.75766045D+05 0.75766045D+05 0.11748085D+01  1  2 12  8  6  5       21 0.159893901919D-03 0.100000000000D+01
  </mgrwgt>
  </event>
  <event>
  5     66 0.49582427E-03 0.27976009E+02 0.75467711E-02 0.12290174E+00
       -2 -1    0    0    0  501 0.00000000E+00 0.00000000E+00 0.91951102E+01 0.92006767E+01 0.32000000E+00 0.0000E+00 0.9000E+01
        1 -1    0    0  502    0 0.00000000E+00 0.00000000E+00 -.18401740E+04 0.18401741E+04 0.32000000E+00 0.0000E+00 0.9000E+01
       25  1    1    2    0    0 -.11963889E+02 0.21935800E+02 -.11975534E+04 0.12043187E+04 0.12500000E+03 0.0000E+00 0.9000E+01
      -24  1    1    2    0    0 0.39720715E+02 -.25374923E+02 -.51522779E+03 0.52359193E+03 0.80419002E+02 0.0000E+00 0.9000E+01
       21  1    1    2  502  501 -.27756826E+02 0.34391231E+01 -.11819771E+03 0.12146411E+03 0.75000000E+00 0.0000E+00 0.9000E+01
#aMCatNLO 1  0  0  2  5 0.89822277D+01 0.00000000D+00  -5  6  0 0.00000000D+00 0.00000000D+00 0.00000000D+00 0.00000000D+00 0.00000000D+00
  <mgrwgt>
 0.3348073894D+00    9    4    0
 0.130099101490854D+03 0.000000000000000D+00 0.000000000000000D+00 0.130099101490854D+03
 0.130099101490854D+03 0.000000000000000D+00 0.000000000000000D+00 -.130099101490854D+03
 0.132750836570341D+03 -.119598916462238D+02 0.219353050209221D+02 -.370619480812215D+02
 0.958758169818393D+02 0.397236022499789D+02 -.253752810745653D+02 0.224295979062685D+02
 0.315715494295283D+02 -.277637106037551D+02 0.343997605364320D+01 0.146323501749530D+02
 0.000000000000000D+00 0.000000000000000D+00 -.000000000000000D+00 -.000000000000000D+00
 0.132746832914767D+03 0.000000000000000D+00 0.000000000000000D+00 0.132746832914767D+03
 0.138024164552108D+03 0.000000000000000D+00 0.000000000000000D+00 -.138024164552108D+03
 0.133382033725781D+03 -.164645572957729D+02 0.228275552415127D+02 -.370619480812215D+02
 0.944175731344583D+02 0.365026243345514D+02 -.247372940453070D+02 0.224295979062685D+02
 0.325535864173294D+02 -.288491169137708D+02 0.365496515491843D+01 0.146323501749530D+02
 0.104178041893067D+02 0.881104987499233D+01 -.174522635112406D+01 -.527733163734056D+01
 0.130099101490854D+03 0.000000000000000D+00 0.000000000000000D+00 0.130099101490854D+03
 0.130099101490854D+03 0.000000000000000D+00 0.000000000000000D+00 -.130099101490854D+03
 0.132750836570341D+03 -.119598916462238D+02 0.219353050209221D+02 -.370619480812215D+02
 0.958758169818393D+02 0.397236022499789D+02 -.253752810745653D+02 0.224295979062685D+02
 0.000000000000000D+00 0.000000000000000D+00 -.000000000000000D+00 -.000000000000000D+00
 0.315715494295283D+02 -.277637106037551D+02 0.343997605364320D+01 0.146323501749530D+02
 0.132746832914767D+03 0.000000000000000D+00 0.000000000000000D+00 0.132746832914767D+03
 0.138024164552108D+03 0.000000000000000D+00 0.000000000000000D+00 -.138024164552108D+03
 0.133382033725781D+03 -.164645572957729D+02 0.228275552415127D+02 -.370619480812215D+02
 0.944175731344583D+02 0.365026243345514D+02 -.247372940453070D+02 0.224295979062685D+02
 0.104178041893067D+02 0.881104987499233D+01 -.174522635112406D+01 -.527733163734056D+01
 0.325535864173294D+02 -.288491169137708D+02 0.365496515491843D+01 0.146323501749530D+02
0.115856342235D-03 0.000000000000D+00 0.000000000000D+00 0.300675361350D-04 0.000000000000D+00  6 -2 1 25 -24 21 21 2 0.14150627D-02 0.28310413D+00 0.15458398D+05 0.15458398D+05 0.15458398D+05 0.12463349D+01  1  2  2  2  6  2        1 0.857963224010D-01 0.100000000000D+01
0.124285090285D-04 0.611390714987D-05 -.444918859859D-06 0.300675361350D-04 0.000000000000D+00  6 -2 1 25 -24 21 21 4 0.14150627D-02 0.28310413D+00 0.15458398D+05 0.15458398D+05 0.15458398D+05 0.12463349D+01  1  2  3  2  6  2        1 0.142967532050D-01 0.100000000000D+01
0.517426873371D-05 0.000000000000D+00 0.000000000000D+00 0.300675361350D-04 0.000000000000D+00  6 -2 1 25 -24 21 21 4 0.14150627D-02 0.28310413D+00 0.15458398D+05 0.15458398D+05 0.15458398D+05 0.12463349D+01  1  2 15  2  6  2        1 0.595206093770D-02 0.100000000000D+01
-.224262017337D-03 0.000000000000D+00 0.000000000000D+00 0.300675361350D-04 0.000000000000D+00  6 -2 1 25 -24 21 21 4 0.14150627D-02 0.28310413D+00 0.15458398D+05 0.15458398D+05 0.15458398D+05 0.12463349D+01  1  2  4  2  6  2        1 -.257972915962D+00 0.100000000000D+01
-.245984257677D-02 0.000000000000D+00 -.374804930452D-03 0.300675361350D-04 0.000000000000D+00  6 -2 1 25 -24 21 21 4 0.14150627D-02 0.30297588D+00 0.15458398D+05 0.15458398D+05 0.15458398D+05 0.12463349D+01  1  2  5  2  6  2        1 -.234377547512D+01 0.100000000000D+01
0.248041983751D-02 0.000000000000D+00 0.373944145343D-03 0.300675361350D-04 0.000000000000D+00  6 -2 1 25 -24 21 21 4 0.14150627D-02 0.28310413D+00 0.15458398D+05 0.15458398D+05 0.15458398D+05 0.12463349D+01  1  2  6  2  6  2        1 0.285327469132D+01 0.100000000000D+01
0.492486098515D-07 0.000000000000D+00 0.000000000000D+00 0.300675361350D-04 0.908079417285D-06  6 -2 1 25 -24 21 21 4 0.14438615D-02 0.30034958D+00 0.16628904D+05 0.16628904D+05 0.16628904D+05 0.12427505D+01  1  2 11  2  6  2        1 0.462304222847D-04 0.100000000000D+01
-.277473836800D-04 0.000000000000D+00 -.431825948511D-05 0.300675361350D-04 0.000000000000D+00  6 -2 21 25 -24 -1 21 4 0.14150627D-02 0.30297588D+00 0.15458398D+05 0.15458398D+05 0.15458398D+05 0.12463349D+01  3  4  5  5  5  2        1 -.228110562879D-01 0.100000000000D+01
0.957531687169D-09 0.000000000000D+00 0.000000000000D+00 0.300675361350D-04 0.324709656948D-07  6 -2 21 25 -24 -1 21 4 0.14438615D-02 0.30034958D+00 0.16628904D+05 0.16628904D+05 0.16628904D+05 0.12427505D+01  3  4 11  5  5  2        1 0.778491786818D-06 0.100000000000D+01
  </mgrwgt>
  </event>
  <event>
  5     66 0.49582427E-03 0.21080680E+02 0.75467711E-02 0.12446802E+00
       -2 -1    0    0    0  501 0.00000000E+00 0.00000000E+00 0.19797734E+03 0.19797759E+03 0.32000000E+00 0.0000E+00 0.9000E+01
        1 -1    0    0  502    0 0.00000000E+00 0.00000000E+00 -.84400049E+02 0.84400656E+02 0.32000000E+00 0.0000E+00 0.9000E+01
       25  1    1    2    0    0 -.12922319E+02 -.42111343E+02 0.10556612E+03 0.16943895E+03 0.12500000E+03 0.0000E+00 0.9000E+01
      -24  1    1    2    0    0 0.11872272E+02 0.21061063E+02 0.22997929E+02 0.87066870E+02 0.80419002E+02 0.0000E+00 0.9000E+01
       21  1    1    2  502  501 0.10500470E+01 0.21050280E+02 -.14986766E+02 0.25872429E+02 0.75000000E+00 0.0000E+00 0.9000E+01
#aMCatNLO 1  0  0  5  2 0.28091478D+01 0.00000000D+00  -5  6  0 0.00000000D+00 0.00000000D+00 0.00000000D+00 0.00000000D+00 0.00000000D+00
  <mgrwgt>
 0.1853700207D-01   25    2    0
 0.129264917969890D+03 0.000000000000000D+00 0.000000000000000D+00 0.129264917969890D+03
 0.129264917969890D+03 -.000000000000000D+00 -.000000000000000D+00 -.129264917969890D+03
 0.138693592952229D+03 -.129224493413233D+02 -.421139603621027D+02 0.408697610910422D+02
 0.849942832122052D+02 0.118721917781683D+02 0.210594591829725D+02 -.131286886507797D+02
 0.348419597753463D+02 0.105025756315508D+01 0.210545011791302D+02 -.277410724402624D+02
 0.000000000000000D+00 0.000000000000000D+00 0.000000000000000D+00 -.000000000000000D+00
 0.129264917969890D+03 0.000000000000000D+00 0.000000000000000D+00 0.129264917969890D+03
 0.129264917969890D+03 -.000000000000000D+00 -.000000000000000D+00 -.129264917969890D+03
 0.138584544335363D+03 -.129146256723256D+02 -.419571193605075D+02 0.406631099075333D+02
 0.850384957469600D+02 0.118769894163606D+02 0.211556373801317D+02 -.132554114979214D+02
 0.132928839412932D+02 -.240131980551754D+01 0.813247825006961D+01 -.102370515374529D+02
 0.216139119161643D+02 0.343895606148256D+01 0.126690037303062D+02 -.171706468721591D+02
0.111250352450D-04 0.000000000000D+00 0.000000000000D+00 0.561543790857D-04 0.000000000000D+00  6 -2 1 25 -24 21 21 2 0.30458118D-01 0.12984689D-01 0.14112259D+05 0.14112259D+05 0.14112259D+05 0.12508543D+01  1  2  2  3  6  5       21 0.650085296368D-02 0.100000000000D+01
0.149881009732D-05 0.587084239108D-06 -.427230646299D-07 0.561543790857D-04 0.000000000000D+00  6 -2 1 25 -24 21 21 4 0.30458118D-01 0.12984689D-01 0.14112259D+05 0.14112259D+05 0.14112259D+05 0.12508543D+01  1  2  3  3  6  5       21 0.137034216606D-02 0.100000000000D+01
0.516099543937D-06 0.000000000000D+00 0.000000000000D+00 0.561543790857D-04 0.000000000000D+00  6 -2 1 25 -24 21 21 4 0.30458118D-01 0.12984689D-01 0.14112259D+05 0.14112259D+05 0.14112259D+05 0.12508543D+01  1  2 15  3  6  5       21 0.471862958625D-03 0.100000000000D+01
0.226444266208D-06 0.000000000000D+00 0.000000000000D+00 0.561355279453D-04 0.000000000000D+00  6 -2 1 25 -24 21 21 4 0.30458118D-01 0.12984689D-01 0.14171803D+05 0.14171803D+05 0.14171803D+05 0.12506443D+01  1  2 12  3  6  5       21 0.206925218632D-03 0.100000000000D+01
0.221976164494D-06 0.000000000000D+00 0.000000000000D+00 0.561355279453D-04 0.000000000000D+00  6 -2 1 25 -24 21 21 4 0.30458118D-01 0.12984689D-01 0.14171803D+05 0.14171803D+05 0.14171803D+05 0.12506443D+01  1  2 12  3  6  5       21 0.202842258442D-03 0.100000000000D+01
-.131626724201D-03 0.000000000000D+00 0.000000000000D+00 0.561543790857D-04 0.000000000000D+00  6 -2 1 25 -24 21 21 4 0.30458118D-01 0.12984689D-01 0.14112259D+05 0.14112259D+05 0.14112259D+05 0.12508543D+01  1  2  4  3  6  5       21 -.120344565782D+00 0.100000000000D+01
-.394080914766D-04 0.000000000000D+00 0.000000000000D+00 0.561543790857D-04 0.000000000000D+00  6 -2 1 25 -24 21 21 4 0.30458118D-01 0.12984689D-01 0.14112259D+05 0.14112259D+05 0.14112259D+05 0.12508543D+01  1  2  5  3  6  5       21 -.360302946522D-01 0.100000000000D+01
0.145105032479D-03 0.000000000000D+00 -.000000000000D+00 0.561543790857D-04 0.000000000000D+00  6 -2 1 25 -24 21 21 4 0.30458118D-01 0.12984689D-01 0.14112259D+05 0.14112259D+05 0.14112259D+05 0.12508543D+01  1  2  6  3  6  5       21 0.132667604034D+00 0.100000000000D+01
0.374225714930D-04 0.000000000000D+00 0.000000000000D+00 0.561543790857D-04 0.341011535779D-04  6 -2 1 25 -24 21 21 4 0.30458118D-01 0.12984689D-01 0.14171803D+05 0.14171803D+05 0.14171803D+05 0.12506443D+01  1  2 11  3  6  5       21 0.341968198957D-01 0.100000000000D+01
0.194936785509D-07 0.000000000000D+00 0.000000000000D+00 0.561355279453D-04 0.000000000000D+00  6 -2 1 25 -24 1 -1 4 0.30458118D-01 0.12984689D-01 0.14171803D+05 0.14171803D+05 0.14171803D+05 0.12506443D+01  1  2 12  6  6  5       21 0.178133620410D-04 0.100000000000D+01
0.191554575961D-07 0.000000000000D+00 0.000000000000D+00 0.561355279453D-04 0.000000000000D+00  6 -2 1 25 -24 1 -1 4 0.30458118D-01 0.12984689D-01 0.14171803D+05 0.14171803D+05 0.14171803D+05 0.12506443D+01  1  2 12  6  6  5       21 0.175042950631D-04 0.100000000000D+01
-.530775191626D-05 0.000000000000D+00 0.000000000000D+00 0.561543790857D-04 0.000000000000D+00  6 -2 1 25 -24 1 -1 4 0.30458118D-01 0.12984689D-01 0.14112259D+05 0.14112259D+05 0.14112259D+05 0.12508543D+01  1  2  5  6  6  5       21 -.485280708398D-02 0.100000000000D+01
0.508868534409D-05 0.000000000000D+00 0.000000000000D+00 0.561543790857D-04 0.249338774713D-05  6 -2 1 25 -24 1 -1 4 0.30458118D-01 0.12984689D-01 0.14171803D+05 0.14171803D+05 0.14171803D+05 0.12506443D+01  1  2 11  6  6  5       21 0.465005073878D-02 0.100000000000D+01
0.194936785509D-07 0.000000000000D+00 0.000000000000D+00 0.561355279453D-04 0.000000000000D+00  6 -2 1 25 -24 2 -2 4 0.30458118D-01 0.12984689D-01 0.14171803D+05 0.14171803D+05 0.14171803D+05 0.12506443D+01  1  2 12  7  6  5       21 0.178133620410D-04 0.100000000000D+01
0.191554575961D-07 0.000000000000D+00 0.000000000000D+00 0.561355279453D-04 0.000000000000D+00  6 -2 1 25 -24 2 -2 4 0.30458118D-01 0.12984689D-01 0.14171803D+05 0.14171803D+05 0.14171803D+05 0.12506443D+01  1  2 12  7  6  5       21 0.175042950631D-04 0.100000000000D+01
-.530775191626D-05 0.000000000000D+00 0.000000000000D+00 0.561543790857D-04 0.000000000000D+00  6 -2 1 25 -24 2 -2 4 0.30458118D-01 0.12984689D-01 0.14112259D+05 0.14112259D+05 0.14112259D+05 0.12508543D+01  1  2  5  7  6  5       21 -.485280708398D-02 0.100000000000D+01
0.507689645689D-05 0.000000000000D+00 0.000000000000D+00 0.561543790857D-04 0.246653157741D-05  6 -2 1 25 -24 2 -2 4 0.30458118D-01 0.12984689D-01 0.14171803D+05 0.14171803D+05 0.14171803D+05 0.12506443D+01  1  2 11  7  6  5       21 0.463927803031D-02 0.100000000000D+01
0.194936785509D-07 0.000000000000D+00 0.000000000000D+00 0.561355279453D-04 0.000000000000D+00  6 -2 1 25 -24 3 -3 4 0.30458118D-01 0.12984689D-01 0.14171803D+05 0.14171803D+05 0.14171803D+05 0.12506443D+01  1  2 12  8  6  5       21 0.178133620410D-04 0.100000000000D+01
0.194936785509D-07 0.000000000000D+00 0.000000000000D+00 0.561355279453D-04 0.000000000000D+00  6 -2 1 25 -24 4 -4 4 0.30458118D-01 0.12984689D-01 0.14171803D+05 0.14171803D+05 0.14171803D+05 0.12506443D+01  1  2 12  8  6  5       21 0.178133620410D-04 0.100000000000D+01
0.191554575961D-07 0.000000000000D+00 0.000000000000D+00 0.561355279453D-04 0.000000000000D+00  6 -2 1 25 -24 3 -3 4 0.30458118D-01 0.12984689D-01 0.14171803D+05 0.14171803D+05 0.14171803D+05 0.12506443D+01  1  2 12  8  6  5       21 0.175042950631D-04 0.100000000000D+01
0.191554575961D-07 0.000000000000D+00 0.000000000000D+00 0.561355279453D-04 0.000000000000D+00  6 -2 1 25 -24 4 -4 4 0.30458118D-01 0.12984689D-01 0.14171803D+05 0.14171803D+05 0.14171803D+05 0.12506443D+01  1  2 12  8  6  5       21 0.175042950631D-04 0.100000000000D+01
-.530775191626D-05 0.000000000000D+00 0.000000000000D+00 0.561543790857D-04 0.000000000000D+00  6 -2 1 25 -24 3 -3 4 0.30458118D-01 0.12984689D-01 0.14112259D+05 0.14112259D+05 0.14112259D+05 0.12508543D+01  1  2  5  8  6  5       21 -.485280708398D-02 0.100000000000D+01
-.530775191626D-05 0.000000000000D+00 0.000000000000D+00 0.561543790857D-04 0.000000000000D+00  6 -2 1 25 -24 4 -4 4 0.30458118D-01 0.12984689D-01 0.14112259D+05 0.14112259D+05 0.14112259D+05 0.12508543D+01  1  2  5  8  6  5       21 -.485280708398D-02 0.100000000000D+01
0.507508309019D-05 0.000000000000D+00 0.000000000000D+00 0.561543790857D-04 0.246517400826D-05  6 -2 1 25 -24 3 -3 4 0.30458118D-01 0.12984689D-01 0.14171803D+05 0.14171803D+05 0.14171803D+05 0.12506443D+01  1  2 11  8  6  5       21 0.463762097224D-02 0.100000000000D+01
0.507508309019D-05 0.000000000000D+00 0.000000000000D+00 0.561543790857D-04 0.246517400826D-05  6 -2 1 25 -24 4 -4 4 0.30458118D-01 0.12984689D-01 0.14171803D+05 0.14171803D+05 0.14171803D+05 0.12506443D+01  1  2 11  8  6  5       21 0.463762097224D-02 0.100000000000D+01
  </mgrwgt>
  </event>
  <event>
  5     66 0.49582427E-03 0.71218541E+02 0.75467711E-02 0.11747746E+00
       -2 -1    0    0    0  501 0.00000000E+00 0.00000000E+00 0.17314157E+03 0.17314187E+03 0.32000000E+00 0.0000E+00 0.9000E+01
        1 -1    0    0  502    0 -.00000000E+00 -.00000000E+00 -.61152827E+03 0.61152835E+03 0.32000000E+00 0.0000E+00 0.9000E+01
       25  1    1    2    0    0 -.39510157E+02 -.46488643E+02 -.42499268E+03 0.44717561E+03 0.12500000E+03 0.0000E+00 0.9000E+01
      -24  1    1    2    0    0 -.10749237E+02 -.26977722E+02 -.15104665E+03 0.17356743E+03 0.80419002E+02 0.0000E+00 0.9000E+01
       21  1    1    2  502  501 0.50259394E+02 0.73466366E+02 0.13765264E+03 0.16392719E+03 0.75000000E+00 0.0000E+00 0.9000E+01
#aMCatNLO 1  0  0  5  2 0.47744006D+02 0.00000000D+00  -5  6  0 0.00000000D+00 0.00000000D+00 0.00000000D+00 0.00000000D+00 0.00000000D+00
  <mgrwgt>
 0.4029567785D-01   15    2    0
 0.325393786746031D+03 0.000000000000000D+00 0.000000000000000D+00 0.325393786746031D+03
 0.325393786746031D+03 -.000000000000000D+00 -.000000000000000D+00 -.325393786746031D+03
 0.252885068654678D+03 -.395102225735609D+02 -.464887383936292D+02 -.211195637888754D+03
 0.107525740475540D+03 -.107492644296811D+02 -.269777628786107D+02 -.652013997911766D+02
 0.290376764361844D+03 0.502594870032420D+02 0.734665012722399D+02 0.276397037679931D+03
 0.000000000000000D+00 0.000000000000000D+00 0.000000000000000D+00 0.000000000000000D+00
 0.325393786746031D+03 0.000000000000000D+00 0.000000000000000D+00 0.325393786746031D+03
 0.325393786746031D+03 -.000000000000000D+00 -.000000000000000D+00 -.325393786746031D+03
 0.247526628530802D+03 -.384385331922885D+02 -.449222029196873D+02 -.205301988988644D+03
 0.105807620435759D+03 -.102923864253385D+02 -.263099242179190D+02 -.626888447590635D+02
 0.162850301293977D+03 0.734768071998780D+02 0.439666660515000D+02 0.138521881706706D+03
 0.134603023231525D+03 -.247458875822510D+02 0.272654610861063D+02 0.129468952041001D+03
0.204731279166D-03 0.000000000000D+00 0.000000000000D+00 0.134121608937D-04 0.000000000000D+00  6 -2 1 25 -24 21 21 2 0.26637195D-01 0.94081301D-01 0.24587717D+05 0.24587717D+05 0.24587717D+05 0.12240727D+01  1  2  2  3  6  5       21 0.118785014365D-01 0.100000000000D+01
-.198690420941D-06 0.108039664238D-04 -.786222018981D-06 0.134121608937D-04 0.000000000000D+00  6 -2 1 25 -24 21 21 4 0.26637195D-01 0.94081301D-01 0.24587717D+05 0.24587717D+05 0.24587717D+05 0.12240727D+01  1  2  3  3  6  5       21 -.172730403028D-04 0.100000000000D+01
0.124224981624D-04 0.000000000000D+00 0.000000000000D+00 0.134121608937D-04 0.000000000000D+00  6 -2 1 25 -24 21 21 4 0.26637195D-01 0.94081301D-01 0.24587717D+05 0.24587717D+05 0.24587717D+05 0.12240727D+01  1  2 15  3  6  5       21 0.107994291020D-02 0.100000000000D+01
0.219154632944D-03 0.000000000000D+00 0.000000000000D+00 0.132144404438D-04 0.000000000000D+00  6 -2 1 25 -24 21 21 4 0.26637195D-01 0.94081301D-01 0.29922313D+05 0.29922313D+05 0.29922313D+05 0.12150166D+01  1  2 12  3  6  5       21 0.184713448937D-01 0.100000000000D+01
-.152192515775D-03 0.000000000000D+00 0.000000000000D+00 0.134121608937D-04 0.000000000000D+00  6 -2 1 25 -24 21 21 4 0.26637195D-01 0.94081301D-01 0.24587717D+05 0.24587717D+05 0.24587717D+05 0.12240727D+01  1  2  4  3  6  5       21 -.132307709970D-01 0.100000000000D+01
-.431850506593D-03 0.000000000000D+00 0.000000000000D+00 0.134121608937D-04 0.000000000000D+00  6 -2 1 25 -24 21 21 4 0.26637195D-01 0.94081301D-01 0.24587717D+05 0.24587717D+05 0.24587717D+05 0.12240727D+01  1  2  5  3  6  5       21 -.375426815738D-01 0.100000000000D+01
0.717367673887D-03 0.000000000000D+00 -.000000000000D+00 0.134121608937D-04 0.000000000000D+00  6 -2 1 25 -24 21 21 4 0.26637195D-01 0.94081301D-01 0.24587717D+05 0.24587717D+05 0.24587717D+05 0.12240727D+01  1  2  6  3  6  5       21 0.623639563712D-01 0.100000000000D+01
0.676559864946D-05 0.000000000000D+00 0.000000000000D+00 0.132144404438D-04 0.000000000000D+00  6 -2 1 25 -24 1 -1 4 0.26637195D-01 0.94081301D-01 0.29922313D+05 0.29922313D+05 0.29922313D+05 0.12150166D+01  1  2 12  6  6  5       21 0.570235291804D-03 0.100000000000D+01
-.143449574407D-04 0.000000000000D+00 0.000000000000D+00 0.134121608937D-04 0.000000000000D+00  6 -2 1 25 -24 1 -1 4 0.26637195D-01 0.94081301D-01 0.24587717D+05 0.24587717D+05 0.24587717D+05 0.12240727D+01  1  2  5  6  6  5       21 -.124707082929D-02 0.100000000000D+01
0.676559864946D-05 0.000000000000D+00 0.000000000000D+00 0.132144404438D-04 0.000000000000D+00  6 -2 1 25 -24 2 -2 4 0.26637195D-01 0.94081301D-01 0.29922313D+05 0.29922313D+05 0.29922313D+05 0.12150166D+01  1  2 12  7  6  5       21 0.570235291804D-03 0.100000000000D+01
-.143449574407D-04 0.000000000000D+00 0.000000000000D+00 0.134121608937D-04 0.000000000000D+00  6 -2 1 25 -24 2 -2 4 0.26637195D-01 0.94081301D-01 0.24587717D+05 0.24587717D+05 0.24587717D+05 0.12240727D+01  1  2  5  7  6  5       21 -.124707082929D-02 0.100000000000D+01
0.676559864946D-05 0.000000000000D+00 0.000000000000D+00 0.132144404438D-04 0.000000000000D+00  6 -2 1 25 -24 3 -3 4 0.26637195D-01 0.94081301D-01 0.29922313D+05 0.29922313D+05 0.29922313D+05 0.12150166D+01  1  2 12  8  6  5       21 0.570235291804D-03 0.100000000000D+01
0.676559864946D-05 0.000000000000D+00 0.000000000000D+00 0.132144404438D-04 0.000000000000D+00  6 -2 1 25 -24 4 -4 4 0.26637195D-01 0.94081301D-01 0.29922313D+05 0.29922313D+05 0.29922313D+05 0.12150166D+01  1  2 12  8  6  5       21 0.570235291804D-03 0.100000000000D+01
-.143449574407D-04 0.000000000000D+00 0.000000000000D+00 0.134121608937D-04 0.000000000000D+00  6 -2 1 25 -24 3 -3 4 0.26637195D-01 0.94081301D-01 0.24587717D+05 0.24587717D+05 0.24587717D+05 0.12240727D+01  1  2  5  8  6  5       21 -.124707082929D-02 0.100000000000D+01
-.143449574407D-04 0.000000000000D+00 0.000000000000D+00 0.134121608937D-04 0.000000000000D+00  6 -2 1 25 -24 4 -4 4 0.26637195D-01 0.94081301D-01 0.24587717D+05 0.24587717D+05 0.24587717D+05 0.12240727D+01  1  2  5  8  6  5       21 -.124707082929D-02 0.100000000000D+01
  </mgrwgt>
  </event>
  <event>
  6     66 0.49582427E-03 0.25614527E+02 0.75467711E-02 0.11969198E+00
       -2 -1    0    0    0  501 0.00000000E+00 0.00000000E+00 0.30492699E+02 0.30494379E+02 0.32000000E+00 0.0000E+00 0.9000E+01
        1 -1    0    0  502    0 -.00000000E+00 -.00000000E+00 -.88556261E+03 0.88556267E+03 0.32000000E+00 0.0000E+00 0.9000E+01
       25  1    1    2    0    0 0.80525895E+02 0.30322090E+02 -.42188481E+03 0.44834768E+03 0.12500000E+03 0.0000E+00 0.9000E+01
      -24  1    1    2    0    0 -.70665394E+02 0.14367325E+02 -.36423157E+03 0.37991034E+03 0.80419002E+02 0.0000E+00 0.9000E+01
       21  1    1    2  503  501 -.44227759E+01 -.32456852E+02 -.23268030E+02 0.40186713E+02 0.75000000E+00 0.0000E+00 0.9000E+01
       21  1    1    2  502  503 -.54377260E+01 -.12232563E+02 -.45685503E+02 0.47612311E+02 0.75000000E+00 0.0000E+00 0.9000E+01
#aMCatNLO 2  0  0  5  1 0.11362195D+02 0.00000000D+00  -5  6  0 0.00000000D+00 0.00000000D+00 0.00000000D+00 0.00000000D+00 0.00000000D+00
  <mgrwgt>
 0.5019890774D-01    4    2    0
 0.164328908360555D+03 0.000000000000000D+00 0.000000000000000D+00 0.164328908360555D+03
 0.164328908360555D+03 -.000000000000000D+00 -.000000000000000D+00 -.164328908360555D+03
 0.152992766580227D+03 0.810765565531421D+02 0.328177776269576D+02 -.114617657882431D+02
 0.111650231681121D+03 -.702629390297949D+02 0.161913147894328D+02 -.282757670870717D+02
 0.640148184597618D+02 -.108136175233472D+02 -.490090924163904D+02 0.397375328753148D+02
 0.000000000000000D+00 -.000000000000000D+00 0.000000000000000D+00 0.000000000000000D+00
 0.164328908360555D+03 0.000000000000000D+00 0.000000000000000D+00 0.164328908360555D+03
 0.164328908360555D+03 -.000000000000000D+00 -.000000000000000D+00 -.164328908360555D+03
 0.152034958578566D+03 0.805193607125269D+02 0.302924744721363D+02 -.941420048582406D+01
 0.111285292686754D+03 -.706701765910313D+02 0.143456472104779D+02 -.267792636327230D+02
 0.512460305611265D+02 -.431226617069875D+01 -.321547579077509D+02 0.396690251032073D+02
 0.140915348946635D+02 -.553691795079688D+01 -.124833637748634D+02 -.347556098466016D+01
-.670884431582D-04 0.000000000000D+00 0.000000000000D+00 0.908590782978D-05 0.000000000000D+00  6 -2 1 25 -24 21 21 4 0.46913181D-02 0.13624054D+00 0.23387165D+05 0.23387165D+05 0.23387165D+05 0.12264150D+01  1  2 13  3  6  5       21 -.554545551822D-01 0.100000000000D+01
-.854416570604D-04 0.000000000000D+00 0.000000000000D+00 0.908590782978D-05 0.000000000000D+00  6 -2 1 25 -24 21 21 4 0.46913181D-02 0.13624054D+00 0.23387165D+05 0.23387165D+05 0.23387165D+05 0.12264150D+01  1  2 13  3  6  5       21 -.706251160896D-01 0.100000000000D+01
-.508043196350D-05 0.000000000000D+00 0.000000000000D+00 0.906384191934D-05 0.000000000000D+00  6 -2 1 25 -24 21 21 4 0.46913181D-02 0.13624054D+00 0.24143125D+05 0.24143125D+05 0.24143125D+05 0.12249249D+01  1  2  8  3  6  5       21 -.418127813653D-02 0.100000000000D+01
0.218318780641D-03 0.000000000000D+00 0.000000000000D+00 0.906384191934D-05 0.758226312569D-06  6 -2 1 25 -24 21 21 4 0.46913181D-02 0.13624054D+00 0.23387165D+05 0.23387165D+05 0.23387165D+05 0.12264150D+01  1  2  1  3  6  5       21 0.180459857145D+00 0.100000000000D+01
  </mgrwgt>
  </event>
  <event>
  6     66 0.49582427E-03 0.25860920E+02 0.75467711E-02 0.12386458E+00
       -2 -1    0    0    0  503 0.00000000E+00 0.00000000E+00 0.13747290E+03 0.13747327E+03 0.32000000E+00 0.0000E+00 0.9000E+01
        1 -1    0    0  502    0 0.00000000E+00 0.00000000E+00 -.34269278E+03 0.34269293E+03 0.32000000E+00 0.0000E+00 0.9000E+01
       25  1    1    2    0    0 -.83100173E+01 0.10760323E+02 -.22427995E+03 0.25712125E+03 0.12500000E+03 0.0000E+00 0.9000E+01
      -24  1    1    2    0    0 -.20218645E+01 0.11145859E+02 -.78871426E+02 0.11320882E+03 0.80419002E+02 0.0000E+00 0.9000E+01
       21  1    1    2  502  501 -.82536770E+01 0.17493989E+01 0.12282931E+01 0.85589009E+01 0.75000000E+00 0.0000E+00 0.9000E+01
       21  1    1    2  501  503 0.18585559E+02 -.23655581E+02 0.96703193E+02 0.10127724E+03 0.75000000E+00 0.0000E+00 0.9000E+01
#aMCatNLO 2  0  0  1  5 0.35114874D+02 0.00000000D+00  -5  6  0 0.00000000D+00 0.00000000D+00 0.00000000D+00 0.00000000D+00 0.00000000D+00
  <mgrwgt>
 0.1703635161D+00    1    2    0
 0.113461767457725D+03 0.000000000000000D+00 0.000000000000000D+00 0.113461767457725D+03
 0.113461767457725D+03 0.000000000000000D+00 0.000000000000000D+00 -.113461767457725D+03
 0.129103722330462D+03 0.224975508295904D+01 -.267390431053964D+01 -.321023356998503D+02
 0.827545632914155D+02 0.475405798012990D+01 0.252547175282866D+01 0.187649331554788D+02
 0.150652492935727D+02 -.700381306308894D+01 0.148432557710978D+00 0.133374025443715D+02
 0.000000000000000D+00 0.000000000000000D+00 -.000000000000000D+00 0.000000000000000D+00
 0.408865637045127D+03 0.000000000000000D+00 0.000000000000000D+00 0.408865637045127D+03
 0.115222958332249D+03 0.000000000000000D+00 0.000000000000000D+00 -.115222958332249D+03
 0.129770276112719D+03 -.830525853049292D+01 0.107604500708450D+02 -.321023356998503D+02
 0.833524983680455D+02 -.201858936046784D+01 0.111456543320130D+02 0.187649331554788D+02
 0.157861598652599D+02 -.826171090382989D+01 0.174947695111235D+01 0.133374025443715D+02
 0.295179661031352D+03 0.185855587947906D+02 -.236555813539703D+02 0.293642678712878D+03
0.576808265561D-03 0.000000000000D+00 0.000000000000D+00 0.502922768174D-03 0.302372803010D-05  6 -2 1 25 -24 21 21 4 0.21149630D-01 0.52721790D-01 0.15064857D+05 0.15064857D+05 0.15064857D+05 0.12476090D+01  1  2  1  1  6  1       -2 0.170363516070D+00 0.100000000000D+01
  </mgrwgt>
  </event>
  <event>
  6     66 0.49582427E-03 0.27012665E+02 0.75467711E-02 0.11382709E+00
       -2 -1    0    0    0  503 0.00000000E+00 0.00000000E+00 0.24452612E+03 0.24452633E+03 0.32000000E+00 0.0000E+00 0.9000E+01
        1 -1    0    0  502    0 0.00000000E+00 0.00000000E+00 -.62323555E+03 0.62323564E+03 0.32000000E+00 0.0000E+00 0.9000E+01
       25  1    1    2    0    0 -.15422184E+03 0.69978186E+02 -.98300559E+02 0.23231298E+03 0.12500000E+03 0.0000E+00 0.9000E+01
      -24  1    1    2    0    0 0.12245082E+03 -.96703419E+02 -.43235220E+03 0.46662768E+03 0.80419002E+02 0.0000E+00 0.9000E+01
       21  1    1    2  502  501 0.96650375E+01 0.33916099E+01 -.29027719E+01 0.10672608E+02 0.75000000E+00 0.0000E+00 0.9000E+01
       21  1    1    2  501  503 0.22105985E+02 0.23333624E+02 0.15484609E+03 0.15814869E+03 0.75000000E+00 0.0000E+00 0.9000E+01
#aMCatNLO 2  0  0  1  2 0.92447609D+02 0.00000000D+00  -5  6  0 0.00000000D+00 0.00000000D+00 0.00000000D+00 0.00000000D+00 0.00000000D+00
  <mgrwgt>
 0.7490848057D+00    1    2    0
 0.233364716543451D+03 0.000000000000000D+00 0.000000000000000D+00 0.233364716543451D+03
 0.233364716543451D+03 0.000000000000000D+00 0.000000000000000D+00 -.233364716543451D+03
 0.237027172051639D+03 -.142940173667140D+03 0.818916941332393D+02 0.115839274319175D+03
 0.216167339058643D+03 0.132634989855490D+03 -.859488255022070D+02 -.123619826007599D+03
 0.135349219766209D+02 0.103051838116509D+02 0.405713136896769D+01 0.778055168842432D+01
 0.000000000000000D+00 0.000000000000000D+00 0.000000000000000D+00 0.000000000000000D+00
 0.649774064957250D+03 0.000000000000000D+00 0.000000000000000D+00 0.649774064957250D+03
 0.234538538395997D+03 0.000000000000000D+00 0.000000000000000D+00 -.234538538395997D+03
 0.240264657402526D+03 -.154229932469567D+03 0.699749673268447D+02 0.115839274319175D+03
 0.214694187716767D+03 0.122443483497414D+03 -.967063092660511D+02 -.123619826007599D+03
 0.128760576644546D+02 0.968046415067420D+01 0.339771838586283D+01 0.778055168842432D+01
 0.416477700569500D+03 0.221059848214788D+02 0.233336235533436D+02 0.415235526561253D+03
0.183523021458D-01 0.000000000000D+00 0.000000000000D+00 0.934927936531D-04 0.706483552895D-06  6 -2 1 25 -24 21 21 4 0.37619371D-01 0.95882278D-01 0.45888077D+05 0.45888077D+05 0.45888077D+05 0.11959906D+01  1  2  1  1  6  1       -2 0.749084805704D+00 0.100000000000D+01
  </mgrwgt>
  </event>
  <event>
  6     66 -.49582427E-03 0.37496002E+02 0.75467711E-02 0.11361189E+00
       -2 -1    0    0    0  501 0.00000000E+00 0.00000000E+00 0.51138341E+02 0.51139343E+02 0.32000000E+00 0.0000E+00 0.9000E+01
        1 -1    0    0  502    0 -.00000000E+00 -.00000000E+00 -.19222290E+04 0.19222290E+04 0.32000000E+00 0.0000E+00 0.9000E+01
       25  1    1    2    0    0 -.51648474E+01 0.16523816E+03 -.92439465E+03 0.94734407E+03 0.12500000E+03 0.0000E+00 0.9000E+01
      -24  1    1    2    0    0 0.49615899E+02 -.15420689E+03 -.17355529E+03 0.25065945E+03 0.80419002E+02 0.0000E+00 0.9000E+01
       21  1    1    2  502  503 -.52479244E+01 -.24991902E+01 -.40520614E+03 0.40524852E+03 0.75000000E+00 0.0000E+00 0.9000E+01
       21  1    1    2  503  501 -.39203127E+02 -.85320839E+01 -.36793458E+03 0.37011633E+03 0.75000000E+00 0.0000E+00 0.9000E+01
#aMCatNLO 2  0  0  5  2 0.18315253D+02 0.00000000D+00  -5  6  0 0.00000000D+00 0.00000000D+00 0.00000000D+00 0.00000000D+00 0.00000000D+00
  <mgrwgt>
 -.6633136400D-01    3    2    0
 0.313529291831664D+03 0.000000000000000D+00 0.000000000000000D+00 0.313529291831664D+03
 0.313529291831664D+03 -.000000000000000D+00 -.000000000000000D+00 -.313529291831664D+03
 0.222473471135890D+03 -.452568916366145D+01 0.165396779640499D+03 -.805783394058099D+02
 0.272554626622847D+03 0.503957240022269D+02 -.154013360988248D+03 0.203860158389383D+03
 0.132030485904590D+03 -.458700348385655D+02 -.113834186522517D+02 -.123281818983573D+03
 0.000000000000000D+00 -.000000000000000D+00 0.000000000000000D+00 0.000000000000000D+00
 0.313529291831664D+03 0.000000000000000D+00 0.000000000000000D+00 0.313529291831664D+03
 0.313529291831664D+03 -.000000000000000D+00 -.000000000000000D+00 -.313529291831664D+03
 0.222995934182635D+03 -.516269608906869D+01 0.165238695685651D+03 -.822903802347676D+02
 0.270962053043358D+03 0.496185126272411D+02 -.154206239029302D+03 0.201771299456090D+03
 0.656769765544616D+02 -.506797306639275D+01 -.245345399298059D+01 -.654351699152523D+02
 0.674236198828728D+02 -.393878434717797D+02 -.857900266336885D+01 -.540457493060704D+02
-.128769525518D-02 0.000000000000D+00 0.000000000000D+00 0.543625127484D-05 0.000000000000D+00  6 -2 1 25 -24 21 21 4 0.78675162D-02 0.29572762D+00 0.47100857D+05 0.47100857D+05 0.47100857D+05 0.11948594D+01  1  2 13  3  6  5       21 -.858523399415D-01 0.100000000000D+01
-.927934629640D-03 0.000000000000D+00 0.000000000000D+00 0.543625127484D-05 0.000000000000D+00  6 -2 1 25 -24 21 21 4 0.78675162D-02 0.29572762D+00 0.47100857D+05 0.47100857D+05 0.47100857D+05 0.11948594D+01  1  2 13  3  6  5       21 -.618666248453D-01 0.100000000000D+01
0.122072884013D-02 0.000000000000D+00 0.000000000000D+00 0.543356820737D-05 0.103775958784D-05  6 -2 1 25 -24 21 21 4 0.78675162D-02 0.29572762D+00 0.47100857D+05 0.47100857D+05 0.47100857D+05 0.11948594D+01  1  2  1  3  6  5       21 0.813876007831D-01 0.100000000000D+01
  </mgrwgt>
  </event>
  <event>
  5     66 0.49582427E-03 0.65212034E+02 0.75467711E-02 0.11984569E+00
       -2 -1    0    0    0  501 0.00000000E+00 0.00000000E+00 0.12022746E+03 0.12022789E+03 0.32000000E+00 0.0000E+00 0.9000E+01
        1 -1    0    0  502    0 -.00000000E+00 -.00000000E+00 -.27876009E+03 0.27876028E+03 0.32000000E+00 0.0000E+00 0.9000E+01
       25  1    1    2    0    0 0.15346497E+02 -.25328072E+02 -.17250167E+03 0.21507872E+03 0.12500000E+03 0.0000E+00 0.9000E+01
      -24  1    1    2    0    0 -.34966670E+02 -.47785787E+02 0.34179450E+02 0.10555378E+03 0.80419002E+02 0.0000E+00 0.9000E+01
       21  1    1    2  502  501 0.19620173E+02 0.73113859E+02 -.20210408E+02 0.78355667E+02 0.75000000E+00 0.0000E+00 0.9000E+01
#aMCatNLO 1  0  0  5  1 0.27490104D+02 0.00000000D+00  -5  6  0 0.00000000D+00 0.00000000D+00 0.00000000D+00 0.00000000D+00 0.00000000D+00
  <mgrwgt>
 0.3926990124D-01   20    2    0
 0.183070312770117D+03 0.000000000000000D+00 0.000000000000000D+00 0.183070312770117D+03
 0.183070312770117D+03 -.000000000000000D+00 -.000000000000000D+00 -.183070312770117D+03
 0.159684124454875D+03 0.153460872163490D+02 -.253295994676458D+02 -.948521407290153D+02
 0.129822848903684D+03 -.349670033780610D+02 -.477870281043572D+02 0.829485669726141D+02
 0.766336521816754D+02 0.196209161617120D+02 0.731166275720030D+02 0.119035737564013D+02
 0.000000000000000D+00 0.000000000000000D+00 0.000000000000000D+00 0.000000000000000D+00
 0.183070312770117D+03 0.000000000000000D+00 0.000000000000000D+00 0.183070312770117D+03
 0.183070312770117D+03 -.000000000000000D+00 -.000000000000000D+00 -.183070312770117D+03
 0.157846415916728D+03 0.178254382359029D+02 -.160903884327025D+02 -.933479735695399D+02
 0.127521072450613D+03 -.329576032333093D+02 -.402990718429858D+02 0.841676253811021D+02
 0.388268902720089D+02 -.195532929496465D+02 0.330920548570758D+02 0.548744461076467D+01
 0.419462469008844D+02 0.346854579470529D+02 0.232974054186124D+02 0.369290357767307D+01
0.809634235060D-04 0.000000000000D+00 0.000000000000D+00 0.251832696873D-05 0.000000000000D+00  6 -2 1 25 -24 21 21 2 0.18496579D-01 0.42886215D-01 0.23108777D+05 0.23108777D+05 0.23108777D+05 0.12269774D+01  1  2  2  3  6  5       21 0.242368351878D-01 0.100000000000D+01
-.470284113149D-05 0.427255724030D-05 -.310920864422D-06 0.251832696873D-05 0.000000000000D+00  6 -2 1 25 -24 21 21 4 0.18496579D-01 0.42886215D-01 0.23108777D+05 0.23108777D+05 0.23108777D+05 0.12269774D+01  1  2  3  3  6  5       21 -.211943679278D-02 0.100000000000D+01
0.323389780060D-05 0.000000000000D+00 0.000000000000D+00 0.251832696873D-05 0.000000000000D+00  6 -2 1 25 -24 21 21 4 0.18496579D-01 0.42886215D-01 0.23108777D+05 0.23108777D+05 0.23108777D+05 0.12269774D+01  1  2 15  3  6  5       21 0.145742579668D-02 0.100000000000D+01
0.191440101361D-04 0.000000000000D+00 0.000000000000D+00 0.251925009542D-05 0.000000000000D+00  6 -2 1 25 -24 21 21 4 0.18496579D-01 0.42886215D-01 0.22998504D+05 0.22998504D+05 0.22998504D+05 0.12272022D+01  1  2 12  3  6  5       21 0.863322500930D-02 0.100000000000D+01
0.200155561030D-04 0.000000000000D+00 0.000000000000D+00 0.251925009542D-05 0.000000000000D+00  6 -2 1 25 -24 21 21 4 0.18496579D-01 0.42886215D-01 0.22998504D+05 0.22998504D+05 0.22998504D+05 0.12272022D+01  1  2 12  3  6  5       21 0.902625929967D-02 0.100000000000D+01
-.361284696414D-04 0.000000000000D+00 0.000000000000D+00 0.251832696873D-05 0.000000000000D+00  6 -2 1 25 -24 21 21 4 0.18496579D-01 0.42886215D-01 0.23108777D+05 0.23108777D+05 0.23108777D+05 0.12269774D+01  1  2  4  3  6  5       21 -.162820741088D-01 0.100000000000D+01
-.248938567654D-04 0.000000000000D+00 0.000000000000D+00 0.251832696873D-05 0.000000000000D+00  6 -2 1 25 -24 21 21 4 0.18496579D-01 0.42886215D-01 0.23108777D+05 0.23108777D+05 0.23108777D+05 0.12269774D+01  1  2  5  3  6  5       21 -.112189534938D-01 0.100000000000D+01
0.595147284587D-04 0.000000000000D+00 -.000000000000D+00 0.251832696873D-05 0.000000000000D+00  6 -2 1 25 -24 21 21 4 0.18496579D-01 0.42886215D-01 0.23108777D+05 0.23108777D+05 0.23108777D+05 0.12269774D+01  1  2  6  3  6  5       21 0.268215960695D-01 0.100000000000D+01
0.768532465758D-06 0.000000000000D+00 0.000000000000D+00 0.251925009542D-05 0.000000000000D+00  6 -2 1 25 -24 1 -1 4 0.18496579D-01 0.42886215D-01 0.22998504D+05 0.22998504D+05 0.22998504D+05 0.12272022D+01  1  2 12  6  6  5       21 0.346579094802D-03 0.100000000000D+01
0.803417278022D-06 0.000000000000D+00 0.000000000000D+00 0.251925009542D-05 0.000000000000D+00  6 -2 1 25 -24 1 -1 4 0.18496579D-01 0.42886215D-01 0.22998504D+05 0.22998504D+05 0.22998504D+05 0.12272022D+01  1  2 12  6  6  5       21 0.362310826636D-03 0.100000000000D+01
-.228577510631D-05 0.000000000000D+00 0.000000000000D+00 0.251832696873D-05 0.000000000000D+00  6 -2 1 25 -24 1 -1 4 0.18496579D-01 0.42886215D-01 0.23108777D+05 0.23108777D+05 0.23108777D+05 0.12269774D+01  1  2  5  6  6  5       21 -.103013385417D-02 0.100000000000D+01
0.768532465758D-06 0.000000000000D+00 0.000000000000D+00 0.251925009542D-05 0.000000000000D+00  6 -2 1 25 -24 2 -2 4 0.18496579D-01 0.42886215D-01 0.22998504D+05 0.22998504D+05 0.22998504D+05 0.12272022D+01  1  2 12  7  6  5       21 0.346579094802D-03 0.100000000000D+01
0.803417278022D-06 0.000000000000D+00 0.000000000000D+00 0.251925009542D-05 0.000000000000D+00  6 -2 1 25 -24 2 -2 4 0.18496579D-01 0.42886215D-01 0.22998504D+05 0.22998504D+05 0.22998504D+05 0.12272022D+01  1  2 12  7  6  5       21 0.362310826636D-03 0.100000000000D+01
-.228577510631D-05 0.000000000000D+00 0.000000000000D+00 0.251832696873D-05 0.000000000000D+00  6 -2 1 25 -24 2 -2 4 0.18496579D-01 0.42886215D-01 0.23108777D+05 0.23108777D+05 0.23108777D+05 0.12269774D+01  1  2  5  7  6  5       21 -.103013385417D-02 0.100000000000D+01
0.768532465758D-06 0.000000000000D+00 0.000000000000D+00 0.251925009542D-05 0.000000000000D+00  6 -2 1 25 -24 3 -3 4 0.18496579D-01 0.42886215D-01 0.22998504D+05 0.22998504D+05 0.22998504D+05 0.12272022D+01  1  2 12  8  6  5       21 0.346579094802D-03 0.100000000000D+01
0.768532465758D-06 0.000000000000D+00 0.000000000000D+00 0.251925009542D-05 0.000000000000D+00  6 -2 1 25 -24 4 -4 4 0.18496579D-01 0.42886215D-01 0.22998504D+05 0.22998504D+05 0.22998504D+05 0.12272022D+01  1  2 12  8  6  5       21 0.346579094802D-03 0.100000000000D+01
0.803417278022D-06 0.000000000000D+00 0.000000000000D+00 0.251925009542D-05 0.000000000000D+00  6 -2 1 25 -24 3 -3 4 0.18496579D-01 0.42886215D-01 0.22998504D+05 0.22998504D+05 0.22998504D+05 0.12272022D+01  1  2 12  8  6  5       21 0.362310826636D-03 0.100000000000D+01
0.803417278022D-06 0.000000000000D+00 0.000000000000D+00 0.251925009542D-05 0.000000000000D+00  6 -2 1 25 -24 4 -4 4 0.18496579D-01 0.42886215D-01 0.22998504D+05 0.22998504D+05 0.22998504D+05 0.12272022D+01  1  2 12  8  6  5       21 0.362310826636D-03 0.100000000000D+01
-.228577510631D-05 0.000000000000D+00 0.000000000000D+00 0.251832696873D-05 0.000000000000D+00  6 -2 1 25 -24 3 -3 4 0.18496579D-01 0.42886215D-01 0.23108777D+05 0.23108777D+05 0.23108777D+05 0.12269774D+01  1  2  5  8  6  5       21 -.103013385417D-02 0.100000000000D+01
-.228577510631D-05 0.000000000000D+00 0.000000000000D+00 0.251832696873D-05 0.000000000000D+00  6 -2 1 25 -24 4 -4 4 0.18496579D-01 0.42886215D-01 0.23108777D+05 0.23108777D+05 0.23108777D+05 0.12269774D+01  1  2  5  8  6  5       21 -.103013385417D-02 0.100000000000D+01
  </mgrwgt>
  </event>
  <event>
  6     66 -.49582427E-03 0.16691577E+03 0.75467711E-02 0.10887101E+00
       -2 -1    0    0    0  501 0.00000000E+00 0.00000000E+00 0.30379404E+03 0.30379421E+03 0.32000000E+00 0.0000E+00 0.9000E+01
        1 -1    0    0  502    0 -.00000000E+00 -.00000000E+00 -.16527906E+04 0.16527906E+04 0.32000000E+00 0.0000E+00 0.9000E+01
       25  1    1    2    0    0 0.11336354E+03 0.51407227E+02 0.20410298E+03 0.26977216E+03 0.12500000E+03 0.0000E+00 0.9000E+01
      -24  1    1    2    0    0 -.18838098E+03 0.91211288E+02 -.14614555E+03 0.26764273E+03 0.80419002E+02 0.0000E+00 0.9000E+01
       21  1    1    2  502  503 0.83765043E+02 -.15154557E+03 -.12979933E+04 0.13094922E+04 0.75000000E+00 0.0000E+00 0.9000E+01
       21  1    1    2  503  501 -.87475986E+01 0.89270603E+01 -.10896063E+03 0.10967769E+03 0.75000000E+00 0.0000E+00 0.9000E+01
#aMCatNLO 2  0  0  5  1 0.23952387D+02 0.00000000D+00  -5  6  0 0.00000000D+00 0.00000000D+00 0.00000000D+00 0.00000000D+00 0.00000000D+00
  <mgrwgt>
 -.1749469130D+00    3    2    0
 0.708595871356228D+03 0.000000000000000D+00 0.000000000000000D+00 0.708595871356228D+03
 0.708595871356228D+03 -.000000000000000D+00 -.000000000000000D+00 -.708595871356228D+03
 0.569278611006684D+03 0.113022462931638D+03 0.520556534369337D+02 0.541266356582246D+03
 0.230867345014973D+03 -.188519468927743D+03 0.914745737986719D+02 0.540862942291766D+02
 0.617045786690800D+03 0.754970059961049D+02 -.143530227235606D+03 -.595352650811423D+03
 0.000000000000000D+00 0.000000000000000D+00 0.000000000000000D+00 -.000000000000000D+00
 0.708595871356228D+03 0.000000000000000D+00 0.000000000000000D+00 0.708595871356228D+03
 0.708595871356228D+03 -.000000000000000D+00 -.000000000000000D+00 -.708595871356228D+03
 0.566728373008175D+03 0.113363871527164D+03 0.514065885813216D+02 0.538574084091777D+03
 0.230395922923473D+03 -.188380843684509D+03 0.912110280805412D+02 0.529931262956964D+02
 0.572327291716924D+03 0.837791869886577D+02 -.151562263317486D+03 -.545498356559971D+03
 0.477401550638851D+02 -.876221483131262D+01 0.894464665562350D+01 -.460688538275022D+02
-.514211237903D-01 0.000000000000D+00 0.000000000000D+00 0.151719777297D-05 0.000000000000D+00  6 -2 1 25 -24 21 21 4 0.46737559D-01 0.25427549D+00 0.85943426D+05 0.85943426D+05 0.85943426D+05 0.11696638D+01  1  2 13  3  6  5       21 -.212569789301D+00 0.100000000000D+01
-.282847831132D-02 0.000000000000D+00 0.000000000000D+00 0.152578751632D-05 0.000000000000D+00  6 -2 1 25 -24 21 21 4 0.46737559D-01 0.25427549D+00 0.79240694D+05 0.79240694D+05 0.79240694D+05 0.11729702D+01  1  2  8  3  6  5       21 -.118715839311D-01 0.100000000000D+01
0.119728244421D-01 0.000000000000D+00 0.000000000000D+00 0.152578751632D-05 0.138423563039D-07  6 -2 1 25 -24 21 21 4 0.46737559D-01 0.25427549D+00 0.85943426D+05 0.85943426D+05 0.85943426D+05 0.11696638D+01  1  2  1  3  6  5       21 0.494944602802D-01 0.100000000000D+01
  </mgrwgt>
  </event>
  <event>
  5     66 0.49582427E-03 0.68242899E+02 0.75467711E-02 0.12062262E+00
       -2 -1    0    0    0  501 0.00000000E+00 0.00000000E+00 0.82161561E+03 0.82161567E+03 0.32000000E+00 0.0000E+00 0.9000E+01
        1 -1    0    0  502    0 0.00000000E+00 0.00000000E+00 -.34285594E+02 0.34287087E+02 0.32000000E+00 0.0000E+00 0.9000E+01
       25  1    1    2    0    0 0.78390933E+01 -.64614274E+01 0.52741379E+03 0.54211946E+03 0.12500000E+03 0.0000E+00 0.9000E+01
      -24  1    1    2    0    0 0.57330025E+02 -.13777938E+02 0.10663061E+03 0.14599269E+03 0.80419002E+02 0.0000E+00 0.9000E+01
       21  1    1    2  502  501 -.65169118E+02 0.20239366E+02 0.15328562E+03 0.16779061E+03 0.75000000E+00 0.0000E+00 0.9000E+01
#aMCatNLO 1  0  0  5  2 0.93301870D+01 0.00000000D+00  -5  6  0 0.00000000D+00 0.00000000D+00 0.00000000D+00 0.00000000D+00 0.00000000D+00
  <mgrwgt>
 0.6077691954D-01   25    2    0
 0.167839938566875D+03 0.000000000000000D+00 0.000000000000000D+00 0.167839938566875D+03
 0.167839938566875D+03 -.000000000000000D+00 -.000000000000000D+00 -.167839938566875D+03
 0.145236240885411D+03 0.784079361369704D+01 -.646195542982569D+01 0.732484180993387D+02
 0.122147026884005D+03 0.573314545746898D+02 -.137783823618619D+02 -.705403481567243D+02
 0.682966093643338D+02 -.651722481883869D+02 0.202403377916876D+02 -.270806994261437D+01
 0.000000000000000D+00 0.000000000000000D+00 0.000000000000000D+00 -.000000000000000D+00
 0.167839938566875D+03 0.000000000000000D+00 0.000000000000000D+00 0.167839938566875D+03
 0.167839938566875D+03 -.000000000000000D+00 -.000000000000000D+00 -.167839938566875D+03
 0.145030277146899D+03 0.523216006727563D+01 -.565180040798765D+01 0.731400228499077D+02
 0.121113895669185D+03 0.551452616668498D+02 -.130994233852655D+02 -.706311899408740D+02
 0.588905098918155D+02 -.536785476679542D+02 0.238941967790913D+02 0.397152815163880D+01
 0.106451944258507D+02 -.669887406617125D+01 -.514297298583812D+01 -.648036106067249D+01
0.250057326817D-03 0.000000000000D+00 0.000000000000D+00 0.362889156547D-05 0.000000000000D+00  6 -2 1 25 -24 21 21 2 0.12640252D+00 0.52748265D-02 0.21517155D+05 0.21517155D+05 0.21517155D+05 0.12303454D+01  1  2  2  3  6  5       21 0.245654539661D-01 0.100000000000D+01
-.112413395688D-04 0.131958876727D-04 -.960285976584D-06 0.362889156547D-05 0.000000000000D+00  6 -2 1 25 -24 21 21 4 0.12640252D+00 0.52748265D-02 0.21517155D+05 0.21517155D+05 0.21517155D+05 0.12303454D+01  1  2  3  3  6  5       21 -.167169616353D-02 0.100000000000D+01
0.126794365836D-04 0.000000000000D+00 0.000000000000D+00 0.362889156547D-05 0.000000000000D+00  6 -2 1 25 -24 21 21 4 0.12640252D+00 0.52748265D-02 0.21517155D+05 0.21517155D+05 0.21517155D+05 0.12303454D+01  1  2 15  3  6  5       21 0.188555513004D-02 0.100000000000D+01
0.340350273669D-03 0.000000000000D+00 0.000000000000D+00 0.363377913138D-05 0.000000000000D+00  6 -2 1 25 -24 21 21 4 0.12640252D+00 0.52748265D-02 0.21144786D+05 0.21144786D+05 0.21144786D+05 0.12311736D+01  1  2 12  3  6  5       21 0.507317281693D-01 0.100000000000D+01
0.336198243214D-03 0.000000000000D+00 0.000000000000D+00 0.363377913138D-05 0.000000000000D+00  6 -2 1 25 -24 21 21 4 0.12640252D+00 0.52748265D-02 0.21144786D+05 0.21144786D+05 0.21144786D+05 0.12311736D+01  1  2 12  3  6  5       21 0.501128372893D-01 0.100000000000D+01
-.576403346699D-03 0.000000000000D+00 0.000000000000D+00 0.362889156547D-05 0.000000000000D+00  6 -2 1 25 -24 21 21 4 0.12640252D+00 0.52748265D-02 0.21517155D+05 0.21517155D+05 0.21517155D+05 0.12303454D+01  1  2  4  3  6  5       21 -.857167651083D-01 0.100000000000D+01
-.713786138542D-03 0.000000000000D+00 0.000000000000D+00 0.362889156547D-05 0.000000000000D+00  6 -2 1 25 -24 21 21 4 0.12640252D+00 0.52748265D-02 0.21517155D+05 0.21517155D+05 0.21517155D+05 0.12303454D+01  1  2  5  3  6  5       21 -.106146917996D+00 0.100000000000D+01
0.851625016207D-03 0.000000000000D+00 -.000000000000D+00 0.362889156547D-05 0.000000000000D+00  6 -2 1 25 -24 21 21 4 0.12640252D+00 0.52748265D-02 0.21517155D+05 0.21517155D+05 0.21517155D+05 0.12303454D+01  1  2  6  3  6  5       21 0.126644895267D+00 0.100000000000D+01
0.271844706566D-07 0.000000000000D+00 0.000000000000D+00 0.362889156547D-05 0.391375271630D-06  6 -2 1 25 -24 21 21 4 0.12640252D+00 0.52748265D-02 0.21144786D+05 0.21144786D+05 0.21144786D+05 0.12311736D+01  1  2 11  3  6  5       21 0.405204661924D-05 0.100000000000D+01
0.439023660684D-05 0.000000000000D+00 0.000000000000D+00 0.363377913138D-05 0.000000000000D+00  6 -2 1 25 -24 1 -1 4 0.12640252D+00 0.52748265D-02 0.21144786D+05 0.21144786D+05 0.21144786D+05 0.12311736D+01  1  2 12  6  6  5       21 0.654397270600D-03 0.100000000000D+01
0.436709342226D-05 0.000000000000D+00 0.000000000000D+00 0.363377913138D-05 0.000000000000D+00  6 -2 1 25 -24 1 -1 4 0.12640252D+00 0.52748265D-02 0.21144786D+05 0.21144786D+05 0.21144786D+05 0.12311736D+01  1  2 12  6  6  5       21 0.650947607592D-03 0.100000000000D+01
-.815983233024D-05 0.000000000000D+00 0.000000000000D+00 0.362889156547D-05 0.000000000000D+00  6 -2 1 25 -24 1 -1 4 0.12640252D+00 0.52748265D-02 0.21517155D+05 0.21517155D+05 0.21517155D+05 0.12303454D+01  1  2  5  6  6  5       21 -.121344616609D-02 0.100000000000D+01
0.304035252048D-09 0.000000000000D+00 0.000000000000D+00 0.362889156547D-05 0.559752200049D-08  6 -2 1 25 -24 1 -1 4 0.12640252D+00 0.52748265D-02 0.21144786D+05 0.21144786D+05 0.21144786D+05 0.12311736D+01  1  2 11  6  6  5       21 0.453187053283D-07 0.100000000000D+01
0.439023660684D-05 0.000000000000D+00 0.000000000000D+00 0.363377913138D-05 0.000000000000D+00  6 -2 1 25 -24 2 -2 4 0.12640252D+00 0.52748265D-02 0.21144786D+05 0.21144786D+05 0.21144786D+05 0.12311736D+01  1  2 12  7  6  5       21 0.654397270600D-03 0.100000000000D+01
0.436709342226D-05 0.000000000000D+00 0.000000000000D+00 0.363377913138D-05 0.000000000000D+00  6 -2 1 25 -24 2 -2 4 0.12640252D+00 0.52748265D-02 0.21144786D+05 0.21144786D+05 0.21144786D+05 0.12311736D+01  1  2 12  7  6  5       21 0.650947607592D-03 0.100000000000D+01
-.815983233024D-05 0.000000000000D+00 0.000000000000D+00 0.362889156547D-05 0.000000000000D+00  6 -2 1 25 -24 2 -2 4 0.12640252D+00 0.52748265D-02 0.21517155D+05 0.21517155D+05 0.21517155D+05 0.12303454D+01  1  2  5  7  6  5       21 -.121344616609D-02 0.100000000000D+01
0.308634690062D-09 0.000000000000D+00 0.000000000000D+00 0.362889156547D-05 0.594842927245D-08  6 -2 1 25 -24 2 -2 4 0.12640252D+00 0.52748265D-02 0.21144786D+05 0.21144786D+05 0.21144786D+05 0.12311736D+01  1  2 11  7  6  5       21 0.460042856174D-07 0.100000000000D+01
0.439023660684D-05 0.000000000000D+00 0.000000000000D+00 0.363377913138D-05 0.000000000000D+00  6 -2 1 25 -24 3 -3 4 0.12640252D+00 0.52748265D-02 0.21144786D+05 0.21144786D+05 0.21144786D+05 0.12311736D+01  1  2 12  8  6  5       21 0.654397270600D-03 0.100000000000D+01
0.439023660684D-05 0.000000000000D+00 0.000000000000D+00 0.363377913138D-05 0.000000000000D+00  6 -2 1 25 -24 4 -4 4 0.12640252D+00 0.52748265D-02 0.21144786D+05 0.21144786D+05 0.21144786D+05 0.12311736D+01  1  2 12  8  6  5       21 0.654397270600D-03 0.100000000000D+01
0.436709342226D-05 0.000000000000D+00 0.000000000000D+00 0.363377913138D-05 0.000000000000D+00  6 -2 1 25 -24 3 -3 4 0.12640252D+00 0.52748265D-02 0.21144786D+05 0.21144786D+05 0.21144786D+05 0.12311736D+01  1  2 12  8  6  5       21 0.650947607592D-03 0.100000000000D+01
0.436709342226D-05 0.000000000000D+00 0.000000000000D+00 0.363377913138D-05 0.000000000000D+00  6 -2 1 25 -24 4 -4 4 0.12640252D+00 0.52748265D-02 0.21144786D+05 0.21144786D+05 0.21144786D+05 0.12311736D+01  1  2 12  8  6  5       21 0.650947607592D-03 0.100000000000D+01
-.815983233024D-05 0.000000000000D+00 0.000000000000D+00 0.362889156547D-05 0.000000000000D+00  6 -2 1 25 -24 3 -3 4 0.12640252D+00 0.52748265D-02 0.21517155D+05 0.21517155D+05 0.21517155D+05 0.12303454D+01  1  2  5  8  6  5       21 -.121344616609D-02 0.100000000000D+01
-.815983233024D-05 0.000000000000D+00 0.000000000000D+00 0.362889156547D-05 0.000000000000D+00  6 -2 1 25 -24 4 -4 4 0.12640252D+00 0.52748265D-02 0.21517155D+05 0.21517155D+05 0.21517155D+05 0.12303454D+01  1  2  5  8  6  5       21 -.121344616609D-02 0.100000000000D+01
0.304465028674D-09 0.000000000000D+00 0.000000000000D+00 0.362889156547D-05 0.556189914159D-08  6 -2 1 25 -24 3 -3 4 0.12640252D+00 0.52748265D-02 0.21144786D+05 0.21144786D+05 0.21144786D+05 0.12311736D+01  1  2 11  8  6  5       21 0.453827667163D-07 0.100000000000D+01
0.304465028674D-09 0.000000000000D+00 0.000000000000D+00 0.362889156547D-05 0.556189914159D-08  6 -2 1 25 -24 4 -4 4 0.12640252D+00 0.52748265D-02 0.21144786D+05 0.21144786D+05 0.21144786D+05 0.12311736D+01  1  2 11  8  6  5       21 0.453827667163D-07 0.100000000000D+01
  </mgrwgt>
  </event>
  <event>
  5     66 0.49582427E-03 0.25955265E+02 0.75467711E-02 0.10095488E+00
       -2 -1    0    0    0  501 0.00000000E+00 0.00000000E+00 0.76644023E+02 0.76644691E+02 0.32000000E+00 0.0000E+00 0.9000E+01
        1 -1    0    0  502    0 0.00000000E+00 0.00000000E+00 -.19668083E+04 0.19668084E+04 0.32000000E+00 0.0000E+00 0.9000E+01
       25  1    1    2    0    0 -.31309951E+02 0.31247248E+03 -.12268095E+04 0.12725195E+04 0.12500000E+03 0.0000E+00 0.9000E+01
      -24  1    1    2    0    0 0.57259477E+02 -.31296931E+03 -.66827664E+03 0.74450609E+03 0.80419002E+02 0.0000E+00 0.9000E+01
       21  1    1    2  502  501 -.25949527E+02 0.49682777E+00 0.49217973E+01 0.26427474E+02 0.75000000E+00 0.0000E+00 0.9000E+01
#aMCatNLO 1  0  0  2  1 0.29414762D+03 0.00000000D+00  -5  6  0 0.00000000D+00 0.00000000D+00 0.00000000D+00 0.00000000D+00 0.00000000D+00
  <mgrwgt>
 0.7907650188D+00    3    2    0
 0.388258691303981D+03 0.000000000000000D+00 0.000000000000000D+00 0.388258691303981D+03
 0.388258691303981D+03 0.000000000000000D+00 0.000000000000000D+00 -.388258691303981D+03
 0.362468042053404D+03 -.313094379193461D+02 0.312472474601244D+03 -.130915061103671D+03
 0.332523766109757D+03 0.572599474091588D+02 -.312969321190990D+03 0.536315344680413D+02
 0.815255744448002D+02 -.259505094898127D+02 0.496846589746252D+00 0.772835266356295D+02
 0.000000000000000D+00 -.000000000000000D+00 0.000000000000000D+00 0.000000000000000D+00
 0.608646018790977D+03 0.000000000000000D+00 0.000000000000000D+00 0.608646018790977D+03
 0.526988285318639D+03 0.000000000000000D+00 0.000000000000000D+00 -.526988285318639D+03
 0.286491132574209D+03 0.410306287776549D+02 0.218242762358768D+03 -.130915061103671D+03
 0.462828091097591D+03 0.145918538962284D+03 -.428455440451378D+03 0.536315344680413D+02
 0.810433877349128D+02 -.782880010232934D+01 -.231083771664979D+02 0.772835266356295D+02
 0.305271692702903D+03 -.179120367637610D+03 0.233321055259108D+03 0.816577334723381D+02
0.251800963549D-01 0.000000000000D+00 0.000000000000D+00 0.200649042651D-04 0.000000000000D+00  6 -2 1 25 -24 21 21 2 0.11791441D-01 0.30258595D+00 0.11975960D+06 0.11975960D+06 0.11975960D+06 0.11564457D+01  1  2  2  2  6  2        1 0.527016584940D+00 0.100000000000D+01
0.844510907214D-02 0.132879019110D-02 -.966982000744D-04 0.200649042651D-04 0.000000000000D+00  6 -2 1 25 -24 21 21 4 0.11791441D-01 0.30258595D+00 0.11975960D+06 0.11975960D+06 0.11975960D+06 0.11564457D+01  1  2  3  2  6  2        1 0.236386498813D+00 0.100000000000D+01
0.977528440279D-03 0.000000000000D+00 0.000000000000D+00 0.200649042651D-04 0.000000000000D+00  6 -2 1 25 -24 21 21 4 0.11791441D-01 0.30258595D+00 0.11975960D+06 0.11975960D+06 0.11975960D+06 0.11564457D+01  1  2 15  2  6  2        1 0.273619349986D-01 0.100000000000D+01
  </mgrwgt>
  </event>
  <event>
  6     66 0.49582427E-03 0.23442150E+02 0.75467711E-02 0.12116201E+00
       21 -1    0    0  503  501 0.00000000E+00 0.00000000E+00 0.34240493E+02 0.34248706E+02 0.75000000E+00 0.0000E+00 0.9000E+01
        1 -1    0    0  502    0 0.00000000E+00 0.00000000E+00 -.23882316E+04 0.23882316E+04 0.32000000E+00 0.0000E+00 0.9000E+01
       25  1    1    2    0    0 0.70360250E+01 0.44928971E+02 -.17520360E+04 0.17570780E+04 0.12500000E+03 0.0000E+00 0.9000E+01
      -24  1    1    2    0    0 -.12746181E+02 0.12531563E+02 -.53842480E+03 0.54469072E+03 0.80419002E+02 0.0000E+00 0.9000E+01
        2  1    1    2  503    0 -.14512076E+02 -.25273575E+02 0.15500620E+02 0.33010992E+02 0.32000000E+00 0.0000E+00 0.9000E+01
       21  1    1    2  502  501 0.20222232E+02 -.32186959E+02 -.79030935E+02 0.87700571E+02 0.75000000E+00 0.0000E+00 0.9000E+01
#aMCatNLO 2  0  0  1  5 0.29143678D+02 0.00000000D+00  -5  6  0 0.00000000D+00 0.00000000D+00 0.00000000D+00 0.00000000D+00 0.00000000D+00
  <mgrwgt>
 0.1416080071D+00    2    2    0
 0.153479075882282D+03 0.000000000000000D+00 0.000000000000000D+00 0.153479075882282D+03
 0.153479075882282D+03 0.000000000000000D+00 0.000000000000000D+00 -.153479075882282D+03
 0.149245035660151D+03 -.832897630511731D-01 0.325319631117084D+02 -.747712853180517D+02
 0.833889451154586D+02 -.166812263838315D+02 0.567939823817177D+01 0.132657956822061D+02
 0.000000000000000D+00 -.000000000000000D+00 -.000000000000000D+00 0.000000000000000D+00
 0.743241709889544D+02 0.167645161468827D+02 -.382113613498802D+02 0.615054896358456D+02
 0.528538173403896D+03 0.000000000000000D+00 0.000000000000000D+00 0.528538173403896D+03
 0.154736465080048D+03 0.000000000000000D+00 0.000000000000000D+00 -.154736465080048D+03
 0.152590793865789D+03 0.703565722432614D+01 0.449299987970184D+02 -.747712853180517D+02
 0.834429242885507D+02 -.127464144168177D+02 0.125320885684300D+02 0.132657956822061D+02
 0.374936089347120D+03 -.145120763234263D+02 -.252735749324725D+02 0.373801708323848D+03
 0.723048309824833D+02 0.202228335159179D+02 -.321885124329758D+02 0.615054896358456D+02
-.260075118655D-03 0.000000000000D+00 0.000000000000D+00 0.151693814233D-04 0.000000000000D+00  6 21 1 25 -24 2 21 4 0.54683940D-02 0.36443505D+00 0.19959353D+05 0.19959353D+05 0.19959353D+05 0.12339233D+01  1  2 13  4  5  1       -2 -.319148336591D+00 0.100000000000D+01
0.362911985866D-03 0.000000000000D+00 0.000000000000D+00 0.154317439625D-04 0.568758081674D-07  6 21 1 25 -24 2 21 4 0.52683993D-02 0.36742071D+00 0.19959353D+05 0.19959353D+05 0.19959353D+05 0.12339233D+01  1  2  1  4  5  1       -2 0.460756343682D+00 0.100000000000D+01
  </mgrwgt>
  </event>
  <event>
  5     66 0.49582427E-03 0.89529514E+02 0.75467711E-02 0.10687171E+00
       -2 -1    0    0    0  501 0.00000000E+00 0.00000000E+00 0.28076264E+03 0.28076282E+03 0.32000000E+00 0.0000E+00 0.9000E+01
        1 -1    0    0  502    0 0.00000000E+00 0.00000000E+00 -.39378811E+03 0.39378824E+03 0.32000000E+00 0.0000E+00 0.9000E+01
       25  1    1    2    0    0 0.92224864E+02 -.50767639E+02 0.14054965E+03 0.21555042E+03 0.12500000E+03 0.0000E+00 0.9000E+01
      -24  1    1    2    0    0 -.10534444E+03 0.13933035E+03 -.23625030E+01 0.19231015E+03 0.80419002E+02 0.0000E+00 0.9000E+01
       21  1    1    2  502  501 0.13119576E+02 -.88562709E+02 -.25121262E+03 0.26669049E+03 0.75000000E+00 0.0000E+00 0.9000E+01
#aMCatNLO 1  0  0  1  5 0.22830903D+03 0.00000000D+00  -5  6  0 0.00000000D+00 0.00000000D+00 0.00000000D+00 0.00000000D+00 0.00000000D+00
  <mgrwgt>
 0.1267789155D+00    6    4    0
 0.332507284333246D+03 0.000000000000000D+00 0.000000000000000D+00 0.332507284333246D+03
 0.332507284333246D+03 0.000000000000000D+00 0.000000000000000D+00 -.332507284333246D+03
 0.242529462449328D+03 0.922248384474352D+02 -.507674642897849D+02 0.179200401503149D+03
 0.194666566442803D+03 -.105344461133814D+03 0.139330489289087D+03 0.302888659270974D+02
 0.227818539774360D+03 0.131196226863790D+02 -.885630249993021D+02 -.209489267430247D+03
 0.000000000000000D+00 0.000000000000000D+00 -.000000000000000D+00 0.000000000000000D+00
 0.549451656201003D+03 0.000000000000000D+00 0.000000000000000D+00 0.549451656201003D+03
 0.417406486947250D+03 0.000000000000000D+00 0.000000000000000D+00 -.417406486947250D+03
 0.222837285129954D+03 0.428339078277901D+02 0.916122728671070D+01 0.179200401503149D+03
 0.265734093574179D+03 -.154208324257734D+03 0.198619661322317D+03 0.302888659270974D+02
 0.214542686385267D+03 -.338296549397562D+02 -.315969232616520D+02 -.209489267430247D+03
 0.263744078058853D+03 0.145204071369700D+03 -.176183965347375D+03 0.132045169253752D+03
 0.332507284333246D+03 0.000000000000000D+00 0.000000000000000D+00 0.332507284333246D+03
 0.332507284333246D+03 0.000000000000000D+00 0.000000000000000D+00 -.332507284333246D+03
 0.242529462449328D+03 0.922248384474352D+02 -.507674642897849D+02 0.179200401503149D+03
 0.194666566442803D+03 -.105344461133814D+03 0.139330489289087D+03 0.302888659270974D+02
 0.000000000000000D+00 0.000000000000000D+00 -.000000000000000D+00 0.000000000000000D+00
 0.227818539774360D+03 0.131196226863790D+02 -.885630249993021D+02 -.209489267430247D+03
 0.549451656201003D+03 0.000000000000000D+00 0.000000000000000D+00 0.549451656201003D+03
 0.417406486947250D+03 0.000000000000000D+00 0.000000000000000D+00 -.417406486947250D+03
 0.222837285129954D+03 0.428339078277901D+02 0.916122728671070D+01 0.179200401503149D+03
 0.265734093574179D+03 -.154208324257734D+03 0.198619661322317D+03 0.302888659270974D+02
 0.263744078058853D+03 0.145204071369700D+03 -.176183965347375D+03 0.132045169253752D+03
 0.214542686385267D+03 -.338296549397562D+02 -.315969232616520D+02 -.209489267430247D+03
0.171962550034D-02 0.000000000000D+00 0.000000000000D+00 0.326355238806D-05 0.000000000000D+00  6 -2 1 25 -24 21 21 2 0.43194276D-01 0.60582810D-01 0.49561968D+05 0.49561968D+05 0.49561968D+05 0.11926604D+01  1  2  2  1  6  1       -2 0.688871309104D-01 0.100000000000D+01
-.211929341675D-05 0.907471307894D-04 -.660381470908D-05 0.326355238806D-05 0.000000000000D+00  6 -2 1 25 -24 21 21 4 0.43194276D-01 0.60582810D-01 0.49561968D+05 0.49561968D+05 0.49561968D+05 0.11926604D+01  1  2  3  1  6  1       -2 -.120761615138D-03 0.100000000000D+01
0.691320463592D-04 0.000000000000D+00 0.000000000000D+00 0.326355238806D-05 0.000000000000D+00  6 -2 1 25 -24 21 21 4 0.43194276D-01 0.60582810D-01 0.49561968D+05 0.49561968D+05 0.49561968D+05 0.11926604D+01  1  2 15  1  6  1       -2 0.393928349427D-02 0.100000000000D+01
-.559916589025D-03 0.000000000000D+00 -.854216920659D-03 0.326355238806D-05 0.000000000000D+00  6 -2 1 25 -24 21 21 4 0.85985805D-01 0.60582810D-01 0.49561968D+05 0.49561968D+05 0.49561968D+05 0.11926604D+01  1  2  5  1  6  1       -2 -.760445672510D-02 0.100000000000D+01
0.105651260965D-02 0.000000000000D+00 0.685287451803D-03 0.326355238806D-05 0.000000000000D+00  6 -2 1 25 -24 21 21 4 0.43194276D-01 0.60582810D-01 0.49561968D+05 0.49561968D+05 0.49561968D+05 0.11926604D+01  1  2  6  1  6  1       -2 0.602022202998D-01 0.100000000000D+01
0.933864291868D-05 0.000000000000D+00 -.636480611466D-04 0.326355238806D-05 0.000000000000D+00  6 21 1 25 -24 2 21 4 0.85985805D-01 0.60582810D-01 0.49561968D+05 0.49561968D+05 0.49561968D+05 0.11926604D+01  3  4  5  4  5  1       -2 0.147549911115D-02 0.100000000000D+01
  </mgrwgt>
  </event>
  <event>
  5     66 0.49582427E-03 0.27665615E+02 0.75467711E-02 0.11693259E+00
       -2 -1    0    0    0  501 0.00000000E+00 0.00000000E+00 0.32754511E+02 0.32756074E+02 0.32000000E+00 0.0000E+00 0.9000E+01
        1 -1    0    0  502    0 0.00000000E+00 0.00000000E+00 -.74585936E+03 0.74585943E+03 0.32000000E+00 0.0000E+00 0.9000E+01
       25  1    1    2    0    0 0.28139186E+01 -.75572913E+02 -.48309386E+03 0.50470176E+03 0.12500000E+03 0.0000E+00 0.9000E+01
      -24  1    1    2    0    0 0.23789614E+02 0.83145459E+02 -.20516376E+03 0.23672452E+03 0.80419002E+02 0.0000E+00 0.9000E+01
       21  1    1    2  502  501 -.26603532E+02 -.75725458E+01 -.24847219E+02 0.37189221E+02 0.75000000E+00 0.0000E+00 0.9000E+01
#aMCatNLO 1  0  0  2  5 0.60645156D+02 0.00000000D+00  -5  6  0 0.00000000D+00 0.00000000D+00 0.00000000D+00 0.00000000D+00 0.00000000D+00
  <mgrwgt>
 0.1564451899D+00    4    2    0
 0.156303850673309D+03 0.000000000000000D+00 0.000000000000000D+00 0.156303850673309D+03
 0.156303850673309D+03 0.000000000000000D+00 0.000000000000000D+00 -.156303850673309D+03
 0.155057559860869D+03 0.281679159850708D+01 -.755720950172803D+02 -.519496969172752D+02
 0.121603648929215D+03 0.237918667621304D+02 0.831460999537307D+02 0.289983554186504D+02
 0.359464925565346D+02 -.266086583606375D+02 -.757400493645042D+01 0.229513414986248D+02
 0.000000000000000D+00 -.000000000000000D+00 -.000000000000000D+00 0.000000000000000D+00
 0.289875118201157D+03 0.000000000000000D+00 0.000000000000000D+00 0.289875118201157D+03
 0.166255125177860D+03 0.000000000000000D+00 0.000000000000000D+00 -.166255125177860D+03
 0.147783007638796D+03 0.230362185158344D+02 -.546386216285010D+02 -.519496969172752D+02
 0.138679275060125D+03 0.411698937645284D+02 0.101137829753572D+03 0.289983554186504D+02
 0.319735976311538D+02 -.220739115428428D+02 -.287911411569195D+01 0.229513414986248D+02
 0.137694363048942D+03 -.421322007375199D+02 -.436200940093789D+02 0.123619993023297D+03
0.200350345985D-03 0.000000000000D+00 0.000000000000D+00 0.254258497774D-04 0.000000000000D+00  6 -2 1 25 -24 21 21 2 0.50392810D-02 0.11474772D+00 0.21295159D+05 0.21295159D+05 0.21295159D+05 0.12308372D+01  1  2  2  2  6  2        1 0.129153226898D+00 0.100000000000D+01
0.273661666437D-04 0.105727782283D-04 -.769398082041D-06 0.254258497774D-04 0.000000000000D+00  6 -2 1 25 -24 21 21 4 0.50392810D-02 0.11474772D+00 0.21295159D+05 0.21295159D+05 0.21295159D+05 0.12308372D+01  1  2  3  2  6  2        1 0.267257779731D-01 0.100000000000D+01
0.584571769345D-05 0.000000000000D+00 0.000000000000D+00 0.254258497774D-04 0.000000000000D+00  6 -2 1 25 -24 21 21 4 0.50392810D-02 0.11474772D+00 0.21295159D+05 0.21295159D+05 0.21295159D+05 0.12308372D+01  1  2 15  2  6  2        1 0.570892354791D-02 0.100000000000D+01
-.526596607432D-05 0.000000000000D+00 0.000000000000D+00 0.254258497774D-04 0.000000000000D+00  6 -2 1 25 -24 21 21 4 0.50392810D-02 0.11474772D+00 0.21295159D+05 0.21295159D+05 0.21295159D+05 0.12308372D+01  1  2  4  2  6  2        1 -.514273854823D-02 0.100000000000D+01
  </mgrwgt>
  </event>
  <event>
  5     66 -.49582427E-03 0.30470519E+02 0.75467711E-02 0.11195322E+00
       -2 -1    0    0    0  501 0.00000000E+00 0.00000000E+00 0.13283335E+03 0.13283374E+03 0.32000000E+00 0.0000E+00 0.9000E+01
        1 -1    0    0  502    0 -.00000000E+00 -.00000000E+00 -.52832381E+03 0.52832390E+03 0.32000000E+00 0.0000E+00 0.9000E+01
       25  1    1    2    0    0 -.10386290E+03 -.17345816E+03 -.13004097E+03 0.27094444E+03 0.12500000E+03 0.0000E+00 0.9000E+01
      -24  1    1    2    0    0 0.12528599E+03 0.15179330E+03 -.28382189E+03 0.35462637E+03 0.80419002E+02 0.0000E+00 0.9000E+01
       21  1    1    2  502  501 -.21423088E+02 0.21664860E+02 0.18372402E+02 0.35586831E+02 0.75000000E+00 0.0000E+00 0.9000E+01
#aMCatNLO 1  0  0  5  2 0.28434871D+02 0.00000000D+00  -5  6  0 0.00000000D+00 0.00000000D+00 0.00000000D+00 0.00000000D+00 0.00000000D+00
  <mgrwgt>
 -.1018655327D-01    1    2    0
 0.264913537311070D+03 0.000000000000000D+00 0.000000000000000D+00 0.264913537311070D+03
 0.264913537311070D+03 -.000000000000000D+00 -.000000000000000D+00 -.264913537311070D+03
 0.241035223588514D+03 -.103862086004451D+03 -.173458982107076D+03 0.399703343436823D+02
 0.230670370948140D+03 0.125286762598965D+03 0.151792515937762D+03 -.894643130065659D+02
 0.581214800854858D+02 -.214246765945140D+02 0.216664661693142D+02 0.494939786628835D+02
 0.000000000000000D+00 0.000000000000000D+00 0.000000000000000D+00 0.000000000000000D+00
 0.264913537311070D+03 0.000000000000000D+00 0.000000000000000D+00 0.264913537311070D+03
 0.264913537311070D+03 -.000000000000000D+00 -.000000000000000D+00 -.264913537311070D+03
 0.241065300677152D+03 -.104191703779437D+03 -.173125644409350D+03 0.407317971853790D+02
 0.230427932095529D+03 0.124971504288614D+03 0.152111332116185D+03 -.887360225226010D+02
 0.456487484426671D+02 -.201298403724716D+02 0.119013848750020D+02 0.392040150879701D+02
 0.126850934067920D+02 -.649960136704862D+00 0.911292741816245D+01 0.880021024925170D+01
-.688238268006D-04 0.000000000000D+00 0.000000000000D+00 0.160215497940D-04 0.000000000000D+00  6 -2 1 25 -24 21 21 4 0.20435938D-01 0.81280623D-01 0.57788102D+05 0.57788102D+05 0.57788102D+05 0.11861053D+01  1  2 14  3  6  5       21 -.101865532714D-01 0.100000000000D+01
  </mgrwgt>
  </event>
  <event>
  5     66 0.49582427E-03 0.33051746E+02 0.75467711E-02 0.10928351E+00
       -2 -1    0    0    0  501 0.00000000E+00 0.00000000E+00 0.19514101E+03 0.19514127E+03 0.32000000E+00 0.0000E+00 0.9000E+01
        1 -1    0    0  502    0 -.00000000E+00 -.00000000E+00 -.53047049E+03 0.53047059E+03 0.32000000E+00 0.0000E+00 0.9000E+01
       25  1    1    2    0    0 0.23287327E+03 0.20804909E+02 -.33652872E+03 0.42841497E+03 0.12500000E+03 0.0000E+00 0.9000E+01
      -24  1    1    2    0    0 -.23349479E+03 0.12239387E+02 -.33211636E+02 0.24947915E+03 0.80419002E+02 0.0000E+00 0.9000E+01
       21  1    1    2  502  501 0.62152198E+00 -.33044296E+02 0.34410877E+02 0.47717741E+02 0.75000000E+00 0.0000E+00 0.9000E+01
#aMCatNLO 1  0  0  5  2 0.32824895D+02 0.00000000D+00  -5  6  0 0.00000000D+00 0.00000000D+00 0.00000000D+00 0.00000000D+00 0.00000000D+00
  <mgrwgt>
 0.1485532159D+00    9    2    0
 0.321740077909273D+03 0.000000000000000D+00 0.000000000000000D+00 0.321740077909273D+03
 0.321740077909273D+03 -.000000000000000D+00 -.000000000000000D+00 -.321740077909273D+03
 0.307725965713009D+03 0.232873251038306D+03 0.208057728832614D+02 -.156228802528804D+03
 0.264014201796461D+03 -.233494803201704D+03 0.122401280011071D+02 0.925561393974797D+02
 0.717399883090764D+02 0.621552163398414D+00 -.330459008843685D+02 0.636726631313241D+02
 0.000000000000000D+00 0.000000000000000D+00 0.000000000000000D+00 -.000000000000000D+00
 0.321740077909273D+03 0.000000000000000D+00 0.000000000000000D+00 0.321740077909273D+03
 0.321740077909273D+03 -.000000000000000D+00 -.000000000000000D+00 -.321740077909273D+03
 0.298320218220805D+03 0.233055186977146D+03 0.111328325312325D+02 -.137591033364052D+03
 0.269816965194660D+03 -.233334546315144D+03 0.371979213686373D+01 0.108973076467769D+03
 0.419528164757990D+02 -.251585453152196D+02 0.633422872526465D+01 0.329691363904205D+02
 0.333901559272812D+02 0.254379046532174D+02 -.211868533933609D+02 -.435117949413798D+01
0.322289432005D-02 0.000000000000D+00 0.000000000000D+00 0.114836881129D-04 0.000000000000D+00  6 -2 1 25 -24 21 21 2 0.30021722D-01 0.81610872D-01 0.74373187D+05 0.74373187D+05 0.74373187D+05 0.11755718D+01  1  2  2  3  6  5       21 0.167626368505D+00 0.100000000000D+01
0.666807734890D-03 0.170076805866D-03 -.123767627966D-04 0.114836881129D-04 0.000000000000D+00  6 -2 1 25 -24 21 21 4 0.30021722D-01 0.81610872D-01 0.74373187D+05 0.74373187D+05 0.74373187D+05 0.11755718D+01  1  2  3  3  6  5       21 0.479286509872D-01 0.100000000000D+01
0.848441590023D-04 0.000000000000D+00 0.000000000000D+00 0.114836881129D-04 0.000000000000D+00  6 -2 1 25 -24 21 21 4 0.30021722D-01 0.81610872D-01 0.74373187D+05 0.74373187D+05 0.74373187D+05 0.11755718D+01  1  2 15  3  6  5       21 0.609840869017D-02 0.100000000000D+01
0.117513856616D-02 0.000000000000D+00 0.000000000000D+00 0.114116276698D-04 0.000000000000D+00  6 -2 1 25 -24 21 21 4 0.30021722D-01 0.81610872D-01 0.81389410D+05 0.81389410D+05 0.81389410D+05 0.11718776D+01  1  2 12  3  6  5       21 0.833539156830D-01 0.100000000000D+01
-.231024929569D-02 0.000000000000D+00 0.000000000000D+00 0.114836881129D-04 0.000000000000D+00  6 -2 1 25 -24 21 21 4 0.30021722D-01 0.81610872D-01 0.74373187D+05 0.74373187D+05 0.74373187D+05 0.11755718D+01  1  2  4  3  6  5       21 -.166055560535D+00 0.100000000000D+01
0.338406827414D-04 0.000000000000D+00 0.000000000000D+00 0.114116276698D-04 0.000000000000D+00  6 -2 1 25 -24 1 -1 4 0.30021722D-01 0.81610872D-01 0.81389410D+05 0.81389410D+05 0.81389410D+05 0.11718776D+01  1  2 12  6  6  5       21 0.240035813402D-02 0.100000000000D+01
0.338406827414D-04 0.000000000000D+00 0.000000000000D+00 0.114116276698D-04 0.000000000000D+00  6 -2 1 25 -24 2 -2 4 0.30021722D-01 0.81610872D-01 0.81389410D+05 0.81389410D+05 0.81389410D+05 0.11718776D+01  1  2 12  7  6  5       21 0.240035813402D-02 0.100000000000D+01
0.338406827414D-04 0.000000000000D+00 0.000000000000D+00 0.114116276698D-04 0.000000000000D+00  6 -2 1 25 -24 3 -3 4 0.30021722D-01 0.81610872D-01 0.81389410D+05 0.81389410D+05 0.81389410D+05 0.11718776D+01  1  2 12  8  6  5       21 0.240035813402D-02 0.100000000000D+01
0.338406827414D-04 0.000000000000D+00 0.000000000000D+00 0.114116276698D-04 0.000000000000D+00  6 -2 1 25 -24 4 -4 4 0.30021722D-01 0.81610872D-01 0.81389410D+05 0.81389410D+05 0.81389410D+05 0.11718776D+01  1  2 12  8  6  5       21 0.240035813402D-02 0.100000000000D+01
  </mgrwgt>
  </event>
  <event>
  5     66 0.49582427E-03 0.23919822E+02 0.75467711E-02 0.11372237E+00
       -2 -1    0    0    0  501 0.00000000E+00 0.00000000E+00 0.38443977E+02 0.38445309E+02 0.32000000E+00 0.0000E+00 0.9000E+01
        1 -1    0    0  502    0 0.00000000E+00 0.00000000E+00 -.80813263E+03 0.80813269E+03 0.32000000E+00 0.0000E+00 0.9000E+01
       25  1    1    2    0    0 0.11473952E+03 0.57324050E+01 -.35152530E+03 0.39037553E+03 0.12500000E+03 0.0000E+00 0.9000E+01
      -24  1    1    2    0    0 -.13534246E+03 -.17863061E+02 -.36497444E+03 0.39788217E+03 0.80419002E+02 0.0000E+00 0.9000E+01
       21  1    1    2  502  501 0.20602934E+02 0.12130656E+02 -.53188912E+02 0.58320293E+02 0.75000000E+00 0.0000E+00 0.9000E+01
#aMCatNLO 1  0  0  1  5 0.71779221D+02 0.00000000D+00  -5  6  0 0.00000000D+00 0.00000000D+00 0.00000000D+00 0.00000000D+00 0.00000000D+00
  <mgrwgt>
 0.3375819790D+00    4    2    0
 0.176262368595823D+03 0.000000000000000D+00 0.000000000000000D+00 0.176262368595823D+03
 0.176262368595823D+03 0.000000000000000D+00 0.000000000000000D+00 -.176262368595823D+03
 0.169965680357838D+03 0.114734636822879D+03 0.572952887152604D+01 0.815279777347593D+01
 0.158635930896565D+03 -.135347015059560D+03 -.178657450129162D+02 -.775521029050180D+01
 0.239231259372428D+02 0.206123782366815D+02 0.121362161413902D+02 -.397587482974118D+00
 0.000000000000000D+00 0.000000000000000D+00 0.000000000000000D+00 -.000000000000000D+00
 0.199853481555741D+03 0.000000000000000D+00 0.000000000000000D+00 0.199853481555741D+03
 0.244364863481338D+03 0.000000000000000D+00 0.000000000000000D+00 -.244364863481338D+03
 0.152763493214889D+03 0.867601432817739D+02 -.108579134923080D+02 0.815279777347593D+01
 0.187451085928562D+03 -.165346190249259D+03 -.356537199297992D+02 -.775521029050180D+01
 0.195435992945817D+02 0.168446382124700D+02 0.990213921693445D+01 -.397587482974118D+00
 0.844601665990469D+02 0.617414087550148D+02 0.366094942051727D+02 -.445113819255971D+02
0.533487728163D-03 0.000000000000D+00 0.000000000000D+00 0.317845040401D-04 0.000000000000D+00  6 -2 1 25 -24 21 21 2 0.59145653D-02 0.12432820D+00 0.30999960D+05 0.30999960D+05 0.30999960D+05 0.12134067D+01  1  2  2  1  6  1       -2 0.234084586494D+00 0.100000000000D+01
0.151637166365D-03 0.281529208730D-04 -.204873334669D-05 0.317845040401D-04 0.000000000000D+00  6 -2 1 25 -24 21 21 4 0.59145653D-02 0.12432820D+00 0.30999960D+05 0.30999960D+05 0.30999960D+05 0.12134067D+01  1  2  3  1  6  1       -2 0.979640715813D-01 0.100000000000D+01
0.158612386699D-04 0.000000000000D+00 0.000000000000D+00 0.317845040401D-04 0.000000000000D+00  6 -2 1 25 -24 21 21 4 0.59145653D-02 0.12432820D+00 0.30999960D+05 0.30999960D+05 0.30999960D+05 0.12134067D+01  1  2 15  1  6  1       -2 0.102470361170D-01 0.100000000000D+01
-.729629140525D-05 0.000000000000D+00 0.000000000000D+00 0.317845040401D-04 0.000000000000D+00  6 -2 1 25 -24 21 21 4 0.59145653D-02 0.12432820D+00 0.30999960D+05 0.30999960D+05 0.30999960D+05 0.12134067D+01  1  2  4  1  6  1       -2 -.471371518366D-02 0.100000000000D+01
  </mgrwgt>
  </event>
  <event>
  5     66 0.49582427E-03 0.27038404E+02 0.75467711E-02 0.11886186E+00
       -4 -1    0    0    0  501 0.00000000E+00 0.00000000E+00 0.35495000E+03 0.35495339E+03 0.15500000E+01 0.0000E+00 0.9000E+01
        3 -1    0    0  502    0 0.00000000E+00 0.00000000E+00 -.79232670E+02 0.79234248E+02 0.50000000E+00 0.0000E+00 0.9000E+01
       25  1    1    2    0    0 -.51183556E+02 -.76711769E+02 0.11045110E+03 0.19060141E+03 0.12500000E+03 0.0000E+00 0.9000E+01
      -24  1    1    2    0    0 0.78172937E+02 0.78273777E+02 0.90291491E+02 0.16388277E+03 0.80419002E+02 0.0000E+00 0.9000E+01
       21  1    1    2  502  501 -.26989381E+02 -.15620081E+01 0.74974744E+02 0.79703459E+02 0.75000000E+00 0.0000E+00 0.9000E+01
#aMCatNLO 1  0  0  5  2 0.92057073D+00 0.00000000D+00  -5  6  0 0.00000000D+00 0.00000000D+00 0.00000000D+00 0.00000000D+00 0.00000000D+00
  <mgrwgt>
 0.2732486983D-01   13    2    0
 0.167704244614024D+03 0.000000000000000D+00 0.000000000000000D+00 0.167704244614024D+03
 0.167704244614024D+03 -.000000000000000D+00 -.000000000000000D+00 -.167704244614024D+03
 0.155939161296921D+03 -.511815109349068D+02 -.767116508611796D+02 -.137039259542539D+02
 0.137925542083154D+03 0.781747456887620D+02 0.782738820116213D+02 -.178366963277824D+02
 0.415437858479729D+02 -.269932347538552D+02 -.156223115044165D+01 0.315406222820363D+02
 0.000000000000000D+00 0.000000000000000D+00 0.000000000000000D+00 0.000000000000000D+00
 0.167704244614024D+03 0.000000000000000D+00 0.000000000000000D+00 0.167704244614024D+03
 0.167704244614024D+03 -.000000000000000D+00 -.000000000000000D+00 -.167704244614024D+03
 0.156040807719036D+03 -.515771429036780D+02 -.767345480275015D+02 -.132416442528018D+02
 0.137663970781405D+03 0.778252616437088D+02 0.782536556524337D+02 -.174283368125506D+02
 0.407286912415460D+02 -.271414424818252D+02 -.169276049143956D+01 0.303200091057635D+02
 0.975019486060754D+00 0.893323741794377D+00 0.173652866507320D+00 0.349971959588854D+00
0.470045280359D-03 0.000000000000D+00 0.000000000000D+00 0.274750601844D-04 0.000000000000D+00  6 -4 3 25 -24 21 21 2 0.54608074D-01 0.12190023D-01 0.25462840D+05 0.25462840D+05 0.25462840D+05 0.12224444D+01  1  2  2  3  6  5       21 0.241982090502D-01 0.100000000000D+01
0.724795470724D-04 0.248049709226D-04 -.180509764234D-05 0.274750601844D-04 0.000000000000D+00  6 -4 3 25 -24 21 21 4 0.54608074D-01 0.12190023D-01 0.25462840D+05 0.25462840D+05 0.25462840D+05 0.12224444D+01  1  2  3  3  6  5       21 0.557592912224D-02 0.100000000000D+01
0.237555912007D-04 0.000000000000D+00 0.000000000000D+00 0.274750601844D-04 0.000000000000D+00  6 -4 3 25 -24 21 21 4 0.54608074D-01 0.12190023D-01 0.25462840D+05 0.25462840D+05 0.25462840D+05 0.12224444D+01  1  2 15  3  6  5       21 0.182754305376D-02 0.100000000000D+01
-.232111586914D-02 0.000000000000D+00 0.000000000000D+00 0.274750601844D-04 0.000000000000D+00  6 -4 3 25 -24 21 21 4 0.54608074D-01 0.12190023D-01 0.25462840D+05 0.25462840D+05 0.25462840D+05 0.12224444D+01  1  2  4  3  6  5       21 -.178565927818D+00 0.100000000000D+01
0.223082695500D-02 0.000000000000D+00 0.000000000000D+00 0.274750601844D-04 0.639904530511D-04  6 -4 3 25 -24 21 21 4 0.54608074D-01 0.12190023D-01 0.25622160D+05 0.25622160D+05 0.25622160D+05 0.12221547D+01  1  2 11  3  6  5       21 0.171539966781D+00 0.100000000000D+01
0.229459903241D-10 0.000000000000D+00 0.000000000000D+00 0.274620396039D-04 0.000000000000D+00  6 -4 3 25 -24 3 -3 4 0.54608074D-01 0.12190023D-01 0.25622160D+05 0.25622160D+05 0.25622160D+05 0.12221547D+01  1  2 12  6  6  5       21 0.176443735769D-08 0.100000000000D+01
0.933424880144D-05 0.000000000000D+00 0.000000000000D+00 0.274620396039D-04 0.359350476901D-06  6 -4 3 25 -24 3 -3 4 0.54608074D-01 0.12190023D-01 0.25622160D+05 0.25622160D+05 0.25622160D+05 0.12221547D+01  1  2 11  6  6  5       21 0.717759271169D-03 0.100000000000D+01
0.229459903241D-10 0.000000000000D+00 0.000000000000D+00 0.274620396039D-04 0.000000000000D+00  6 -4 3 25 -24 4 -4 4 0.54608074D-01 0.12190023D-01 0.25622160D+05 0.25622160D+05 0.25622160D+05 0.12221547D+01  1  2 12  7  6  5       21 0.176443735769D-08 0.100000000000D+01
0.775428077926D-05 0.000000000000D+00 0.000000000000D+00 0.274620396039D-04 0.407678905915D-06  6 -4 3 25 -24 4 -4 4 0.54608074D-01 0.12190023D-01 0.25622160D+05 0.25622160D+05 0.25622160D+05 0.12221547D+01  1  2 11  7  6  5       21 0.596267256097D-03 0.100000000000D+01
0.229459903241D-10 0.000000000000D+00 0.000000000000D+00 0.274620396039D-04 0.000000000000D+00  6 -4 3 25 -24 1 -1 4 0.54608074D-01 0.12190023D-01 0.25622160D+05 0.25622160D+05 0.25622160D+05 0.12221547D+01  1  2 12  8  6  5       21 0.176443735769D-08 0.100000000000D+01
0.229459903241D-10 0.000000000000D+00 0.000000000000D+00 0.274620396039D-04 0.000000000000D+00  6 -4 3 25 -24 2 -2 4 0.54608074D-01 0.12190023D-01 0.25622160D+05 0.25622160D+05 0.25622160D+05 0.12221547D+01  1  2 12  8  6  5       21 0.176443735769D-08 0.100000000000D+01
0.933163168619D-05 0.000000000000D+00 0.000000000000D+00 0.274620396039D-04 0.359141242929D-06  6 -4 3 25 -24 1 -1 4 0.54608074D-01 0.12190023D-01 0.25622160D+05 0.25622160D+05 0.25622160D+05 0.12221547D+01  1  2 11  8  6  5       21 0.717558027472D-03 0.100000000000D+01
0.933163168619D-05 0.000000000000D+00 0.000000000000D+00 0.274620396039D-04 0.359141242929D-06  6 -4 3 25 -24 2 -2 4 0.54608074D-01 0.12190023D-01 0.25622160D+05 0.25622160D+05 0.25622160D+05 0.12221547D+01  1  2 11  8  6  5       21 0.717558027472D-03 0.100000000000D+01
  </mgrwgt>
  </event>
  <event>
  6     66 0.49582427E-03 0.31395913E+02 0.75467711E-02 0.11758738E+00
       -2 -1    0    0    0  501 0.00000000E+00 0.00000000E+00 0.42526580E+02 0.42527784E+02 0.32000000E+00 0.0000E+00 0.9000E+01
        1 -1    0    0  502    0 -.00000000E+00 -.00000000E+00 -.95387288E+03 0.95387294E+03 0.32000000E+00 0.0000E+00 0.9000E+01
       25  1    1    2    0    0 -.12604222E+03 0.26005140E+02 -.37794770E+03 0.41836870E+03 0.12500000E+03 0.0000E+00 0.9000E+01
      -24  1    1    2    0    0 0.92305894E+02 -.11104979E+01 -.51483163E+03 0.52918846E+03 0.80419002E+02 0.0000E+00 0.9000E+01
       21  1    1    2  503  501 0.28677163E+02 -.20269146E+02 -.21680486E+02 0.41277402E+02 0.75000000E+00 0.0000E+00 0.9000E+01
       21  1    1    2  502  503 0.50591588E+01 -.46254965E+01 0.31135054E+01 0.75661563E+01 0.75000000E+00 0.0000E+00 0.9000E+01
#aMCatNLO 2  0  0  5  2 0.78875538D+01 0.00000000D+00  -5  6  0 0.00000000D+00 0.00000000D+00 0.00000000D+00 0.00000000D+00 0.00000000D+00
  <mgrwgt>
 0.1924860683D+00    3    2    0
 0.201408983282939D+03 0.000000000000000D+00 0.000000000000000D+00 0.201408983282939D+03
 0.201408983282939D+03 -.000000000000000D+00 -.000000000000000D+00 -.201408983282939D+03
 0.180032853942207D+03 -.126398570492329D+03 0.262681004914365D+02 0.109643409580083D+02
 0.144324687746147D+03 0.920201297548390D+02 -.899627327816406D+00 -.767716479517402D+02
 0.784604248775248D+02 0.343784407374902D+02 -.253684731636201D+02 0.658073069937319D+02
 0.000000000000000D+00 0.000000000000000D+00 0.000000000000000D+00 0.000000000000000D+00
 0.201408983282939D+03 0.000000000000000D+00 0.000000000000000D+00 0.201408983282939D+03
 0.201408983282939D+03 -.000000000000000D+00 -.000000000000000D+00 -.201408983282939D+03
 0.179788395773710D+03 -.126043514723363D+03 0.260060984182367D+02 0.116439896996905D+02
 0.144219043666788D+03 0.923048520065625D+02 -.110972902664234D+01 -.762266318246218D+02
 0.526142838884467D+02 0.285232252468057D+02 -.201490356061575D+02 0.393535875716032D+02
 0.261962432369336D+02 0.521543746999515D+01 -.474733378543689D+01 0.252290545533282D+02
-.220893049530D-03 0.000000000000D+00 0.000000000000D+00 0.104076199356D-04 0.000000000000D+00  6 -2 1 25 -24 21 21 4 0.65426476D-02 0.14674977D+00 0.29551965D+05 0.29551965D+05 0.29551965D+05 0.12155849D+01  1  2 13  3  6  5       21 -.945999718306D-01 0.100000000000D+01
-.238043721159D-03 0.000000000000D+00 0.000000000000D+00 0.104076199356D-04 0.000000000000D+00  6 -2 1 25 -24 21 21 4 0.65426476D-02 0.14674977D+00 0.29551965D+05 0.29551965D+05 0.29551965D+05 0.12155849D+01  1  2 13  3  6  5       21 -.101944942876D+00 0.100000000000D+01
0.908396044194D-03 0.000000000000D+00 0.000000000000D+00 0.104038874698D-04 0.283645065377D-05  6 -2 1 25 -24 21 21 4 0.65426476D-02 0.14674977D+00 0.29551965D+05 0.29551965D+05 0.29551965D+05 0.12155849D+01  1  2  1  3  6  5       21 0.389030982978D+00 0.100000000000D+01
  </mgrwgt>
  </event>
  <event>
  5     66 0.49582427E-03 0.22781917E+02 0.75467711E-02 0.11872929E+00
       -2 -1    0    0    0  501 0.00000000E+00 0.00000000E+00 0.43818224E+02 0.43819392E+02 0.32000000E+00 0.0000E+00 0.9000E+01
        1 -1    0    0  502    0 0.00000000E+00 0.00000000E+00 -.57856146E+03 0.57856155E+03 0.32000000E+00 0.0000E+00 0.9000E+01
       25  1    1    2    0    0 -.14271833E+02 -.62511123E+02 -.10781368E+03 0.17708787E+03 0.12500000E+03 0.0000E+00 0.9000E+01
      -24  1    1    2    0    0 0.34429162E+02 0.51918168E+02 -.37565037E+03 0.38918027E+03 0.80419002E+02 0.0000E+00 0.9000E+01
       21  1    1    2  502  501 -.20157329E+02 0.10592956E+02 -.51279187E+02 0.56112798E+02 0.75000000E+00 0.0000E+00 0.9000E+01
#aMCatNLO 1  0  0  2  5 0.11371524D+02 0.00000000D+00  -5  6  0 0.00000000D+00 0.00000000D+00 0.00000000D+00 0.00000000D+00 0.00000000D+00
  <mgrwgt>
 0.2696845461D+00    7    4    0
 0.159222883301293D+03 0.000000000000000D+00 0.000000000000000D+00 0.159222883301293D+03
 0.159222883301293D+03 0.000000000000000D+00 0.000000000000000D+00 -.159222883301293D+03
 0.165064012119664D+03 -.142665342306939D+02 -.625139076557042D+02 0.866579797116166D+02
 0.129823405074113D+03 0.344333295766199D+02 0.519159776185540D+02 -.806596406689517D+02
 0.235583494088093D+02 -.201667953459260D+02 0.105979300371501D+02 -.599833904266489D+01
 0.000000000000000D+00 0.000000000000000D+00 0.000000000000000D+00 -.000000000000000D+00
 0.186627496187845D+03 0.000000000000000D+00 0.000000000000000D+00 0.186627496187845D+03
 0.190004891729064D+03 0.000000000000000D+00 0.000000000000000D+00 -.190004891729064D+03
 0.173737561171091D+03 -.402922300093729D+02 -.736659413491158D+02 0.866579797116166D+02
 0.122880497429845D+03 0.150213923037996D+02 0.435979453030363D+02 -.806596406689517D+02
 0.263072432296176D+02 -.239973169436444D+02 0.895654813964504D+01 -.599833904266489D+01
 0.537070860863553D+02 0.492681546492177D+02 0.211114479064345D+02 -.337739554121859D+01
 0.159222883301293D+03 0.000000000000000D+00 0.000000000000000D+00 0.159222883301293D+03
 0.159222883301293D+03 0.000000000000000D+00 0.000000000000000D+00 -.159222883301293D+03
 0.165064012119664D+03 -.142665342306939D+02 -.625139076557042D+02 0.866579797116166D+02
 0.129823405074113D+03 0.344333295766199D+02 0.519159776185540D+02 -.806596406689517D+02
 0.000000000000000D+00 0.000000000000000D+00 0.000000000000000D+00 -.000000000000000D+00
 0.235583494088093D+02 -.201667953459260D+02 0.105979300371501D+02 -.599833904266489D+01
 0.186627496187845D+03 0.000000000000000D+00 0.000000000000000D+00 0.186627496187845D+03
 0.190004891729064D+03 0.000000000000000D+00 0.000000000000000D+00 -.190004891729064D+03
 0.173737561171091D+03 -.402922300093729D+02 -.736659413491158D+02 0.866579797116166D+02
 0.122880497429845D+03 0.150213923037996D+02 0.435979453030363D+02 -.806596406689517D+02
 0.537070860863553D+02 0.492681546492177D+02 0.211114479064345D+02 -.337739554121859D+01
 0.263072432296176D+02 -.239973169436444D+02 0.895654813964504D+01 -.599833904266489D+01
0.164225465439D-03 0.000000000000D+00 0.000000000000D+00 0.274706210171D-04 0.000000000000D+00  6 -2 1 25 -24 21 21 2 0.67413619D-02 0.89009552D-01 0.17555515D+05 0.17555515D+05 0.17555515D+05 0.12401081D+01  1  2  2  2  6  2        1 0.983359380472D-01 0.100000000000D+01
0.313312941684D-04 0.866641590757D-05 -.630669028846D-06 0.274706210171D-04 0.000000000000D+00  6 -2 1 25 -24 21 21 4 0.67413619D-02 0.89009552D-01 0.17555515D+05 0.17555515D+05 0.17555515D+05 0.12401081D+01  1  2  3  2  6  2        1 0.288515542745D-01 0.100000000000D+01
0.624954906634D-05 0.000000000000D+00 0.000000000000D+00 0.274706210171D-04 0.000000000000D+00  6 -2 1 25 -24 21 21 4 0.67413619D-02 0.89009552D-01 0.17555515D+05 0.17555515D+05 0.17555515D+05 0.12401081D+01  1  2 15  2  6  2        1 0.575492359522D-02 0.100000000000D+01
-.195416923905D-04 0.000000000000D+00 0.000000000000D+00 0.274706210171D-04 0.000000000000D+00  6 -2 1 25 -24 21 21 4 0.67413619D-02 0.89009552D-01 0.17555515D+05 0.17555515D+05 0.17555515D+05 0.12401081D+01  1  2  4  2  6  2        1 -.179950497924D-01 0.100000000000D+01
-.410642579276D-03 0.000000000000D+00 -.176467022401D-03 0.274706210171D-04 0.000000000000D+00  6 -2 1 25 -24 21 21 4 0.67413619D-02 0.12060810D+00 0.17555515D+05 0.17555515D+05 0.17555515D+05 0.12401081D+01  1  2  5  2  6  2        1 -.246207507970D+00 0.100000000000D+01
0.451116735069D-03 0.000000000000D+00 0.168625259347D-03 0.274706210171D-04 0.000000000000D+00  6 -2 1 25 -24 21 21 4 0.67413619D-02 0.89009552D-01 0.17555515D+05 0.17555515D+05 0.17555515D+05 0.12401081D+01  1  2  6  2  6  2        1 0.415412746630D+00 0.100000000000D+01
-.119840065550D-04 0.000000000000D+00 -.688371966833D-05 0.274706210171D-04 0.000000000000D+00  6 -2 21 25 -24 -1 21 4 0.67413619D-02 0.12060810D+00 0.17555515D+05 0.17555515D+05 0.17555515D+05 0.12401081D+01  3  4  5  5  5  2        1 -.144680586879D-01 0.100000000000D+01
  </mgrwgt>
  </event>
  <event>
  5     66 0.49582427E-03 0.20530757E+02 0.75467711E-02 0.12148545E+00
       -2 -1    0    0    0  501 0.00000000E+00 0.00000000E+00 0.10294928E+03 0.10294978E+03 0.32000000E+00 0.0000E+00 0.9000E+01
        1 -1    0    0  502    0 0.00000000E+00 0.00000000E+00 -.19020350E+03 0.19020377E+03 0.32000000E+00 0.0000E+00 0.9000E+01
       25  1    1    2    0    0 -.24144109E+02 -.81019963E+02 -.24035318E+02 0.15280664E+03 0.12500000E+03 0.0000E+00 0.9000E+01
      -24  1    1    2    0    0 0.15649804E+02 0.62342190E+02 -.61074701E+02 0.11970297E+03 0.80419002E+02 0.0000E+00 0.9000E+01
       21  1    1    2  502  501 0.84943050E+01 0.18677773E+02 -.21441973E+01 0.20643946E+02 0.75000000E+00 0.0000E+00 0.9000E+01
#aMCatNLO 1  0  0  2  1 0.33509081D+01 0.00000000D+00  -5  6  0 0.00000000D+00 0.00000000D+00 0.00000000D+00 0.00000000D+00 0.00000000D+00
  <mgrwgt>
 0.2352926059D+00    6    4    0
 0.139933650530598D+03 0.000000000000000D+00 0.000000000000000D+00 0.139933650530598D+03
 0.139933650530598D+03 0.000000000000000D+00 0.000000000000000D+00 -.139933650530598D+03
 0.152571119141434D+03 -.241470774273148D+02 -.810264908546359D+02 0.224626985817054D+02
 0.106341698843378D+03 0.156477344483646D+02 0.623376398721008D+02 -.266553563160354D+02
 0.209544830763842D+02 0.849934297895024D+01 0.186888509825351D+02 0.419265773432993D+01
 0.000000000000000D+00 0.000000000000000D+00 0.000000000000000D+00 0.000000000000000D+00
 0.143233576000733D+03 0.000000000000000D+00 0.000000000000000D+00 0.143233576000733D+03
 0.140796943508282D+03 0.000000000000000D+00 0.000000000000000D+00 -.140796943508282D+03
 0.153273117620475D+03 -.257862284379323D+02 -.818422029302376D+02 0.224626985817054D+02
 0.105849057824724D+03 0.145105127798491D+02 0.617717094351640D+02 -.266553563160354D+02
 0.207651854496380D+02 0.827574930410753D+01 0.185775811486907D+02 0.419265773432993D+01
 0.414315861417791D+01 0.299996635397570D+01 0.149291234638295D+01 0.243663249245095D+01
 0.139933650530598D+03 0.000000000000000D+00 0.000000000000000D+00 0.139933650530598D+03
 0.139933650530598D+03 0.000000000000000D+00 0.000000000000000D+00 -.139933650530598D+03
 0.152571119141434D+03 -.241470774273148D+02 -.810264908546359D+02 0.224626985817054D+02
 0.106341698843378D+03 0.156477344483646D+02 0.623376398721008D+02 -.266553563160354D+02
 0.000000000000000D+00 0.000000000000000D+00 0.000000000000000D+00 0.000000000000000D+00
 0.209544830763842D+02 0.849934297895024D+01 0.186888509825351D+02 0.419265773432993D+01
 0.143233576000733D+03 0.000000000000000D+00 0.000000000000000D+00 0.143233576000733D+03
 0.140796943508282D+03 0.000000000000000D+00 0.000000000000000D+00 -.140796943508282D+03
 0.153273117620475D+03 -.257862284379323D+02 -.818422029302376D+02 0.224626985817054D+02
 0.105849057824724D+03 0.145105127798491D+02 0.617717094351640D+02 -.266553563160354D+02
 0.414315861417791D+01 0.299996635397570D+01 0.149291234638295D+01 0.243663249245095D+01
 0.207651854496380D+02 0.827574930410753D+01 0.185775811486907D+02 0.419265773432993D+01
0.293841228797D-03 0.000000000000D+00 0.000000000000D+00 0.495889255328D-04 0.000000000000D+00  6 -2 1 25 -24 21 21 2 0.15838410D-01 0.29262136D-01 0.18821930D+05 0.18821930D+05 0.18821930D+05 0.12367393D+01  1  2  2  2  6  2        1 0.184945574388D+00 0.100000000000D+01
0.721935076179D-04 0.155064276586D-04 -.112842768875D-05 0.495889255328D-04 0.000000000000D+00  6 -2 1 25 -24 21 21 4 0.15838410D-01 0.29262136D-01 0.18821930D+05 0.18821930D+05 0.18821930D+05 0.12367393D+01  1  2  3  2  6  2        1 0.695001394522D-01 0.100000000000D+01
0.890666344039D-05 0.000000000000D+00 0.000000000000D+00 0.495889255328D-04 0.000000000000D+00  6 -2 1 25 -24 21 21 4 0.15838410D-01 0.29262136D-01 0.18821930D+05 0.18821930D+05 0.18821930D+05 0.12367393D+01  1  2 15  2  6  2        1 0.857437699852D-02 0.100000000000D+01
-.122477034413D-03 0.000000000000D+00 0.000000000000D+00 0.495889255328D-04 0.000000000000D+00  6 -2 1 25 -24 21 21 4 0.15838410D-01 0.29262136D-01 0.18821930D+05 0.18821930D+05 0.18821930D+05 0.12367393D+01  1  2  4  2  6  2        1 -.117907707387D+00 0.100000000000D+01
0.977051096514D-04 0.000000000000D+00 0.000000000000D+00 0.495889255328D-04 0.521721488157D-04  6 -2 1 25 -24 21 21 4 0.16211913D-01 0.29442663D-01 0.19285498D+05 0.19285498D+05 0.19285498D+05 0.12355692D+01  1  2 11  2  6  2        1 0.895502219751D-01 0.100000000000D+01
0.103096616431D-06 0.000000000000D+00 0.000000000000D+00 0.494951357152D-04 0.106979776981D-06  6 -2 21 25 -24 -1 21 4 0.16211913D-01 0.29442663D-01 0.19285498D+05 0.19285498D+05 0.19285498D+05 0.12355692D+01  3  4 11  5  5  2        1 0.630000499818D-03 0.100000000000D+01
  </mgrwgt>
  </event>
  <event>
  5     66 0.49582427E-03 0.26931771E+02 0.75467711E-02 0.11787358E+00
       -2 -1    0    0    0  501 0.00000000E+00 0.00000000E+00 0.74632167E+01 0.74700738E+01 0.32000000E+00 0.0000E+00 0.9000E+01
        1 -1    0    0  502    0 -.00000000E+00 -.00000000E+00 -.40114067E+04 0.40114067E+04 0.32000000E+00 0.0000E+00 0.9000E+01
       25  1    1    2    0    0 0.60313025E+02 0.11451966E+03 -.21962262E+04 0.22035850E+04 0.12500000E+03 0.0000E+00 0.9000E+01
      -24  1    1    2    0    0 -.51475574E+02 -.89085116E+02 -.16607591E+04 0.16658853E+04 0.80419002E+02 0.0000E+00 0.9000E+01
       21  1    1    2  502  501 -.88374514E+01 -.25434545E+02 -.14695816E+03 0.14940643E+03 0.75000000E+00 0.0000E+00 0.9000E+01
#aMCatNLO 1  0  0  5  2 0.48322324D+01 0.00000000D+00  -5  6  0 0.00000000D+00 0.00000000D+00 0.00000000D+00 0.00000000D+00 0.00000000D+00
  <mgrwgt>
 0.1284759025D+00   25    2    0
 0.173065889633829D+03 0.000000000000000D+00 0.000000000000000D+00 0.173065889633829D+03
 0.173065889633829D+03 -.000000000000000D+00 -.000000000000000D+00 -.173065889633829D+03
 0.180197120010630D+03 0.603140962467679D+02 0.114522743527134D+03 -.963083947945674D+01
 0.131168807812702D+03 -.514747943794071D+02 -.890828728972677D+02 -.123542498194804D+02
 0.347658514443256D+02 -.883930186736078D+01 -.254398706298667D+02 0.219850892989371D+02
 0.000000000000000D+00 0.000000000000000D+00 -.000000000000000D+00 0.000000000000000D+00
 0.173065889633829D+03 0.000000000000000D+00 0.000000000000000D+00 0.173065889633829D+03
 0.173065889633829D+03 -.000000000000000D+00 -.000000000000000D+00 -.173065889633829D+03
 0.179479403431880D+03 0.600003880814289D+02 0.113619878655959D+03 -.885058532225341D+01
 0.131655326208175D+03 -.517040283480336D+02 -.897426175912873D+02 -.117840996711737D+02
 0.280268367344690D+02 -.113683782342178D+02 -.181800266700015D+02 0.180485507435468D+02
 0.697021289313408D+01 0.307201850082243D+01 -.569723439467017D+01 0.258613424988041D+01
0.184871381553D-02 0.000000000000D+00 0.000000000000D+00 0.262207895849D-04 0.000000000000D+00  6 -2 1 25 -24 21 21 2 0.11487156D-02 0.61714002D+00 0.28469316D+05 0.28469316D+05 0.28469316D+05 0.12172928D+01  1  2  2  3  6  5       21 0.532586374449D-01 0.100000000000D+01
0.349527695500D-03 0.975593083360D-04 -.709954782915D-05 0.262207895849D-04 0.000000000000D+00  6 -2 1 25 -24 21 21 4 0.11487156D-02 0.61714002D+00 0.28469316D+05 0.28469316D+05 0.28469316D+05 0.12172928D+01  1  2  3  3  6  5       21 0.149207974339D-01 0.100000000000D+01
0.716643821354D-04 0.000000000000D+00 0.000000000000D+00 0.262207895849D-04 0.000000000000D+00  6 -2 1 25 -24 21 21 4 0.11487156D-02 0.61714002D+00 0.28469316D+05 0.28469316D+05 0.28469316D+05 0.12172928D+01  1  2 15  3  6  5       21 0.305924177922D-02 0.100000000000D+01
0.363805218743D-03 0.000000000000D+00 0.000000000000D+00 0.262109066780D-04 0.000000000000D+00  6 -2 1 25 -24 21 21 4 0.11487156D-02 0.61714002D+00 0.28612143D+05 0.28612143D+05 0.28612143D+05 0.12170633D+01  1  2 12  3  6  5       21 0.155159113517D-01 0.100000000000D+01
0.394840544737D-03 0.000000000000D+00 0.000000000000D+00 0.262109066780D-04 0.000000000000D+00  6 -2 1 25 -24 21 21 4 0.11487156D-02 0.61714002D+00 0.28612143D+05 0.28612143D+05 0.28612143D+05 0.12170633D+01  1  2 12  3  6  5       21 0.168395354838D-01 0.100000000000D+01
-.587759834160D-02 0.000000000000D+00 0.000000000000D+00 0.262207895849D-04 0.000000000000D+00  6 -2 1 25 -24 21 21 4 0.11487156D-02 0.61714002D+00 0.28469316D+05 0.28469316D+05 0.28469316D+05 0.12172928D+01  1  2  4  3  6  5       21 -.250905594555D+00 0.100000000000D+01
-.618311406109D-02 0.000000000000D+00 0.000000000000D+00 0.262207895849D-04 0.000000000000D+00  6 -2 1 25 -24 21 21 4 0.11487156D-02 0.61714002D+00 0.28469316D+05 0.28469316D+05 0.28469316D+05 0.12172928D+01  1  2  5  3  6  5       21 -.263947588715D+00 0.100000000000D+01
0.908573046889D-02 0.000000000000D+00 -.000000000000D+00 0.262207895849D-04 0.000000000000D+00  6 -2 1 25 -24 21 21 4 0.11487156D-02 0.61714002D+00 0.28469316D+05 0.28469316D+05 0.28469316D+05 0.12172928D+01  1  2  6  3  6  5       21 0.387855799729D+00 0.100000000000D+01
0.364030701905D-02 0.000000000000D+00 0.000000000000D+00 0.262207895849D-04 0.568996021911D-05  6 -2 1 25 -24 21 21 4 0.11487156D-02 0.61714002D+00 0.28612143D+05 0.28612143D+05 0.28612143D+05 0.12170633D+01  1  2 11  3  6  5       21 0.155255279723D+00 0.100000000000D+01
0.152152140791D-04 0.000000000000D+00 0.000000000000D+00 0.262109066780D-04 0.000000000000D+00  6 -2 1 25 -24 1 -1 4 0.11487156D-02 0.61714002D+00 0.28612143D+05 0.28612143D+05 0.28612143D+05 0.12170633D+01  1  2 12  6  6  5       21 0.648912936611D-03 0.100000000000D+01
0.159320985401D-04 0.000000000000D+00 0.000000000000D+00 0.262109066780D-04 0.000000000000D+00  6 -2 1 25 -24 1 -1 4 0.11487156D-02 0.61714002D+00 0.28612143D+05 0.28612143D+05 0.28612143D+05 0.12170633D+01  1  2 12  6  6  5       21 0.679487307660D-03 0.100000000000D+01
-.125748645888D-03 0.000000000000D+00 0.000000000000D+00 0.262207895849D-04 0.000000000000D+00  6 -2 1 25 -24 1 -1 4 0.11487156D-02 0.61714002D+00 0.28469316D+05 0.28469316D+05 0.28469316D+05 0.12172928D+01  1  2  5  6  6  5       21 -.536801545928D-02 0.100000000000D+01
0.750242315445D-04 0.000000000000D+00 0.000000000000D+00 0.262207895849D-04 0.210310985273D-06  6 -2 1 25 -24 1 -1 4 0.11487156D-02 0.61714002D+00 0.28612143D+05 0.28612143D+05 0.28612143D+05 0.12170633D+01  1  2 11  6  6  5       21 0.319970485827D-02 0.100000000000D+01
0.152152140791D-04 0.000000000000D+00 0.000000000000D+00 0.262109066780D-04 0.000000000000D+00  6 -2 1 25 -24 2 -2 4 0.11487156D-02 0.61714002D+00 0.28612143D+05 0.28612143D+05 0.28612143D+05 0.12170633D+01  1  2 12  7  6  5       21 0.648912936611D-03 0.100000000000D+01
0.159320985401D-04 0.000000000000D+00 0.000000000000D+00 0.262109066780D-04 0.000000000000D+00  6 -2 1 25 -24 2 -2 4 0.11487156D-02 0.61714002D+00 0.28612143D+05 0.28612143D+05 0.28612143D+05 0.12170633D+01  1  2 12  7  6  5       21 0.679487307660D-03 0.100000000000D+01
-.125748645888D-03 0.000000000000D+00 0.000000000000D+00 0.262207895849D-04 0.000000000000D+00  6 -2 1 25 -24 2 -2 4 0.11487156D-02 0.61714002D+00 0.28469316D+05 0.28469316D+05 0.28469316D+05 0.12172928D+01  1  2  5  7  6  5       21 -.536801545928D-02 0.100000000000D+01
0.746641923530D-04 0.000000000000D+00 0.000000000000D+00 0.262207895849D-04 0.216253599982D-06  6 -2 1 25 -24 2 -2 4 0.11487156D-02 0.61714002D+00 0.28612143D+05 0.28612143D+05 0.28612143D+05 0.12170633D+01  1  2 11  7  6  5       21 0.318434956404D-02 0.100000000000D+01
0.152152140791D-04 0.000000000000D+00 0.000000000000D+00 0.262109066780D-04 0.000000000000D+00  6 -2 1 25 -24 3 -3 4 0.11487156D-02 0.61714002D+00 0.28612143D+05 0.28612143D+05 0.28612143D+05 0.12170633D+01  1  2 12  8  6  5       21 0.648912936611D-03 0.100000000000D+01
0.152152140791D-04 0.000000000000D+00 0.000000000000D+00 0.262109066780D-04 0.000000000000D+00  6 -2 1 25 -24 4 -4 4 0.11487156D-02 0.61714002D+00 0.28612143D+05 0.28612143D+05 0.28612143D+05 0.12170633D+01  1  2 12  8  6  5       21 0.648912936611D-03 0.100000000000D+01
0.159320985401D-04 0.000000000000D+00 0.000000000000D+00 0.262109066780D-04 0.000000000000D+00  6 -2 1 25 -24 3 -3 4 0.11487156D-02 0.61714002D+00 0.28612143D+05 0.28612143D+05 0.28612143D+05 0.12170633D+01  1  2 12  8  6  5       21 0.679487307660D-03 0.100000000000D+01
0.159320985401D-04 0.000000000000D+00 0.000000000000D+00 0.262109066780D-04 0.000000000000D+00  6 -2 1 25 -24 4 -4 4 0.11487156D-02 0.61714002D+00 0.28612143D+05 0.28612143D+05 0.28612143D+05 0.12170633D+01  1  2 12  8  6  5       21 0.679487307660D-03 0.100000000000D+01
-.125748645888D-03 0.000000000000D+00 0.000000000000D+00 0.262207895849D-04 0.000000000000D+00  6 -2 1 25 -24 3 -3 4 0.11487156D-02 0.61714002D+00 0.28469316D+05 0.28469316D+05 0.28469316D+05 0.12172928D+01  1  2  5  8  6  5       21 -.536801545928D-02 0.100000000000D+01
-.125748645888D-03 0.000000000000D+00 0.000000000000D+00 0.262207895849D-04 0.000000000000D+00  6 -2 1 25 -24 4 -4 4 0.11487156D-02 0.61714002D+00 0.28469316D+05 0.28469316D+05 0.28469316D+05 0.12172928D+01  1  2  5  8  6  5       21 -.536801545928D-02 0.100000000000D+01
0.750110958008D-04 0.000000000000D+00 0.000000000000D+00 0.262207895849D-04 0.210062975399D-06  6 -2 1 25 -24 3 -3 4 0.11487156D-02 0.61714002D+00 0.28612143D+05 0.28612143D+05 0.28612143D+05 0.12170633D+01  1  2 11  8  6  5       21 0.319914463257D-02 0.100000000000D+01
0.750110958008D-04 0.000000000000D+00 0.000000000000D+00 0.262207895849D-04 0.210062975399D-06  6 -2 1 25 -24 4 -4 4 0.11487156D-02 0.61714002D+00 0.28612143D+05 0.28612143D+05 0.28612143D+05 0.12170633D+01  1  2 11  8  6  5       21 0.319914463257D-02 0.100000000000D+01
  </mgrwgt>
  </event>
  <event>
  5     66 0.49582427E-03 0.49111858E+02 0.75467711E-02 0.11765295E+00
       -2 -1    0    0    0  501 0.00000000E+00 0.00000000E+00 0.83393643E+02 0.83394257E+02 0.32000000E+00 0.0000E+00 0.9000E+01
        1 -1    0    0  502    0 -.00000000E+00 -.00000000E+00 -.36527889E+03 0.36527903E+03 0.32000000E+00 0.0000E+00 0.9000E+01
       25  1    1    2    0    0 -.42939926E+02 -.12169688E+03 -.13276734E+03 0.22339681E+03 0.12500000E+03 0.0000E+00 0.9000E+01
      -24  1    1    2    0    0 0.21146402E+02 0.77690153E+02 -.12948422E+03 0.17238419E+03 0.80419002E+02 0.0000E+00 0.9000E+01
       21  1    1    2  502  501 0.21793524E+02 0.44006729E+02 -.19633692E+02 0.52892289E+02 0.75000000E+00 0.0000E+00 0.9000E+01
#aMCatNLO 1  0  0  5  2 0.10982143D+01 0.00000000D+00  -5  6  0 0.00000000D+00 0.00000000D+00 0.00000000D+00 0.00000000D+00 0.00000000D+00
  <mgrwgt>
 0.3529901593D-01   25    2    0
 0.174533969621264D+03 0.000000000000000D+00 0.000000000000000D+00 0.174533969621264D+03
 0.174533969621264D+03 -.000000000000000D+00 -.000000000000000D+00 -.174533969621264D+03
 0.179929616481666D+03 -.429410890182969D+02 -.121699229798225D+03 0.974819099531119D+01
 0.117009135401021D+03 0.211456459535769D+02 0.776886256334311D+02 -.272261072744264D+02
 0.521291873598404D+02 0.217954430647199D+02 0.440106041647935D+02 0.174779162791151D+02
 0.000000000000000D+00 0.000000000000000D+00 0.000000000000000D+00 0.000000000000000D+00
 0.174533969621264D+03 0.000000000000000D+00 0.000000000000000D+00 0.174533969621264D+03
 0.174533969621264D+03 -.000000000000000D+00 -.000000000000000D+00 -.174533969621264D+03
 0.179909762689341D+03 -.429283692477181D+02 -.121673545310584D+03 0.975839106716130D+01
 0.117020178956246D+03 0.211539185311758D+02 0.777053300948658D+02 -.272194734373322D+02
 0.139765800081808D+02 0.512878569411858D+01 0.117713915978617D+02 0.552038819999772D+01
 0.381614175887602D+02 0.166456650224237D+02 0.321968236178569D+02 0.119406941701732D+02
0.146290568407D-04 0.000000000000D+00 0.000000000000D+00 0.805438371016D-05 0.000000000000D+00  6 -2 1 25 -24 21 21 2 0.12829849D-01 0.56196811D-01 0.29339363D+05 0.29339363D+05 0.29339363D+05 0.12159147D+01  1  2  2  3  6  5       21 0.562809206066D-02 0.100000000000D+01
0.797762522714D-06 0.771996538889D-06 -.561794301873D-07 0.805438371016D-05 0.000000000000D+00  6 -2 1 25 -24 21 21 4 0.12829849D-01 0.56196811D-01 0.29339363D+05 0.29339363D+05 0.29339363D+05 0.12159147D+01  1  2  3  3  6  5       21 0.453758416470D-03 0.100000000000D+01
0.646277000752D-06 0.000000000000D+00 0.000000000000D+00 0.805438371016D-05 0.000000000000D+00  6 -2 1 25 -24 21 21 4 0.12829849D-01 0.56196811D-01 0.29339363D+05 0.29339363D+05 0.29339363D+05 0.12159147D+01  1  2 15  3  6  5       21 0.367595142806D-03 0.100000000000D+01
0.336798498083D-08 0.000000000000D+00 0.000000000000D+00 0.805450385894D-05 0.000000000000D+00  6 -2 1 25 -24 21 21 4 0.12829849D-01 0.56196811D-01 0.29333541D+05 0.29333541D+05 0.29333541D+05 0.12159237D+01  1  2 12  3  6  5       21 0.191572240307D-05 0.100000000000D+01
0.336952562850D-08 0.000000000000D+00 0.000000000000D+00 0.805450385894D-05 0.000000000000D+00  6 -2 1 25 -24 21 21 4 0.12829849D-01 0.56196811D-01 0.29333541D+05 0.29333541D+05 0.29333541D+05 0.12159237D+01  1  2 12  3  6  5       21 0.191659872920D-05 0.100000000000D+01
-.159049621137D-02 0.000000000000D+00 0.000000000000D+00 0.805438371016D-05 0.000000000000D+00  6 -2 1 25 -24 21 21 4 0.12829849D-01 0.56196811D-01 0.29339363D+05 0.29339363D+05 0.29339363D+05 0.12159147D+01  1  2  4  3  6  5       21 -.904656488269D+00 0.100000000000D+01
-.329185097075D-03 0.000000000000D+00 0.000000000000D+00 0.805438371016D-05 0.000000000000D+00  6 -2 1 25 -24 21 21 4 0.12829849D-01 0.56196811D-01 0.29339363D+05 0.29339363D+05 0.29339363D+05 0.12159147D+01  1  2  5  3  6  5       21 -.187236808099D+00 0.100000000000D+01
0.162878161681D-02 0.000000000000D+00 -.000000000000D+00 0.805438371016D-05 0.000000000000D+00  6 -2 1 25 -24 21 21 4 0.12829849D-01 0.56196811D-01 0.29339363D+05 0.29339363D+05 0.29339363D+05 0.12159147D+01  1  2  6  3  6  5       21 0.926432799456D+00 0.100000000000D+01
0.338847582744D-03 0.000000000000D+00 0.000000000000D+00 0.805438371016D-05 0.401061915137D-04  6 -2 1 25 -24 21 21 4 0.12829849D-01 0.56196811D-01 0.29333541D+05 0.29333541D+05 0.29333541D+05 0.12159237D+01  1  2 11  3  6  5       21 0.192737767295D+00 0.100000000000D+01
0.346427476189D-09 0.000000000000D+00 0.000000000000D+00 0.805450385894D-05 0.000000000000D+00  6 -2 1 25 -24 1 -1 4 0.12829849D-01 0.56196811D-01 0.29333541D+05 0.29333541D+05 0.29333541D+05 0.12159237D+01  1  2 12  6  6  5       21 0.197049238922D-06 0.100000000000D+01
0.346570798623D-09 0.000000000000D+00 0.000000000000D+00 0.805450385894D-05 0.000000000000D+00  6 -2 1 25 -24 1 -1 4 0.12829849D-01 0.56196811D-01 0.29333541D+05 0.29333541D+05 0.29333541D+05 0.12159237D+01  1  2 12  6  6  5       21 0.197130761256D-06 0.100000000000D+01
-.344328709333D-04 0.000000000000D+00 0.000000000000D+00 0.805438371016D-05 0.000000000000D+00  6 -2 1 25 -24 1 -1 4 0.12829849D-01 0.56196811D-01 0.29339363D+05 0.29339363D+05 0.29339363D+05 0.12159147D+01  1  2  5  6  6  5       21 -.195850325684D-01 0.100000000000D+01
0.352066583282D-04 0.000000000000D+00 0.000000000000D+00 0.805438371016D-05 0.944199931993D-06  6 -2 1 25 -24 1 -1 4 0.12829849D-01 0.56196811D-01 0.29333541D+05 0.29333541D+05 0.29333541D+05 0.12159237D+01  1  2 11  6  6  5       21 0.200256784043D-01 0.100000000000D+01
0.346427476189D-09 0.000000000000D+00 0.000000000000D+00 0.805450385894D-05 0.000000000000D+00  6 -2 1 25 -24 2 -2 4 0.12829849D-01 0.56196811D-01 0.29333541D+05 0.29333541D+05 0.29333541D+05 0.12159237D+01  1  2 12  7  6  5       21 0.197049238922D-06 0.100000000000D+01
0.346570798623D-09 0.000000000000D+00 0.000000000000D+00 0.805450385894D-05 0.000000000000D+00  6 -2 1 25 -24 2 -2 4 0.12829849D-01 0.56196811D-01 0.29333541D+05 0.29333541D+05 0.29333541D+05 0.12159237D+01  1  2 12  7  6  5       21 0.197130761256D-06 0.100000000000D+01
-.344328709333D-04 0.000000000000D+00 0.000000000000D+00 0.805438371016D-05 0.000000000000D+00  6 -2 1 25 -24 2 -2 4 0.12829849D-01 0.56196811D-01 0.29339363D+05 0.29339363D+05 0.29339363D+05 0.12159147D+01  1  2  5  7  6  5       21 -.195850325684D-01 0.100000000000D+01
0.350604800563D-04 0.000000000000D+00 0.000000000000D+00 0.805438371016D-05 0.940270441564D-06  6 -2 1 25 -24 2 -2 4 0.12829849D-01 0.56196811D-01 0.29333541D+05 0.29333541D+05 0.29333541D+05 0.12159237D+01  1  2 11  7  6  5       21 0.199425316587D-01 0.100000000000D+01
0.346427476189D-09 0.000000000000D+00 0.000000000000D+00 0.805450385894D-05 0.000000000000D+00  6 -2 1 25 -24 3 -3 4 0.12829849D-01 0.56196811D-01 0.29333541D+05 0.29333541D+05 0.29333541D+05 0.12159237D+01  1  2 12  8  6  5       21 0.197049238922D-06 0.100000000000D+01
0.346427476189D-09 0.000000000000D+00 0.000000000000D+00 0.805450385894D-05 0.000000000000D+00  6 -2 1 25 -24 4 -4 4 0.12829849D-01 0.56196811D-01 0.29333541D+05 0.29333541D+05 0.29333541D+05 0.12159237D+01  1  2 12  8  6  5       21 0.197049238922D-06 0.100000000000D+01
0.346570798623D-09 0.000000000000D+00 0.000000000000D+00 0.805450385894D-05 0.000000000000D+00  6 -2 1 25 -24 3 -3 4 0.12829849D-01 0.56196811D-01 0.29333541D+05 0.29333541D+05 0.29333541D+05 0.12159237D+01  1  2 12  8  6  5       21 0.197130761256D-06 0.100000000000D+01
0.346570798623D-09 0.000000000000D+00 0.000000000000D+00 0.805450385894D-05 0.000000000000D+00  6 -2 1 25 -24 4 -4 4 0.12829849D-01 0.56196811D-01 0.29333541D+05 0.29333541D+05 0.29333541D+05 0.12159237D+01  1  2 12  8  6  5       21 0.197130761256D-06 0.100000000000D+01
-.344328709333D-04 0.000000000000D+00 0.000000000000D+00 0.805438371016D-05 0.000000000000D+00  6 -2 1 25 -24 3 -3 4 0.12829849D-01 0.56196811D-01 0.29339363D+05 0.29339363D+05 0.29339363D+05 0.12159147D+01  1  2  5  8  6  5       21 -.195850325684D-01 0.100000000000D+01
-.344328709333D-04 0.000000000000D+00 0.000000000000D+00 0.805438371016D-05 0.000000000000D+00  6 -2 1 25 -24 4 -4 4 0.12829849D-01 0.56196811D-01 0.29339363D+05 0.29339363D+05 0.29339363D+05 0.12159147D+01  1  2  5  8  6  5       21 -.195850325684D-01 0.100000000000D+01
0.351077263908D-04 0.000000000000D+00 0.000000000000D+00 0.805438371016D-05 0.941521116954D-06  6 -2 1 25 -24 3 -3 4 0.12829849D-01 0.56196811D-01 0.29333541D+05 0.29333541D+05 0.29333541D+05 0.12159237D+01  1  2 11  8  6  5       21 0.199694055497D-01 0.100000000000D+01
0.351077263908D-04 0.000000000000D+00 0.000000000000D+00 0.805438371016D-05 0.941521116954D-06  6 -2 1 25 -24 4 -4 4 0.12829849D-01 0.56196811D-01 0.29333541D+05 0.29333541D+05 0.29333541D+05 0.12159237D+01  1  2 11  8  6  5       21 0.199694055497D-01 0.100000000000D+01
  </mgrwgt>
  </event>
  <event>
  5     66 0.49582427E-03 0.23430311E+02 0.75467711E-02 0.12047162E+00
       -2 -1    0    0    0  501 0.00000000E+00 0.00000000E+00 0.81779410E+01 0.81841994E+01 0.32000000E+00 0.0000E+00 0.9000E+01
        1 -1    0    0  502    0 -.00000000E+00 -.00000000E+00 -.26485036E+04 0.26485036E+04 0.32000000E+00 0.0000E+00 0.9000E+01
       25  1    1    2    0    0 0.61316465E+02 0.42511439E+02 -.13740124E+04 0.13817025E+04 0.12500000E+03 0.0000E+00 0.9000E+01
      -24  1    1    2    0    0 -.69188663E+02 -.64568956E+02 -.11099067E+04 0.11168332E+04 0.80419002E+02 0.0000E+00 0.9000E+01
       21  1    1    2  502  501 0.78721982E+01 0.22057517E+02 -.15640658E+03 0.15815210E+03 0.75000000E+00 0.0000E+00 0.9000E+01
#aMCatNLO 1  0  0  5  2 0.46783684D+01 0.00000000D+00  -5  6  0 0.00000000D+00 0.00000000D+00 0.00000000D+00 0.00000000D+00 0.00000000D+00
  <mgrwgt>
 0.3445085661D+00   20    2    0
 0.147199338408267D+03 0.000000000000000D+00 0.000000000000000D+00 0.147199338408267D+03
 0.147199338408267D+03 -.000000000000000D+00 -.000000000000000D+00 -.147199338408267D+03
 0.145760032664374D+03 0.613146287851863D+02 0.425062952727410D+02 -.739718064135218D+01
 0.124195033837504D+03 -.691902270725104D+02 -.645733391956145D+02 0.432224838374264D+00
 0.244436103146563D+02 0.787559828732414D+01 0.220670439228736D+02 0.696495580297793D+01
 0.000000000000000D+00 0.000000000000000D+00 0.000000000000000D+00 0.000000000000000D+00
 0.147199338408267D+03 0.000000000000000D+00 0.000000000000000D+00 0.147199338408267D+03
 0.147199338408267D+03 -.000000000000000D+00 -.000000000000000D+00 -.147199338408267D+03
 0.146297594809483D+03 0.617605949196583D+02 0.437558707231990D+02 -.700278083794649D+01
 0.123437902017430D+03 -.688120965503720D+02 -.635138358364808D+02 0.766632749794770D+00
 0.611421864939494D+01 -.241407387134676D+01 0.553135180273831D+01 -.979828694534642D+00
 0.185489613402264D+02 0.946557550206042D+01 0.142266133105436D+02 0.721597678268638D+01
0.128373527802D-02 0.000000000000D+00 0.000000000000D+00 0.379441300737D-04 0.000000000000D+00  6 -2 1 25 -24 21 21 2 0.12586277D-02 0.40746258D+00 0.21491092D+05 0.21491092D+05 0.21491092D+05 0.12304028D+01  1  2  2  3  6  5       21 0.331531652042D+00 0.100000000000D+01
0.283480532475D-03 0.677445717981D-04 -.492988148286D-05 0.379441300737D-04 0.000000000000D+00  6 -2 1 25 -24 21 21 4 0.12586277D-02 0.40746258D+00 0.21491092D+05 0.21491092D+05 0.21491092D+05 0.12304028D+01  1  2  3  3  6  5       21 0.110832565877D+00 0.100000000000D+01
0.347645482257D-04 0.000000000000D+00 0.000000000000D+00 0.379441300737D-04 0.000000000000D+00  6 -2 1 25 -24 21 21 4 0.12586277D-02 0.40746258D+00 0.21491092D+05 0.21491092D+05 0.21491092D+05 0.12304028D+01  1  2 15  3  6  5       21 0.135919177510D-01 0.100000000000D+01
0.438969966362D-04 0.000000000000D+00 0.000000000000D+00 0.379542802918D-04 0.000000000000D+00  6 -2 1 25 -24 21 21 4 0.12586277D-02 0.40746258D+00 0.21416631D+05 0.21416631D+05 0.21416631D+05 0.12305674D+01  1  2 12  3  6  5       21 0.171719584004D-01 0.100000000000D+01
0.450700671090D-04 0.000000000000D+00 0.000000000000D+00 0.379542802918D-04 0.000000000000D+00  6 -2 1 25 -24 21 21 4 0.12586277D-02 0.40746258D+00 0.21416631D+05 0.21416631D+05 0.21416631D+05 0.12305674D+01  1  2 12  3  6  5       21 0.176308489602D-01 0.100000000000D+01
-.183478789944D-02 0.000000000000D+00 0.000000000000D+00 0.379441300737D-04 0.000000000000D+00  6 -2 1 25 -24 21 21 4 0.12586277D-02 0.40746258D+00 0.21491092D+05 0.21491092D+05 0.21491092D+05 0.12304028D+01  1  2  4  3  6  5       21 -.717348203627D+00 0.100000000000D+01
-.237051131276D-03 0.000000000000D+00 0.000000000000D+00 0.379441300737D-04 0.000000000000D+00  6 -2 1 25 -24 21 21 4 0.12586277D-02 0.40746258D+00 0.21491092D+05 0.21491092D+05 0.21491092D+05 0.12304028D+01  1  2  5  3  6  5       21 -.926800330656D-01 0.100000000000D+01
0.186004154409D-02 0.000000000000D+00 -.000000000000D+00 0.379441300737D-04 0.000000000000D+00  6 -2 1 25 -24 21 21 4 0.12586277D-02 0.40746258D+00 0.21491092D+05 0.21491092D+05 0.21491092D+05 0.12304028D+01  1  2  6  3  6  5       21 0.727221637297D+00 0.100000000000D+01
0.650481793852D-05 0.000000000000D+00 0.000000000000D+00 0.379542802918D-04 0.000000000000D+00  6 -2 1 25 -24 1 -1 4 0.12586277D-02 0.40746258D+00 0.21416631D+05 0.21416631D+05 0.21416631D+05 0.12305674D+01  1  2 12  6  6  5       21 0.254460376796D-02 0.100000000000D+01
0.661692514214D-05 0.000000000000D+00 0.000000000000D+00 0.379542802918D-04 0.000000000000D+00  6 -2 1 25 -24 1 -1 4 0.12586277D-02 0.40746258D+00 0.21416631D+05 0.21416631D+05 0.21416631D+05 0.12305674D+01  1  2 12  6  6  5       21 0.258845870986D-02 0.100000000000D+01
-.536971439328D-04 0.000000000000D+00 0.000000000000D+00 0.379441300737D-04 0.000000000000D+00  6 -2 1 25 -24 1 -1 4 0.12586277D-02 0.40746258D+00 0.21491092D+05 0.21491092D+05 0.21491092D+05 0.12304028D+01  1  2  5  6  6  5       21 -.209940068560D-01 0.100000000000D+01
0.650481793852D-05 0.000000000000D+00 0.000000000000D+00 0.379542802918D-04 0.000000000000D+00  6 -2 1 25 -24 2 -2 4 0.12586277D-02 0.40746258D+00 0.21416631D+05 0.21416631D+05 0.21416631D+05 0.12305674D+01  1  2 12  7  6  5       21 0.254460376796D-02 0.100000000000D+01
0.661692514214D-05 0.000000000000D+00 0.000000000000D+00 0.379542802918D-04 0.000000000000D+00  6 -2 1 25 -24 2 -2 4 0.12586277D-02 0.40746258D+00 0.21416631D+05 0.21416631D+05 0.21416631D+05 0.12305674D+01  1  2 12  7  6  5       21 0.258845870986D-02 0.100000000000D+01
-.536971439328D-04 0.000000000000D+00 0.000000000000D+00 0.379441300737D-04 0.000000000000D+00  6 -2 1 25 -24 2 -2 4 0.12586277D-02 0.40746258D+00 0.21491092D+05 0.21491092D+05 0.21491092D+05 0.12304028D+01  1  2  5  7  6  5       21 -.209940068560D-01 0.100000000000D+01
0.650481793852D-05 0.000000000000D+00 0.000000000000D+00 0.379542802918D-04 0.000000000000D+00  6 -2 1 25 -24 3 -3 4 0.12586277D-02 0.40746258D+00 0.21416631D+05 0.21416631D+05 0.21416631D+05 0.12305674D+01  1  2 12  8  6  5       21 0.254460376796D-02 0.100000000000D+01
0.650481793852D-05 0.000000000000D+00 0.000000000000D+00 0.379542802918D-04 0.000000000000D+00  6 -2 1 25 -24 4 -4 4 0.12586277D-02 0.40746258D+00 0.21416631D+05 0.21416631D+05 0.21416631D+05 0.12305674D+01  1  2 12  8  6  5       21 0.254460376796D-02 0.100000000000D+01
0.661692514214D-05 0.000000000000D+00 0.000000000000D+00 0.379542802918D-04 0.000000000000D+00  6 -2 1 25 -24 3 -3 4 0.12586277D-02 0.40746258D+00 0.21416631D+05 0.21416631D+05 0.21416631D+05 0.12305674D+01  1  2 12  8  6  5       21 0.258845870986D-02 0.100000000000D+01
0.661692514214D-05 0.000000000000D+00 0.000000000000D+00 0.379542802918D-04 0.000000000000D+00  6 -2 1 25 -24 4 -4 4 0.12586277D-02 0.40746258D+00 0.21416631D+05 0.21416631D+05 0.21416631D+05 0.12305674D+01  1  2 12  8  6  5       21 0.258845870986D-02 0.100000000000D+01
-.536971439328D-04 0.000000000000D+00 0.000000000000D+00 0.379441300737D-04 0.000000000000D+00  6 -2 1 25 -24 3 -3 4 0.12586277D-02 0.40746258D+00 0.21491092D+05 0.21491092D+05 0.21491092D+05 0.12304028D+01  1  2  5  8  6  5       21 -.209940068560D-01 0.100000000000D+01
-.536971439328D-04 0.000000000000D+00 0.000000000000D+00 0.379441300737D-04 0.000000000000D+00  6 -2 1 25 -24 4 -4 4 0.12586277D-02 0.40746258D+00 0.21491092D+05 0.21491092D+05 0.21491092D+05 0.12304028D+01  1  2  5  8  6  5       21 -.209940068560D-01 0.100000000000D+01
  </mgrwgt>
  </event>
  <event>
  5     66 0.49582427E-03 0.68382862E+02 0.75467711E-02 0.11703839E+00
       -2 -1    0    0    0  501 0.00000000E+00 0.00000000E+00 0.30562659E+03 0.30562676E+03 0.32000000E+00 0.0000E+00 0.9000E+01
        1 -1    0    0  502    0 0.00000000E+00 0.00000000E+00 -.26016504E+03 0.26016524E+03 0.32000000E+00 0.0000E+00 0.9000E+01
       25  1    1    2    0    0 0.46136904E+02 0.78749345E+02 -.25895924E+02 0.15692569E+03 0.12500000E+03 0.0000E+00 0.9000E+01
      -24  1    1    2    0    0 -.98247988E+02 -.34470829E+02 0.21369911E+03 0.25094906E+03 0.80419002E+02 0.0000E+00 0.9000E+01
       21  1    1    2  502  501 0.52111084E+02 -.44278517E+02 -.14234164E+03 0.15791725E+03 0.75000000E+00 0.0000E+00 0.9000E+01
#aMCatNLO 1  0  0  2  1 0.34377325D+02 0.00000000D+00  -5  6  0 0.00000000D+00 0.00000000D+00 0.00000000D+00 0.00000000D+00 0.00000000D+00
  <mgrwgt>
 0.5916714497D-02    1    2    0
 0.281981309866779D+03 0.000000000000000D+00 0.000000000000000D+00 0.281981309866779D+03
 0.281981309866779D+03 0.000000000000000D+00 0.000000000000000D+00 -.281981309866779D+03
 0.159522134670248D+03 0.461367601971941D+02 0.787494672901588D+02 -.386294215563146D+02
 0.234537191968640D+03 -.982481991563801D+02 -.344706491087716D+02 0.194163704576093D+03
 0.169903293094671D+03 0.521114389591860D+02 -.442788181813872D+02 -.155534283019778D+03
 0.000000000000000D+00 0.000000000000000D+00 -.000000000000000D+00 -.000000000000000D+00
 0.293629673403405D+03 0.000000000000000D+00 0.000000000000000D+00 0.293629673403405D+03
 0.430257621283128D+03 0.000000000000000D+00 0.000000000000000D+00 -.430257621283128D+03
 0.168737155939996D+03 0.394624352539803D+02 0.989833914794213D+02 -.386294215563146D+02
 0.236266356339871D+03 -.107820802143450D+03 -.545028753179780D+01 0.194163704576093D+03
 0.163731055771960D+03 0.453278257599561D+02 -.237135750488880D+02 -.155534283019778D+03
 0.155152726634706D+03 0.230305411295137D+02 -.698195288987355D+02 -.136627947879723D+03
0.679498258583D-04 0.000000000000D+00 0.000000000000D+00 0.337828290595D-05 0.000000000000D+00  6 -2 1 25 -24 21 21 4 0.47019504D-01 0.40025419D-01 0.31456142D+05 0.31456142D+05 0.31456142D+05 0.12127439D+01  1  2 14  2  6  2        1 0.591671449705D-02 0.100000000000D+01
  </mgrwgt>
  </event>
  <event>
  5     66 -.49582427E-03 0.22584724E+02 0.75467711E-02 0.12260835E+00
       -2 -1    0    0    0  501 0.00000000E+00 0.00000000E+00 0.27025774E+03 0.27025793E+03 0.32000000E+00 0.0000E+00 0.9000E+01
        1 -1    0    0  502    0 0.00000000E+00 0.00000000E+00 -.66823897E+02 0.66824663E+02 0.32000000E+00 0.0000E+00 0.9000E+01
       25  1    1    2    0    0 0.13508318E+02 -.65862568E+02 0.13301387E+03 0.19452003E+03 0.12500000E+03 0.0000E+00 0.9000E+01
      -24  1    1    2    0    0 -.26978016E+02 0.47746562E+02 0.41370922E+02 0.10576538E+03 0.80419002E+02 0.0000E+00 0.9000E+01
       21  1    1    2  502  501 0.13469698E+02 0.18116006E+02 0.29049058E+02 0.36797183E+02 0.75000000E+00 0.0000E+00 0.9000E+01
#aMCatNLO 1  0  0  5  2 0.44265692D+01 0.00000000D+00  -5  6  0 0.00000000D+00 0.00000000D+00 0.00000000D+00 0.00000000D+00 0.00000000D+00
  <mgrwgt>
 -.1029691558D+01   20    2    0
 0.134386891650357D+03 0.000000000000000D+00 0.000000000000000D+00 0.134386891650357D+03
 0.134386891650357D+03 -.000000000000000D+00 -.000000000000000D+00 -.134386891650357D+03
 0.143281087460654D+03 0.135048560939263D+02 -.658672236846630D+02 0.195856511217919D+02
 0.101331681796549D+03 -.269804638488020D+02 0.477432690461612D+02 -.281696399095873D+02
 0.241610140435110D+02 0.134756077548757D+02 0.181239546385018D+02 0.858398878779549D+01
 0.000000000000000D+00 0.000000000000000D+00 0.000000000000000D+00 0.000000000000000D+00
 0.134386891650357D+03 0.000000000000000D+00 0.000000000000000D+00 0.134386891650357D+03
 0.134386891650357D+03 -.000000000000000D+00 -.000000000000000D+00 -.134386891650357D+03
 0.143060473988917D+03 0.140160694381766D+02 -.651796697256635D+02 0.199112950330008D+02
 0.101402628085160D+03 -.266185167949959D+02 0.482300680168679D+02 -.279390789205646D+02
 0.103408836230195D+02 0.690550368550597D+01 0.766378519541014D+01 -.717139758281449D+00
 0.139697976036177D+02 0.569694367131336D+01 0.928581651338547D+01 0.874492364584517D+01
0.328390862090D-03 0.000000000000D+00 0.000000000000D+00 0.432453902186D-04 0.000000000000D+00  6 -2 1 25 -24 21 21 2 0.41578188D-01 0.10280673D-01 0.17142447D+05 0.17142447D+05 0.17142447D+05 0.12412663D+01  1  2  2  3  6  5       21 0.145271401755D+00 0.100000000000D+01
0.628021218580D-04 0.173296618981D-04 -.126110737773D-05 0.432453902186D-04 0.000000000000D+00  6 -2 1 25 -24 21 21 4 0.41578188D-01 0.10280673D-01 0.17142447D+05 0.17142447D+05 0.17142447D+05 0.12412663D+01  1  2  3  3  6  5       21 0.428048799180D-01 0.100000000000D+01
0.117152889933D-04 0.000000000000D+00 0.000000000000D+00 0.432453902186D-04 0.000000000000D+00  6 -2 1 25 -24 21 21 4 0.41578188D-01 0.10280673D-01 0.17142447D+05 0.17142447D+05 0.17142447D+05 0.12412663D+01  1  2 15  3  6  5       21 0.798494579052D-02 0.100000000000D+01
0.348509708807D-04 0.000000000000D+00 0.000000000000D+00 0.432844873011D-04 0.000000000000D+00  6 -2 1 25 -24 21 21 4 0.41578188D-01 0.10280673D-01 0.16946292D+05 0.16946292D+05 0.16946292D+05 0.12418272D+01  1  2 12  3  6  5       21 0.237880902227D-01 0.100000000000D+01
0.352451228215D-04 0.000000000000D+00 0.000000000000D+00 0.432844873011D-04 0.000000000000D+00  6 -2 1 25 -24 21 21 4 0.41578188D-01 0.10280673D-01 0.16946292D+05 0.16946292D+05 0.16946292D+05 0.12418272D+01  1  2 12  3  6  5       21 0.240571249638D-01 0.100000000000D+01
-.262530694350D-02 0.000000000000D+00 0.000000000000D+00 0.432453902186D-04 0.000000000000D+00  6 -2 1 25 -24 21 21 4 0.41578188D-01 0.10280673D-01 0.17142447D+05 0.17142447D+05 0.17142447D+05 0.12412663D+01  1  2  4  3  6  5       21 -.178936547270D+01 0.100000000000D+01
-.354923185235D-03 0.000000000000D+00 0.000000000000D+00 0.432453902186D-04 0.000000000000D+00  6 -2 1 25 -24 21 21 4 0.41578188D-01 0.10280673D-01 0.17142447D+05 0.17142447D+05 0.17142447D+05 0.12412663D+01  1  2  5  3  6  5       21 -.241909729714D+00 0.100000000000D+01
0.110763872914D-02 0.000000000000D+00 -.000000000000D+00 0.432453902186D-04 0.000000000000D+00  6 -2 1 25 -24 21 21 4 0.41578188D-01 0.10280673D-01 0.17142447D+05 0.17142447D+05 0.17142447D+05 0.12412663D+01  1  2  6  3  6  5       21 0.754948103513D+00 0.100000000000D+01
0.180687572157D-05 0.000000000000D+00 0.000000000000D+00 0.432844873011D-04 0.000000000000D+00  6 -2 1 25 -24 1 -1 4 0.41578188D-01 0.10280673D-01 0.16946292D+05 0.16946292D+05 0.16946292D+05 0.12418272D+01  1  2 12  6  6  5       21 0.123331205988D-02 0.100000000000D+01
0.182663542114D-05 0.000000000000D+00 0.000000000000D+00 0.432844873011D-04 0.000000000000D+00  6 -2 1 25 -24 1 -1 4 0.41578188D-01 0.10280673D-01 0.16946292D+05 0.16946292D+05 0.16946292D+05 0.12418272D+01  1  2 12  6  6  5       21 0.124679936036D-02 0.100000000000D+01
-.263773584158D-05 0.000000000000D+00 0.000000000000D+00 0.432453902186D-04 0.000000000000D+00  6 -2 1 25 -24 1 -1 4 0.41578188D-01 0.10280673D-01 0.17142447D+05 0.17142447D+05 0.17142447D+05 0.12412663D+01  1  2  5  6  6  5       21 -.179783680254D-02 0.100000000000D+01
0.180687572157D-05 0.000000000000D+00 0.000000000000D+00 0.432844873011D-04 0.000000000000D+00  6 -2 1 25 -24 2 -2 4 0.41578188D-01 0.10280673D-01 0.16946292D+05 0.16946292D+05 0.16946292D+05 0.12418272D+01  1  2 12  7  6  5       21 0.123331205988D-02 0.100000000000D+01
0.182663542114D-05 0.000000000000D+00 0.000000000000D+00 0.432844873011D-04 0.000000000000D+00  6 -2 1 25 -24 2 -2 4 0.41578188D-01 0.10280673D-01 0.16946292D+05 0.16946292D+05 0.16946292D+05 0.12418272D+01  1  2 12  7  6  5       21 0.124679936036D-02 0.100000000000D+01
-.263773584158D-05 0.000000000000D+00 0.000000000000D+00 0.432453902186D-04 0.000000000000D+00  6 -2 1 25 -24 2 -2 4 0.41578188D-01 0.10280673D-01 0.17142447D+05 0.17142447D+05 0.17142447D+05 0.12412663D+01  1  2  5  7  6  5       21 -.179783680254D-02 0.100000000000D+01
0.180687572157D-05 0.000000000000D+00 0.000000000000D+00 0.432844873011D-04 0.000000000000D+00  6 -2 1 25 -24 3 -3 4 0.41578188D-01 0.10280673D-01 0.16946292D+05 0.16946292D+05 0.16946292D+05 0.12418272D+01  1  2 12  8  6  5       21 0.123331205988D-02 0.100000000000D+01
0.180687572157D-05 0.000000000000D+00 0.000000000000D+00 0.432844873011D-04 0.000000000000D+00  6 -2 1 25 -24 4 -4 4 0.41578188D-01 0.10280673D-01 0.16946292D+05 0.16946292D+05 0.16946292D+05 0.12418272D+01  1  2 12  8  6  5       21 0.123331205988D-02 0.100000000000D+01
0.182663542114D-05 0.000000000000D+00 0.000000000000D+00 0.432844873011D-04 0.000000000000D+00  6 -2 1 25 -24 3 -3 4 0.41578188D-01 0.10280673D-01 0.16946292D+05 0.16946292D+05 0.16946292D+05 0.12418272D+01  1  2 12  8  6  5       21 0.124679936036D-02 0.100000000000D+01
0.182663542114D-05 0.000000000000D+00 0.000000000000D+00 0.432844873011D-04 0.000000000000D+00  6 -2 1 25 -24 4 -4 4 0.41578188D-01 0.10280673D-01 0.16946292D+05 0.16946292D+05 0.16946292D+05 0.12418272D+01  1  2 12  8  6  5       21 0.124679936036D-02 0.100000000000D+01
-.263773584158D-05 0.000000000000D+00 0.000000000000D+00 0.432453902186D-04 0.000000000000D+00  6 -2 1 25 -24 3 -3 4 0.41578188D-01 0.10280673D-01 0.17142447D+05 0.17142447D+05 0.17142447D+05 0.12412663D+01  1  2  5  8  6  5       21 -.179783680254D-02 0.100000000000D+01
-.263773584158D-05 0.000000000000D+00 0.000000000000D+00 0.432453902186D-04 0.000000000000D+00  6 -2 1 25 -24 4 -4 4 0.41578188D-01 0.10280673D-01 0.17142447D+05 0.17142447D+05 0.17142447D+05 0.12412663D+01  1  2  5  8  6  5       21 -.179783680254D-02 0.100000000000D+01
  </mgrwgt>
  </event>
  <event>
  5     66 0.49582427E-03 0.20621835E+02 0.75467711E-02 0.11977626E+00
       -2 -1    0    0    0  501 0.00000000E+00 0.00000000E+00 0.72800665E+02 0.72801368E+02 0.32000000E+00 0.0000E+00 0.9000E+01
        1 -1    0    0  502    0 -.00000000E+00 -.00000000E+00 -.37025472E+03 0.37025485E+03 0.32000000E+00 0.0000E+00 0.9000E+01
       25  1    1    2    0    0 0.78924239E+02 0.73590807E+02 -.20863772E+03 0.26608146E+03 0.12500000E+03 0.0000E+00 0.9000E+01
      -24  1    1    2    0    0 -.62887724E+02 -.60631074E+02 -.98414393E+02 0.15421933E+03 0.80419002E+02 0.0000E+00 0.9000E+01
       21  1    1    2  502  501 -.16036515E+02 -.12959733E+02 0.95980660E+01 0.22755436E+02 0.75000000E+00 0.0000E+00 0.9000E+01
#aMCatNLO 1  0  0  5  1 0.14312603D+01 0.00000000D+00  -5  6  0 0.00000000D+00 0.00000000D+00 0.00000000D+00 0.00000000D+00 0.00000000D+00
  <mgrwgt>
 0.1977794660D+00   25    2    0
 0.164179706442932D+03 0.000000000000000D+00 0.000000000000000D+00 0.164179706442932D+03
 0.164179706442932D+03 -.000000000000000D+00 -.000000000000000D+00 -.164179706442932D+03
 0.170025757303400D+03 0.789257434928137D+02 0.735920227239671D+02 -.404808516720740D+02
 0.118935851971131D+03 -.628866709223195D+02 -.606302231534932D+02 0.691112077696009D+01
 0.393978036113320D+02 -.160390725704943D+02 -.129617995704739D+02 0.335697308951139D+02
 0.000000000000000D+00 -.000000000000000D+00 0.000000000000000D+00 0.000000000000000D+00
 0.164179706442932D+03 0.000000000000000D+00 0.000000000000000D+00 0.164179706442932D+03
 0.164179706442932D+03 -.000000000000000D+00 -.000000000000000D+00 -.164179706442932D+03
 0.169962149962600D+03 0.788772506040760D+02 0.735528337308598D+02 -.403793562010548D+02
 0.118971923874554D+03 -.629206039977536D+02 -.606576457940888D+02 0.698214260230312D+01
 0.342052327544610D+02 -.126507150649058D+02 -.110987517931039D+02 0.297787686912755D+02
 0.522010629424791D+01 -.330593154141658D+01 -.179643614366715D+01 0.361844490747613D+01
0.510653201380D-04 0.000000000000D+00 0.000000000000D+00 0.469789405816D-04 0.000000000000D+00  6 -2 1 25 -24 21 21 2 0.11200167D-01 0.56962329D-01 0.23179028D+05 0.23179028D+05 0.23179028D+05 0.12268348D+01  1  2  2  3  6  5       21 0.243303134247D-01 0.100000000000D+01
0.100419958890D-04 0.269479097888D-05 -.196104275137D-06 0.469789405816D-04 0.000000000000D+00  6 -2 1 25 -24 21 21 4 0.11200167D-01 0.56962329D-01 0.23179028D+05 0.23179028D+05 0.23179028D+05 0.12268348D+01  1  2  3  3  6  5       21 0.720134846109D-02 0.100000000000D+01
0.217968903693D-05 0.000000000000D+00 0.000000000000D+00 0.469789405816D-04 0.000000000000D+00  6 -2 1 25 -24 21 21 4 0.11200167D-01 0.56962329D-01 0.23179028D+05 0.23179028D+05 0.23179028D+05 0.12268348D+01  1  2 15  3  6  5       21 0.156310562814D-02 0.100000000000D+01
0.283487639374D-07 0.000000000000D+00 0.000000000000D+00 0.469798568601D-04 0.000000000000D+00  6 -2 1 25 -24 21 21 4 0.11200167D-01 0.56962329D-01 0.23173126D+05 0.23173126D+05 0.23173126D+05 0.12268467D+01  1  2 12  3  6  5       21 0.203302345549D-04 0.100000000000D+01
0.293495405046D-07 0.000000000000D+00 0.000000000000D+00 0.469798568601D-04 0.000000000000D+00  6 -2 1 25 -24 21 21 4 0.11200167D-01 0.56962329D-01 0.23173126D+05 0.23173126D+05 0.23173126D+05 0.12268467D+01  1  2 12  3  6  5       21 0.210479385928D-04 0.100000000000D+01
-.216839338576D-02 0.000000000000D+00 0.000000000000D+00 0.469789405816D-04 0.000000000000D+00  6 -2 1 25 -24 21 21 4 0.11200167D-01 0.56962329D-01 0.23179028D+05 0.23179028D+05 0.23179028D+05 0.12268348D+01  1  2  4  3  6  5       21 -.155500525436D+01 0.100000000000D+01
-.231891492766D-02 0.000000000000D+00 0.000000000000D+00 0.469789405816D-04 0.000000000000D+00  6 -2 1 25 -24 21 21 4 0.11200167D-01 0.56962329D-01 0.23179028D+05 0.23179028D+05 0.23179028D+05 0.12268348D+01  1  2  5  3  6  5       21 -.166294774767D+01 0.100000000000D+01
0.284975801152D-02 0.000000000000D+00 -.000000000000D+00 0.469789405816D-04 0.000000000000D+00  6 -2 1 25 -24 21 21 4 0.11200167D-01 0.56962329D-01 0.23179028D+05 0.23179028D+05 0.23179028D+05 0.12268348D+01  1  2  6  3  6  5       21 0.204362765108D+01 0.100000000000D+01
0.188286753914D-02 0.000000000000D+00 0.000000000000D+00 0.469789405816D-04 0.131982831758D-03  6 -2 1 25 -24 21 21 4 0.11200167D-01 0.56962329D-01 0.23173126D+05 0.23173126D+05 0.23173126D+05 0.12268467D+01  1  2 11  3  6  5       21 0.135029304245D+01 0.100000000000D+01
0.141723633459D-08 0.000000000000D+00 0.000000000000D+00 0.469798568601D-04 0.000000000000D+00  6 -2 1 25 -24 1 -1 4 0.11200167D-01 0.56962329D-01 0.23173126D+05 0.23173126D+05 0.23173126D+05 0.12268467D+01  1  2 12  6  6  5       21 0.101636696280D-05 0.100000000000D+01
0.144165916753D-08 0.000000000000D+00 0.000000000000D+00 0.469798568601D-04 0.000000000000D+00  6 -2 1 25 -24 1 -1 4 0.11200167D-01 0.56962329D-01 0.23173126D+05 0.23173126D+05 0.23173126D+05 0.12268467D+01  1  2 12  6  6  5       21 0.103388172722D-05 0.100000000000D+01
-.185665627008D-04 0.000000000000D+00 0.000000000000D+00 0.469789405816D-04 0.000000000000D+00  6 -2 1 25 -24 1 -1 4 0.11200167D-01 0.56962329D-01 0.23179028D+05 0.23179028D+05 0.23179028D+05 0.12268348D+01  1  2  5  6  6  5       21 -.133145132911D-01 0.100000000000D+01
0.145379026093D-04 0.000000000000D+00 0.000000000000D+00 0.469789405816D-04 0.198107320422D-05  6 -2 1 25 -24 1 -1 4 0.11200167D-01 0.56962329D-01 0.23173126D+05 0.23173126D+05 0.23173126D+05 0.12268467D+01  1  2 11  6  6  5       21 0.104258150597D-01 0.100000000000D+01
0.141723633459D-08 0.000000000000D+00 0.000000000000D+00 0.469798568601D-04 0.000000000000D+00  6 -2 1 25 -24 2 -2 4 0.11200167D-01 0.56962329D-01 0.23173126D+05 0.23173126D+05 0.23173126D+05 0.12268467D+01  1  2 12  7  6  5       21 0.101636696280D-05 0.100000000000D+01
0.144165916753D-08 0.000000000000D+00 0.000000000000D+00 0.469798568601D-04 0.000000000000D+00  6 -2 1 25 -24 2 -2 4 0.11200167D-01 0.56962329D-01 0.23173126D+05 0.23173126D+05 0.23173126D+05 0.12268467D+01  1  2 12  7  6  5       21 0.103388172722D-05 0.100000000000D+01
-.185665627008D-04 0.000000000000D+00 0.000000000000D+00 0.469789405816D-04 0.000000000000D+00  6 -2 1 25 -24 2 -2 4 0.11200167D-01 0.56962329D-01 0.23179028D+05 0.23179028D+05 0.23179028D+05 0.12268348D+01  1  2  5  7  6  5       21 -.133145132911D-01 0.100000000000D+01
0.148349380270D-04 0.000000000000D+00 0.000000000000D+00 0.469789405816D-04 0.203438748005D-05  6 -2 1 25 -24 2 -2 4 0.11200167D-01 0.56962329D-01 0.23173126D+05 0.23173126D+05 0.23173126D+05 0.12268467D+01  1  2 11  7  6  5       21 0.106388331556D-01 0.100000000000D+01
0.141723633459D-08 0.000000000000D+00 0.000000000000D+00 0.469798568601D-04 0.000000000000D+00  6 -2 1 25 -24 3 -3 4 0.11200167D-01 0.56962329D-01 0.23173126D+05 0.23173126D+05 0.23173126D+05 0.12268467D+01  1  2 12  8  6  5       21 0.101636696280D-05 0.100000000000D+01
0.141723633459D-08 0.000000000000D+00 0.000000000000D+00 0.469798568601D-04 0.000000000000D+00  6 -2 1 25 -24 4 -4 4 0.11200167D-01 0.56962329D-01 0.23173126D+05 0.23173126D+05 0.23173126D+05 0.12268467D+01  1  2 12  8  6  5       21 0.101636696280D-05 0.100000000000D+01
0.144165916753D-08 0.000000000000D+00 0.000000000000D+00 0.469798568601D-04 0.000000000000D+00  6 -2 1 25 -24 3 -3 4 0.11200167D-01 0.56962329D-01 0.23173126D+05 0.23173126D+05 0.23173126D+05 0.12268467D+01  1  2 12  8  6  5       21 0.103388172722D-05 0.100000000000D+01
0.144165916753D-08 0.000000000000D+00 0.000000000000D+00 0.469798568601D-04 0.000000000000D+00  6 -2 1 25 -24 4 -4 4 0.11200167D-01 0.56962329D-01 0.23173126D+05 0.23173126D+05 0.23173126D+05 0.12268467D+01  1  2 12  8  6  5       21 0.103388172722D-05 0.100000000000D+01
-.185665627008D-04 0.000000000000D+00 0.000000000000D+00 0.469789405816D-04 0.000000000000D+00  6 -2 1 25 -24 3 -3 4 0.11200167D-01 0.56962329D-01 0.23179028D+05 0.23179028D+05 0.23179028D+05 0.12268348D+01  1  2  5  8  6  5       21 -.133145132911D-01 0.100000000000D+01
-.185665627008D-04 0.000000000000D+00 0.000000000000D+00 0.469789405816D-04 0.000000000000D+00  6 -2 1 25 -24 4 -4 4 0.11200167D-01 0.56962329D-01 0.23179028D+05 0.23179028D+05 0.23179028D+05 0.12268348D+01  1  2  5  8  6  5       21 -.133145132911D-01 0.100000000000D+01
0.145443187717D-04 0.000000000000D+00 0.000000000000D+00 0.469789405816D-04 0.198189748709D-05  6 -2 1 25 -24 3 -3 4 0.11200167D-01 0.56962329D-01 0.23173126D+05 0.23173126D+05 0.23173126D+05 0.12268467D+01  1  2 11  8  6  5       21 0.104304163922D-01 0.100000000000D+01
0.145443187717D-04 0.000000000000D+00 0.000000000000D+00 0.469789405816D-04 0.198189748709D-05  6 -2 1 25 -24 4 -4 4 0.11200167D-01 0.56962329D-01 0.23173126D+05 0.23173126D+05 0.23173126D+05 0.12268467D+01  1  2 11  8  6  5       21 0.104304163922D-01 0.100000000000D+01
  </mgrwgt>
  </event>
  <event>
  5     66 0.49582427E-03 0.28044904E+02 0.75467711E-02 0.12179939E+00
       -2 -1    0    0    0  501 0.00000000E+00 0.00000000E+00 0.27154348E+02 0.27156233E+02 0.32000000E+00 0.0000E+00 0.9000E+01
        1 -1    0    0  502    0 -.00000000E+00 -.00000000E+00 -.72516230E+03 0.72516237E+03 0.32000000E+00 0.0000E+00 0.9000E+01
       25  1    1    2    0    0 0.42336600E+02 -.45587623E+02 -.43115910E+03 0.45320392E+03 0.12500000E+03 0.0000E+00 0.9000E+01
      -24  1    1    2    0    0 -.22204127E+02 0.65099045E+02 -.19278553E+03 0.21991904E+03 0.80419002E+02 0.0000E+00 0.9000E+01
       21  1    1    2  502  501 -.20132472E+02 -.19511422E+02 -.74063320E+02 0.79195644E+02 0.75000000E+00 0.0000E+00 0.9000E+01
#aMCatNLO 1  0  0  5  5 0.27422519D+01 0.00000000D+00  -5  6  0 0.00000000D+00 0.00000000D+00 0.00000000D+00 0.00000000D+00 0.00000000D+00
  <mgrwgt>
 0.1944790513D+00   11    2    0
 0.140328346939827D+03 0.000000000000000D+00 0.000000000000000D+00 0.140328346939827D+03
 0.140328346939827D+03 -.000000000000000D+00 -.000000000000000D+00 -.140328346939827D+03
 0.142527250132435D+03 0.423402461659662D+02 -.455840890740730D+02 -.286078906633455D+02
 0.110040720698850D+03 -.222013122720214D+02 0.651017734686231D+02 0.301762337310691D+02
 0.280887230483698D+02 -.201389338939449D+02 -.195176843945501D+02 -.156834306772360D+01
 0.000000000000000D+00 0.000000000000000D+00 0.000000000000000D+00 0.000000000000000D+00
 0.140328346939827D+03 0.000000000000000D+00 0.000000000000000D+00 0.140328346939827D+03
 0.140328346939827D+03 -.000000000000000D+00 -.000000000000000D+00 -.140328346939827D+03
 0.142714909901755D+03 0.387835362100689D+02 -.490310809936915D+02 -.288848736174884D+02
 0.109028597581303D+03 -.249329071571017D+02 0.624544433198908D+02 0.299635075796052D+02
 0.237964746530525D+02 -.157358151697039D+02 -.178374471244012D+02 0.694123146478232D+00
 0.511671174354456D+01 0.188518611673672D+01 0.441408479820178D+01 -.177275710859494D+01
0.142421726923D-03 0.000000000000D+00 0.000000000000D+00 0.268815441630D-04 0.000000000000D+00  6 -2 1 25 -24 21 21 2 0.41777424D-02 0.11156358D+00 0.18699722D+05 0.18699722D+05 0.18699722D+05 0.12370531D+01  1  2  2  3  6  5       21 0.127545747262D+00 0.100000000000D+01
0.212139134804D-04 0.751580101471D-05 -.546936931887D-06 0.268815441630D-04 0.000000000000D+00  6 -2 1 25 -24 21 21 4 0.41777424D-02 0.11156358D+00 0.18699722D+05 0.18699722D+05 0.18699722D+05 0.12370531D+01  1  2  3  3  6  5       21 0.290728258370D-01 0.100000000000D+01
0.533110749727D-05 0.000000000000D+00 0.000000000000D+00 0.268815441630D-04 0.000000000000D+00  6 -2 1 25 -24 21 21 4 0.41777424D-02 0.11156358D+00 0.18699722D+05 0.18699722D+05 0.18699722D+05 0.12370531D+01  1  2 15  3  6  5       21 0.730607108063D-02 0.100000000000D+01
-.882452705325D-04 0.000000000000D+00 0.000000000000D+00 0.268815441630D-04 0.000000000000D+00  6 -2 1 25 -24 21 21 4 0.41777424D-02 0.11156358D+00 0.18699722D+05 0.18699722D+05 0.18699722D+05 0.12370531D+01  1  2  4  3  6  5       21 -.120936638282D+00 0.100000000000D+01
0.125279399186D-10 0.000000000000D+00 0.000000000000D+00 0.268815441630D-04 0.000000000000D+00  6 -2 1 25 -24 21 21 4 0.41777424D-02 0.11156358D+00 0.18699722D+05 0.18699722D+05 0.18699722D+05 0.12370531D+01  1  2  5  3  6  5       21 0.171690440656D-07 0.100000000000D+01
-.147635823986D-10 0.000000000000D+00 0.000000000000D+00 0.268815441630D-04 0.000000000000D+00  6 -2 1 25 -24 21 21 4 0.41777424D-02 0.11156358D+00 0.18699722D+05 0.18699722D+05 0.18699722D+05 0.12370531D+01  1  2  6  3  6  5       21 -.202329032877D-07 0.100000000000D+01
0.101592902736D-03 0.000000000000D+00 0.000000000000D+00 0.268815441630D-04 0.322738405395D-05  6 -2 1 25 -24 21 21 4 0.41777424D-02 0.11156358D+00 0.18656535D+05 0.18656535D+05 0.18656535D+05 0.12371646D+01  1  2 11  3  6  5       21 0.139271072033D+00 0.100000000000D+01
0.225118946009D-05 0.000000000000D+00 0.000000000000D+00 0.268863884768D-04 0.930998732043D-07  6 -2 1 25 -24 1 -1 4 0.41777424D-02 0.11156358D+00 0.18656535D+05 0.18656535D+05 0.18656535D+05 0.12371646D+01  1  2 11  6  6  5       21 0.308609716832D-02 0.100000000000D+01
0.213901797213D-05 0.000000000000D+00 0.000000000000D+00 0.268863884768D-04 0.971221377523D-07  6 -2 1 25 -24 2 -2 4 0.41777424D-02 0.11156358D+00 0.18656535D+05 0.18656535D+05 0.18656535D+05 0.12371646D+01  1  2 11  7  6  5       21 0.293232418853D-02 0.100000000000D+01
0.226189821317D-05 0.000000000000D+00 0.000000000000D+00 0.268863884768D-04 0.919365738085D-07  6 -2 1 25 -24 3 -3 4 0.41777424D-02 0.11156358D+00 0.18656535D+05 0.18656535D+05 0.18656535D+05 0.12371646D+01  1  2 11  8  6  5       21 0.310077751982D-02 0.100000000000D+01
0.226189821317D-05 0.000000000000D+00 0.000000000000D+00 0.268863884768D-04 0.919365738085D-07  6 -2 1 25 -24 4 -4 4 0.41777424D-02 0.11156358D+00 0.18656535D+05 0.18656535D+05 0.18656535D+05 0.12371646D+01  1  2 11  8  6  5       21 0.310077751982D-02 0.100000000000D+01
  </mgrwgt>
  </event>
  <event>
  5     66 0.49582427E-03 0.74908526E+02 0.75467711E-02 0.11532788E+00
       -2 -1    0    0    0  501 0.00000000E+00 0.00000000E+00 0.48002998E+02 0.48004065E+02 0.32000000E+00 0.0000E+00 0.9000E+01
        1 -1    0    0  502    0 0.00000000E+00 0.00000000E+00 -.21438789E+04 0.21438789E+04 0.32000000E+00 0.0000E+00 0.9000E+01
       25  1    1    2    0    0 -.49487936E+02 0.37445702E+02 -.97473968E+03 0.98467948E+03 0.12500000E+03 0.0000E+00 0.9000E+01
      -24  1    1    2    0    0 -.16426845E+02 -.18576893E+01 -.11289079E+04 0.11318893E+04 0.80419002E+02 0.0000E+00 0.9000E+01
       21  1    1    2  502  501 0.65914782E+02 -.35588012E+02 0.77716313E+01 0.75314181E+02 0.75000000E+00 0.0000E+00 0.9000E+01
#aMCatNLO 1  0  0  2  2 0.74741263D+02 0.00000000D+00  -5  6  0 0.00000000D+00 0.00000000D+00 0.00000000D+00 0.00000000D+00 0.00000000D+00
  <mgrwgt>
 0.5635913647D-01    4    2    0
 0.320801825368954D+03 0.000000000000000D+00 0.000000000000000D+00 0.320801825368954D+03
 0.320801825368954D+03 0.000000000000000D+00 0.000000000000000D+00 -.320801825368954D+03
 0.179813383503202D+03 -.494880014825007D+02 0.374457368572224D+02 -.113386980678372D+03
 0.179111129500904D+03 -.164269102314762D+02 -.185765432510918D+01 -.159186326351777D+03
 0.282679137733801D+03 0.659149117139769D+02 -.355880825321133D+02 0.272573307030148D+03
 0.000000000000000D+00 -.000000000000000D+00 -.000000000000000D+00 0.000000000000000D+00
 0.426070186073713D+03 0.000000000000000D+00 0.000000000000000D+00 0.426070186073713D+03
 0.336517020518278D+03 0.000000000000000D+00 0.000000000000000D+00 -.336517020518278D+03
 0.177019786114976D+03 -.299264256877985D+02 0.442584041102598D+02 -.113386980678372D+03
 0.178444017051694D+03 0.317424430121106D+01 0.496879692851265D+01 -.159186326351777D+03
 0.290478532556310D+03 0.973353853815229D+02 -.246453428328000D+02 0.272573307030148D+03
 0.116644870869011D+03 -.705832039949355D+02 -.245818582059725D+02 0.895531655554347D+02
0.145806046223D-02 0.000000000000D+00 0.000000000000D+00 0.168466178196D-04 0.000000000000D+00  6 -2 1 25 -24 21 21 2 0.73851606D-02 0.32982761D+00 0.21987916D+05 0.21987916D+05 0.21987916D+05 0.12293209D+01  1  2  2  2  6  2        1 0.583867565761D-01 0.100000000000D+01
0.324452992269D-04 0.769439645079D-04 -.559933609109D-05 0.168466178196D-04 0.000000000000D+00  6 -2 1 25 -24 21 21 4 0.73851606D-02 0.32982761D+00 0.21987916D+05 0.21987916D+05 0.21987916D+05 0.12293209D+01  1  2  3  2  6  2        1 0.196345583410D-02 0.100000000000D+01
0.984708831264D-04 0.000000000000D+00 0.000000000000D+00 0.168466178196D-04 0.000000000000D+00  6 -2 1 25 -24 21 21 4 0.73851606D-02 0.32982761D+00 0.21987916D+05 0.21987916D+05 0.21987916D+05 0.12293209D+01  1  2 15  2  6  2        1 0.595905214532D-02 0.100000000000D+01
-.164421769770D-03 0.000000000000D+00 0.000000000000D+00 0.168466178196D-04 0.000000000000D+00  6 -2 1 25 -24 21 21 4 0.73851606D-02 0.32982761D+00 0.21987916D+05 0.21987916D+05 0.21987916D+05 0.12293209D+01  1  2  4  2  6  2        1 -.995012808635D-02 0.100000000000D+01
  </mgrwgt>
  </event>
  <event>
  5     66 0.49582427E-03 0.45710317E+02 0.75467711E-02 0.11686939E+00
       -2 -1    0    0    0  501 0.00000000E+00 0.00000000E+00 0.97946978E+02 0.97947501E+02 0.32000000E+00 0.0000E+00 0.9000E+01
        1 -1    0    0  502    0 -.00000000E+00 -.00000000E+00 -.99981309E+03 0.99981314E+03 0.32000000E+00 0.0000E+00 0.9000E+01
       25  1    1    2    0    0 -.15634170E+02 -.10982493E+03 -.72378553E+03 0.74283002E+03 0.12500000E+03 0.0000E+00 0.9000E+01
      -24  1    1    2    0    0 -.29140762E+02 0.11901395E+03 0.23320320E+02 0.14840673E+03 0.80419002E+02 0.0000E+00 0.9000E+01
       21  1    1    2  502  501 0.44774932E+02 -.91890160E+01 -.20140090E+03 0.20652389E+03 0.75000000E+00 0.0000E+00 0.9000E+01
#aMCatNLO 1  0  0  5  1 0.38910997D+01 0.00000000D+00  -5  6  0 0.00000000D+00 0.00000000D+00 0.00000000D+00 0.00000000D+00 0.00000000D+00
  <mgrwgt>
 0.1888160777D+00   14    2    0
 0.312936072813755D+03 0.000000000000000D+00 0.000000000000000D+00 0.312936072813755D+03
 0.312936072813755D+03 -.000000000000000D+00 -.000000000000000D+00 -.312936072813755D+03
 0.259943343823266D+03 -.156351781979365D+02 -.109824727144228D+03 -.199096992715699D+03
 0.293906309182498D+03 -.291419024807012D+02 0.119014184054133D+03 0.254754933488326D+03
 0.720224926217464D+02 0.447770806786377D+02 -.918945690990436D+01 -.556579407726274D+02
 0.000000000000000D+00 0.000000000000000D+00 0.000000000000000D+00 0.000000000000000D+00
 0.312936072813755D+03 0.000000000000000D+00 0.000000000000000D+00 0.312936072813755D+03
 0.312936072813755D+03 -.000000000000000D+00 -.000000000000000D+00 -.312936072813755D+03
 0.261299685974256D+03 -.142552480360898D+02 -.110107925793376D+03 -.200812246815662D+03
 0.291956664841870D+03 -.275908985490428D+02 0.118695876482914D+03 0.252827034579822D+03
 0.405519657505365D+01 0.486110651768015D+00 -.323078321924795D+01 0.240215642429672D+01
 0.685605982363305D+02 0.413600359333646D+02 -.535716747029033D+01 -.544169441884564D+02
0.338882551098D-02 0.000000000000D+00 0.000000000000D+00 0.265287073993D-05 0.000000000000D+00  6 -2 1 25 -24 21 21 2 0.15068810D-01 0.15381744D+00 0.32291955D+05 0.32291955D+05 0.32291955D+05 0.12115570D+01  1  2  2  3  6  5       21 0.240654359014D+00 0.100000000000D+01
0.720843176483D-04 0.178833235380D-03 -.130139822604D-04 0.265287073993D-05 0.000000000000D+00  6 -2 1 25 -24 21 21 4 0.15068810D-01 0.15381744D+00 0.32291955D+05 0.32291955D+05 0.32291955D+05 0.12115570D+01  1  2  3  3  6  5       21 0.751403114744D-02 0.100000000000D+01
0.711577318954D-04 0.000000000000D+00 0.000000000000D+00 0.265287073993D-05 0.000000000000D+00  6 -2 1 25 -24 21 21 4 0.15068810D-01 0.15381744D+00 0.32291955D+05 0.32291955D+05 0.32291955D+05 0.12115570D+01  1  2 15  3  6  5       21 0.741744433861D-02 0.100000000000D+01
0.432174024056D-05 0.000000000000D+00 0.000000000000D+00 0.265423300330D-05 0.000000000000D+00  6 -2 1 25 -24 21 21 4 0.15068810D-01 0.15381744D+00 0.32070571D+05 0.32070571D+05 0.32070571D+05 0.12118680D+01  1  2 12  3  6  5       21 0.450989096513D-03 0.100000000000D+01
-.911008603211D-03 0.000000000000D+00 0.000000000000D+00 0.265287073993D-05 0.000000000000D+00  6 -2 1 25 -24 21 21 4 0.15068810D-01 0.15381744D+00 0.32291955D+05 0.32291955D+05 0.32291955D+05 0.12115570D+01  1  2  4  3  6  5       21 -.949630549810D-01 0.100000000000D+01
0.516611688284D-04 0.000000000000D+00 0.000000000000D+00 0.265287073993D-05 0.125167415042D-05  6 -2 1 25 -24 21 21 4 0.15068810D-01 0.15381744D+00 0.32070571D+05 0.32070571D+05 0.32070571D+05 0.12118680D+01  1  2 11  3  6  5       21 0.539102827978D-02 0.100000000000D+01
0.369325590824D-05 0.000000000000D+00 0.000000000000D+00 0.265423300330D-05 0.000000000000D+00  6 -2 1 25 -24 1 -1 4 0.15068810D-01 0.15381744D+00 0.32070571D+05 0.32070571D+05 0.32070571D+05 0.12118680D+01  1  2 12  6  6  5       21 0.385404502015D-03 0.100000000000D+01
0.495160147013D-04 0.000000000000D+00 0.000000000000D+00 0.265423300330D-05 0.363220050439D-08  6 -2 1 25 -24 1 -1 4 0.15068810D-01 0.15381744D+00 0.32070571D+05 0.32070571D+05 0.32070571D+05 0.12118680D+01  1  2 11  6  6  5       21 0.516717375179D-02 0.100000000000D+01
0.369325590824D-05 0.000000000000D+00 0.000000000000D+00 0.265423300330D-05 0.000000000000D+00  6 -2 1 25 -24 2 -2 4 0.15068810D-01 0.15381744D+00 0.32070571D+05 0.32070571D+05 0.32070571D+05 0.12118680D+01  1  2 12  7  6  5       21 0.385404502015D-03 0.100000000000D+01
0.499414893172D-04 0.000000000000D+00 0.000000000000D+00 0.265423300330D-05 0.339912396839D-08  6 -2 1 25 -24 2 -2 4 0.15068810D-01 0.15381744D+00 0.32070571D+05 0.32070571D+05 0.32070571D+05 0.12118680D+01  1  2 11  7  6  5       21 0.521157355417D-02 0.100000000000D+01
0.369325590824D-05 0.000000000000D+00 0.000000000000D+00 0.265423300330D-05 0.000000000000D+00  6 -2 1 25 -24 3 -3 4 0.15068810D-01 0.15381744D+00 0.32070571D+05 0.32070571D+05 0.32070571D+05 0.12118680D+01  1  2 12  8  6  5       21 0.385404502015D-03 0.100000000000D+01
0.369325590824D-05 0.000000000000D+00 0.000000000000D+00 0.265423300330D-05 0.000000000000D+00  6 -2 1 25 -24 4 -4 4 0.15068810D-01 0.15381744D+00 0.32070571D+05 0.32070571D+05 0.32070571D+05 0.12118680D+01  1  2 12  8  6  5       21 0.385404502015D-03 0.100000000000D+01
0.499787108802D-04 0.000000000000D+00 0.000000000000D+00 0.265423300330D-05 0.339843628325D-08  6 -2 1 25 -24 3 -3 4 0.15068810D-01 0.15381744D+00 0.32070571D+05 0.32070571D+05 0.32070571D+05 0.12118680D+01  1  2 11  8  6  5       21 0.521545775779D-02 0.100000000000D+01
0.499787108802D-04 0.000000000000D+00 0.000000000000D+00 0.265423300330D-05 0.339843628325D-08  6 -2 1 25 -24 4 -4 4 0.15068810D-01 0.15381744D+00 0.32070571D+05 0.32070571D+05 0.32070571D+05 0.12118680D+01  1  2 11  8  6  5       21 0.521545775779D-02 0.100000000000D+01
  </mgrwgt>
  </event>
  <event>
  5     66 0.49582427E-03 0.60770364E+02 0.75467711E-02 0.11639575E+00
       -4 -1    0    0    0  501 0.00000000E+00 0.00000000E+00 0.32505950E+03 0.32506319E+03 0.15500000E+01 0.0000E+00 0.9000E+01
        3 -1    0    0  502    0 0.00000000E+00 0.00000000E+00 -.15233805E+03 0.15233887E+03 0.50000000E+00 0.0000E+00 0.9000E+01
       25  1    1    2    0    0 -.88520206E+02 -.32515785E+02 0.50992767E+02 0.16467655E+03 0.12500000E+03 0.0000E+00 0.9000E+01
      -24  1    1    2    0    0 0.88067666E+02 0.93283479E+02 -.25412382E+02 0.15352761E+03 0.80419002E+02 0.0000E+00 0.9000E+01
       21  1    1    2  502  501 0.45253922E+00 -.60767694E+02 0.14714107E+03 0.15919791E+03 0.75000000E+00 0.0000E+00 0.9000E+01
#aMCatNLO 1  0  0  5  2 0.13660819D+02 0.00000000D+00  -5  6  0 0.00000000D+00 0.00000000D+00 0.00000000D+00 0.00000000D+00 0.00000000D+00
  <mgrwgt>
 0.1025214154D-01   20    2    0
 0.222530912722507D+03 0.000000000000000D+00 0.000000000000000D+00 0.222530912722507D+03
 0.222530912722507D+03 -.000000000000000D+00 -.000000000000000D+00 -.222530912722507D+03
 0.156853164407855D+03 -.885202090165096D+02 -.325153184158135D+02 -.921096350818698D+01
 0.174546455321991D+03 0.880676624581578D+02 0.932839974771794D+02 -.868414172784790D+02
 0.113662205715169D+03 0.452546558351775D+00 -.607686790613659D+02 0.960523807866660D+02
 0.000000000000000D+00 0.000000000000000D+00 0.000000000000000D+00 0.000000000000000D+00
 0.222530912722507D+03 0.000000000000000D+00 0.000000000000000D+00 0.222530912722507D+03
 0.222530912722507D+03 -.000000000000000D+00 -.000000000000000D+00 -.222530912722507D+03
 0.156943571080333D+03 -.885145386118183D+02 -.332767494696399D+02 -.800742795904224D+01
 0.173437954038915D+03 0.880739506447582D+02 0.924396096758767D+02 -.855067583740056D+02
 0.805711433154955D+02 0.414006573494817D+01 -.535278722960754D+02 0.600777486123728D+02
 0.341091570102714D+02 -.369947776788799D+01 -.563498791016143D+01 0.334364377206750D+02
0.672255086916D-04 0.000000000000D+00 0.000000000000D+00 0.566957780443D-05 0.000000000000D+00  6 -4 3 25 -24 21 21 2 0.50009501D-01 0.23436970D-01 0.33996536D+05 0.33996536D+05 0.33996536D+05 0.12092390D+01  1  2  2  3  6  5       21 0.132700526005D-02 0.100000000000D+01
0.707624669815D-06 0.354758755812D-05 -.258163654259D-06 0.566957780443D-05 0.000000000000D+00  6 -4 3 25 -24 21 21 4 0.50009501D-01 0.23436970D-01 0.33996536D+05 0.33996536D+05 0.33996536D+05 0.12092390D+01  1  2  3  3  6  5       21 0.204251758043D-04 0.100000000000D+01
0.284874650672D-05 0.000000000000D+00 0.000000000000D+00 0.566957780443D-05 0.000000000000D+00  6 -4 3 25 -24 21 21 4 0.50009501D-01 0.23436970D-01 0.33996536D+05 0.33996536D+05 0.33996536D+05 0.12092390D+01  1  2 15  3  6  5       21 0.822274161767D-04 0.100000000000D+01
0.153903343142D-03 0.000000000000D+00 0.000000000000D+00 0.567117961329D-05 0.000000000000D+00  6 -4 3 25 -24 21 21 4 0.50009501D-01 0.23436970D-01 0.33867560D+05 0.33867560D+05 0.33867560D+05 0.12094098D+01  1  2 12  3  6  5       21 0.444378280621D-02 0.100000000000D+01
0.186020691709D-03 0.000000000000D+00 0.000000000000D+00 0.567117961329D-05 0.000000000000D+00  6 -4 3 25 -24 21 21 4 0.50009501D-01 0.23436970D-01 0.33867560D+05 0.33867560D+05 0.33867560D+05 0.12094098D+01  1  2 12  3  6  5       21 0.537113447013D-02 0.100000000000D+01
-.141923094969D-03 0.000000000000D+00 0.000000000000D+00 0.566957780443D-05 0.000000000000D+00  6 -4 3 25 -24 21 21 4 0.50009501D-01 0.23436970D-01 0.33996536D+05 0.33996536D+05 0.33996536D+05 0.12092390D+01  1  2  4  3  6  5       21 -.409652784744D-02 0.100000000000D+01
-.369638105778D-03 0.000000000000D+00 0.000000000000D+00 0.566957780443D-05 0.000000000000D+00  6 -4 3 25 -24 21 21 4 0.50009501D-01 0.23436970D-01 0.33996536D+05 0.33996536D+05 0.33996536D+05 0.12092390D+01  1  2  5  3  6  5       21 -.106693896024D-01 0.100000000000D+01
0.463649557320D-03 0.000000000000D+00 -.000000000000D+00 0.566957780443D-05 0.000000000000D+00  6 -4 3 25 -24 21 21 4 0.50009501D-01 0.23436970D-01 0.33996536D+05 0.33996536D+05 0.33996536D+05 0.12092390D+01  1  2  6  3  6  5       21 0.133829756421D-01 0.100000000000D+01
0.300222233853D-05 0.000000000000D+00 0.000000000000D+00 0.567117961329D-05 0.000000000000D+00  6 -4 3 25 -24 3 -3 4 0.50009501D-01 0.23436970D-01 0.33867560D+05 0.33867560D+05 0.33867560D+05 0.12094098D+01  1  2 12  6  6  5       21 0.866857323307D-04 0.100000000000D+01
0.350224775590D-05 0.000000000000D+00 0.000000000000D+00 0.567117961329D-05 0.000000000000D+00  6 -4 3 25 -24 3 -3 4 0.50009501D-01 0.23436970D-01 0.33867560D+05 0.33867560D+05 0.33867560D+05 0.12094098D+01  1  2 12  6  6  5       21 0.101123393703D-03 0.100000000000D+01
-.312433337264D-05 0.000000000000D+00 0.000000000000D+00 0.566957780443D-05 0.000000000000D+00  6 -4 3 25 -24 3 -3 4 0.50009501D-01 0.23436970D-01 0.33996536D+05 0.33996536D+05 0.33996536D+05 0.12092390D+01  1  2  5  6  6  5       21 -.901820712726D-04 0.100000000000D+01
0.300222233853D-05 0.000000000000D+00 0.000000000000D+00 0.567117961329D-05 0.000000000000D+00  6 -4 3 25 -24 4 -4 4 0.50009501D-01 0.23436970D-01 0.33867560D+05 0.33867560D+05 0.33867560D+05 0.12094098D+01  1  2 12  7  6  5       21 0.866857323307D-04 0.100000000000D+01
0.350224775590D-05 0.000000000000D+00 0.000000000000D+00 0.567117961329D-05 0.000000000000D+00  6 -4 3 25 -24 4 -4 4 0.50009501D-01 0.23436970D-01 0.33867560D+05 0.33867560D+05 0.33867560D+05 0.12094098D+01  1  2 12  7  6  5       21 0.101123393703D-03 0.100000000000D+01
-.312433337264D-05 0.000000000000D+00 0.000000000000D+00 0.566957780443D-05 0.000000000000D+00  6 -4 3 25 -24 4 -4 4 0.50009501D-01 0.23436970D-01 0.33996536D+05 0.33996536D+05 0.33996536D+05 0.12092390D+01  1  2  5  7  6  5       21 -.901820712726D-04 0.100000000000D+01
0.300222233853D-05 0.000000000000D+00 0.000000000000D+00 0.567117961329D-05 0.000000000000D+00  6 -4 3 25 -24 1 -1 4 0.50009501D-01 0.23436970D-01 0.33867560D+05 0.33867560D+05 0.33867560D+05 0.12094098D+01  1  2 12  8  6  5       21 0.866857323307D-04 0.100000000000D+01
0.300222233853D-05 0.000000000000D+00 0.000000000000D+00 0.567117961329D-05 0.000000000000D+00  6 -4 3 25 -24 2 -2 4 0.50009501D-01 0.23436970D-01 0.33867560D+05 0.33867560D+05 0.33867560D+05 0.12094098D+01  1  2 12  8  6  5       21 0.866857323307D-04 0.100000000000D+01
0.350224775590D-05 0.000000000000D+00 0.000000000000D+00 0.567117961329D-05 0.000000000000D+00  6 -4 3 25 -24 1 -1 4 0.50009501D-01 0.23436970D-01 0.33867560D+05 0.33867560D+05 0.33867560D+05 0.12094098D+01  1  2 12  8  6  5       21 0.101123393703D-03 0.100000000000D+01
0.350224775590D-05 0.000000000000D+00 0.000000000000D+00 0.567117961329D-05 0.000000000000D+00  6 -4 3 25 -24 2 -2 4 0.50009501D-01 0.23436970D-01 0.33867560D+05 0.33867560D+05 0.33867560D+05 0.12094098D+01  1  2 12  8  6  5       21 0.101123393703D-03 0.100000000000D+01
-.312433337264D-05 0.000000000000D+00 0.000000000000D+00 0.566957780443D-05 0.000000000000D+00  6 -4 3 25 -24 1 -1 4 0.50009501D-01 0.23436970D-01 0.33996536D+05 0.33996536D+05 0.33996536D+05 0.12092390D+01  1  2  5  8  6  5       21 -.901820712726D-04 0.100000000000D+01
-.312433337264D-05 0.000000000000D+00 0.000000000000D+00 0.566957780443D-05 0.000000000000D+00  6 -4 3 25 -24 2 -2 4 0.50009501D-01 0.23436970D-01 0.33996536D+05 0.33996536D+05 0.33996536D+05 0.12092390D+01  1  2  5  8  6  5       21 -.901820712726D-04 0.100000000000D+01
  </mgrwgt>
  </event>
  <event>
  5     66 0.49582427E-03 0.34878755E+02 0.75467711E-02 0.12299450E+00
       -2 -1    0    0    0  501 0.00000000E+00 0.00000000E+00 0.23390954E+03 0.23390976E+03 0.32000000E+00 0.0000E+00 0.9000E+01
        1 -1    0    0  502    0 0.00000000E+00 0.00000000E+00 -.16461554E+03 0.16461585E+03 0.32000000E+00 0.0000E+00 0.9000E+01
       25  1    1    2    0    0 0.96256500E+01 -.40185829E+02 0.62298202E+02 0.14564896E+03 0.12500000E+03 0.0000E+00 0.9000E+01
      -24  1    1    2    0    0 -.25772917E+02 0.92707546E+01 -.10529362E+03 0.13529284E+03 0.80419002E+02 0.0000E+00 0.9000E+01
       21  1    1    2  502  501 0.16147267E+02 0.30915075E+02 0.11228942E+03 0.11758381E+03 0.75000000E+00 0.0000E+00 0.9000E+01
#aMCatNLO 1  0  0  5  2 0.89589517D+01 0.00000000D+00  -5  6  0 0.00000000D+00 0.00000000D+00 0.00000000D+00 0.00000000D+00 0.00000000D+00
  <mgrwgt>
 0.9217733434D-01   14    2    0
 0.196227551304139D+03 0.000000000000000D+00 0.000000000000000D+00 0.196227551304139D+03
 0.196227551304139D+03 -.000000000000000D+00 -.000000000000000D+00 -.196227551304139D+03
 0.136901983141559D+03 0.962549017476600D+01 -.401861352555480D+02 0.375443399224177D+02
 0.155977661746171D+03 -.257730988323259D+02 0.927040603635697D+01 -.130811398425109D+03
 0.995754577205471D+02 0.161476086575599D+02 0.309157292191910D+02 0.932670585026912D+02
 0.000000000000000D+00 0.000000000000000D+00 0.000000000000000D+00 -.000000000000000D+00
 0.196227551304139D+03 0.000000000000000D+00 0.000000000000000D+00 0.196227551304139D+03
 0.196227551304139D+03 -.000000000000000D+00 -.000000000000000D+00 -.196227551304139D+03
 0.137559562113149D+03 0.101886250166586D+02 -.391079741076623D+02 0.407969534429411D+02
 0.152893716392208D+03 -.251393625668987D+02 0.104837385609321D+02 -.127150997767876D+03
 0.930336581914187D+02 0.217016941497116D+02 0.228402388920883D+02 0.875364010847055D+02
 0.896816591150228D+01 -.675095659947147D+01 0.578399665464187D+01 -.118235675977084D+01
0.294348438211D-03 0.000000000000D+00 0.000000000000D+00 0.142251309829D-04 0.000000000000D+00  6 -2 1 25 -24 21 21 2 0.35986124D-01 0.25325509D-01 0.15811469D+05 0.15811469D+05 0.15811469D+05 0.12452225D+01  1  2  2  3  6  5       21 0.537905597384D-01 0.100000000000D+01
0.990453711640D-05 0.155331938348D-04 -.113037550645D-05 0.142251309829D-04 0.000000000000D+00  6 -2 1 25 -24 21 21 4 0.35986124D-01 0.25325509D-01 0.15811469D+05 0.15811469D+05 0.15811469D+05 0.12452225D+01  1  2  3  3  6  5       21 0.280654765839D-02 0.100000000000D+01
0.132994482672D-04 0.000000000000D+00 0.000000000000D+00 0.142251309829D-04 0.000000000000D+00  6 -2 1 25 -24 21 21 4 0.35986124D-01 0.25325509D-01 0.15811469D+05 0.15811469D+05 0.15811469D+05 0.12452225D+01  1  2 15  3  6  5       21 0.376852900377D-02 0.100000000000D+01
0.333912623698D-03 0.000000000000D+00 0.000000000000D+00 0.141794018807D-04 0.000000000000D+00  6 -2 1 25 -24 21 21 4 0.35986124D-01 0.25325509D-01 0.16470282D+05 0.16470282D+05 0.16470282D+05 0.12432194D+01  1  2 12  3  6  5       21 0.940768541252D-01 0.100000000000D+01
-.233936341573D-03 0.000000000000D+00 0.000000000000D+00 0.142251309829D-04 0.000000000000D+00  6 -2 1 25 -24 21 21 4 0.35986124D-01 0.25325509D-01 0.15811469D+05 0.15811469D+05 0.15811469D+05 0.12452225D+01  1  2  4  3  6  5       21 -.662881550080D-01 0.100000000000D+01
0.957677232717D-07 0.000000000000D+00 0.000000000000D+00 0.142251309829D-04 0.853789598972D-06  6 -2 1 25 -24 21 21 4 0.35986124D-01 0.25325509D-01 0.16470282D+05 0.16470282D+05 0.16470282D+05 0.12432194D+01  1  2 11  3  6  5       21 0.269816877013D-04 0.100000000000D+01
0.354525095565D-05 0.000000000000D+00 0.000000000000D+00 0.141794018807D-04 0.000000000000D+00  6 -2 1 25 -24 1 -1 4 0.35986124D-01 0.25325509D-01 0.16470282D+05 0.16470282D+05 0.16470282D+05 0.12432194D+01  1  2 12  6  6  5       21 0.998842311793D-03 0.100000000000D+01
0.588595182049D-09 0.000000000000D+00 0.000000000000D+00 0.141794018807D-04 0.393878110973D-08  6 -2 1 25 -24 1 -1 4 0.35986124D-01 0.25325509D-01 0.16470282D+05 0.16470282D+05 0.16470282D+05 0.12432194D+01  1  2 11  6  6  5       21 0.165831355722D-06 0.100000000000D+01
0.354525095565D-05 0.000000000000D+00 0.000000000000D+00 0.141794018807D-04 0.000000000000D+00  6 -2 1 25 -24 2 -2 4 0.35986124D-01 0.25325509D-01 0.16470282D+05 0.16470282D+05 0.16470282D+05 0.12432194D+01  1  2 12  7  6  5       21 0.998842311793D-03 0.100000000000D+01
0.530031412019D-09 0.000000000000D+00 0.000000000000D+00 0.141794018807D-04 0.469862984886D-08  6 -2 1 25 -24 2 -2 4 0.35986124D-01 0.25325509D-01 0.16470282D+05 0.16470282D+05 0.16470282D+05 0.12432194D+01  1  2 11  7  6  5       21 0.149331544516D-06 0.100000000000D+01
0.354525095565D-05 0.000000000000D+00 0.000000000000D+00 0.141794018807D-04 0.000000000000D+00  6 -2 1 25 -24 3 -3 4 0.35986124D-01 0.25325509D-01 0.16470282D+05 0.16470282D+05 0.16470282D+05 0.12432194D+01  1  2 12  8  6  5       21 0.998842311793D-03 0.100000000000D+01
0.354525095565D-05 0.000000000000D+00 0.000000000000D+00 0.141794018807D-04 0.000000000000D+00  6 -2 1 25 -24 4 -4 4 0.35986124D-01 0.25325509D-01 0.16470282D+05 0.16470282D+05 0.16470282D+05 0.12432194D+01  1  2 12  8  6  5       21 0.998842311793D-03 0.100000000000D+01
0.590472178127D-09 0.000000000000D+00 0.000000000000D+00 0.141794018807D-04 0.393400974707D-08  6 -2 1 25 -24 3 -3 4 0.35986124D-01 0.25325509D-01 0.16470282D+05 0.16470282D+05 0.16470282D+05 0.12432194D+01  1  2 11  8  6  5       21 0.166360182348D-06 0.100000000000D+01
0.590472178127D-09 0.000000000000D+00 0.000000000000D+00 0.141794018807D-04 0.393400974707D-08  6 -2 1 25 -24 4 -4 4 0.35986124D-01 0.25325509D-01 0.16470282D+05 0.16470282D+05 0.16470282D+05 0.12432194D+01  1  2 11  8  6  5       21 0.166360182348D-06 0.100000000000D+01
  </mgrwgt>
  </event>
  <event>
  5     66 0.49582427E-03 0.76260707E+02 0.75467711E-02 0.99313613E-01
       -2 -1    0    0    0  501 0.00000000E+00 0.00000000E+00 0.43943124E+02 0.43944289E+02 0.32000000E+00 0.0000E+00 0.9000E+01
        1 -1    0    0  502    0 0.00000000E+00 0.00000000E+00 -.12413644E+04 0.12413645E+04 0.32000000E+00 0.0000E+00 0.9000E+01
       25  1    1    2    0    0 -.20316232E+01 0.46472033E+01 -.29132521E+03 0.31705063E+03 0.12500000E+03 0.0000E+00 0.9000E+01
      -24  1    1    2    0    0 0.37277480E+02 -.72273729E+02 -.82211077E+02 0.14085091E+03 0.80419002E+02 0.0000E+00 0.9000E+01
       21  1    1    2  502  501 -.35245856E+02 0.67626526E+02 -.82388502E+03 0.82740722E+03 0.75000000E+00 0.0000E+00 0.9000E+01
#aMCatNLO 1  0  0  1  5 0.24662668D+02 0.00000000D+00  -5  6  0 0.00000000D+00 0.00000000D+00 0.00000000D+00 0.00000000D+00 0.00000000D+00
  <mgrwgt>
 0.1472783021D+00    3    2    0
 0.233559856218351D+03 0.000000000000000D+00 0.000000000000000D+00 0.233559856218351D+03
 0.233559856218351D+03 0.000000000000000D+00 0.000000000000000D+00 -.233559856218351D+03
 0.125597250720377D+03 -.203152493722820D+01 0.464701482134716D+01 0.111331733210609D+02
 0.176819523723607D+03 0.372776179514567D+02 -.722739946401995D+02 0.134850943319231D+03
 0.164702937992719D+03 -.352460930142285D+02 0.676269798188524D+02 -.145984116640291D+03
 0.000000000000000D+00 -.000000000000000D+00 0.000000000000000D+00 -.000000000000000D+00
 0.501947003097892D+03 0.000000000000000D+00 0.000000000000000D+00 0.501947003097892D+03
 0.920453386425508D+03 0.000000000000000D+00 0.000000000000000D+00 -.920453386425508D+03
 0.189557103429206D+03 0.118197371567484D+02 -.141574156277971D+03 0.111331733210609D+02
 0.364799789863032D+03 0.610821790145333D+02 -.323567398268880D+03 0.134850943319231D+03
 0.171977307751410D+03 -.204487523960089D+02 -.885814912700369D+02 -.145984116640291D+03
 0.696066188479751D+03 -.524531637752728D+02 0.553723045816888D+03 -.418506383327616D+03
0.819589753910D-03 0.000000000000D+00 0.000000000000D+00 0.492873992071D-05 0.000000000000D+00  6 -2 1 25 -24 21 21 2 0.67605734D-02 0.19097924D+00 0.24921829D+05 0.24921829D+05 0.24921829D+05 0.12234435D+01  1  2  2  1  6  1       -2 0.142697802272D+00 0.100000000000D+01
-.264672612545D-04 0.432509395663D-04 -.314744045795D-05 0.492873992071D-05 0.000000000000D+00  6 -2 1 25 -24 21 21 4 0.67605734D-02 0.19097924D+00 0.24921829D+05 0.24921829D+05 0.24921829D+05 0.12234435D+01  1  2  3  1  6  1       -2 -.689759349350D-02 0.100000000000D+01
0.440434325518D-04 0.000000000000D+00 0.000000000000D+00 0.492873992071D-05 0.000000000000D+00  6 -2 1 25 -24 21 21 4 0.67605734D-02 0.19097924D+00 0.24921829D+05 0.24921829D+05 0.24921829D+05 0.12234435D+01  1  2 15  1  6  1       -2 0.114780932897D-01 0.100000000000D+01
  </mgrwgt>
  </event>
  <event>
  6     66 0.49582427E-03 0.77726122E+02 0.75467711E-02 0.11311930E+00
       -2 -1    0    0    0  501 0.00000000E+00 0.00000000E+00 0.42270208E+02 0.42271419E+02 0.32000000E+00 0.0000E+00 0.9000E+01
        1 -1    0    0  502    0 -.00000000E+00 -.00000000E+00 -.13467737E+04 0.13467737E+04 0.32000000E+00 0.0000E+00 0.9000E+01
       25  1    1    2    0    0 0.22239172E+02 0.12784683E+02 -.25888908E+03 0.28862880E+03 0.12500000E+03 0.0000E+00 0.9000E+01
      -24  1    1    2    0    0 -.11226210E+03 0.91935160E+01 -.59105626E+03 0.60704367E+03 0.80419002E+02 0.0000E+00 0.9000E+01
        1  1    1    2  502    0 0.10263961E+03 0.45759849E+02 -.19743636E+03 0.22717850E+03 0.32000000E+00 0.0000E+00 0.9000E+01
       -1  1    1    2    0  501 -.12616690E+02 -.67738048E+02 -.25712179E+03 0.26619418E+03 0.32000000E+00 0.0000E+00 0.9000E+01
#aMCatNLO 2  0  0  5  1 0.72095933D+02 0.00000000D+00  -5  6  0 0.00000000D+00 0.00000000D+00 0.00000000D+00 0.00000000D+00 0.00000000D+00
  <mgrwgt>
 0.3771200134D-03    1    2    0
 0.238598558190264D+03 0.000000000000000D+00 0.000000000000000D+00 0.238598558190264D+03
 0.238598558190264D+03 -.000000000000000D+00 -.000000000000000D+00 -.238598558190264D+03
 0.129605539704692D+03 -.564421520667440D+01 0.195921338459416D+02 0.275115802564665D+02
 0.183631908427697D+03 -.147896697954084D+03 0.178933484124627D+02 -.711326693952652D+02
 0.163959668248139D+03 0.153540913160758D+03 -.374854822584043D+02 0.436210891387987D+02
 0.000000000000000D+00 0.000000000000000D+00 0.000000000000000D+00 -.000000000000000D+00
 0.238598558190264D+03 0.000000000000000D+00 0.000000000000000D+00 0.238598558190264D+03
 0.238598558190264D+03 -.000000000000000D+00 -.000000000000000D+00 -.238598558190264D+03
 0.132442863187802D+03 0.222831025059769D+02 0.127739578230705D+02 0.354457522649111D+02
 0.151206385861984D+03 -.112211933903732D+03 0.918126925279101D+01 -.609946010361978D+02
 0.121432300711940D+03 0.102413782190579D+03 0.459721579373643D+02 0.463009888468666D+02
 0.721155666188011D+02 -.124849507928234D+02 -.679273850132259D+02 -.207521400755799D+02
0.178636732010D-05 0.000000000000D+00 0.000000000000D+00 0.904395061283D-06 0.668179575875D-10  6 -2 1 25 -24 1 -1 4 0.65032051D-02 0.20719605D+00 0.50017945D+05 0.50017945D+05 0.50017945D+05 0.11922663D+01  1  2  1  6  6  5       21 0.377120013393D-03 0.100000000000D+01
  </mgrwgt>
  </event>
  <event>
  5     66 -.49582427E-03 0.26587322E+02 0.75467711E-02 0.11684286E+00
       -2 -1    0    0    0  501 0.00000000E+00 0.00000000E+00 0.11867747E+03 0.11867790E+03 0.32000000E+00 0.0000E+00 0.9000E+01
        1 -1    0    0  502    0 -.00000000E+00 -.00000000E+00 -.41629698E+03 0.41629711E+03 0.32000000E+00 0.0000E+00 0.9000E+01
       25  1    1    2    0    0 -.10331548E+03 -.98028907E+02 -.29494223E+03 0.35057050E+03 0.12500000E+03 0.0000E+00 0.9000E+01
      -24  1    1    2    0    0 0.78925959E+02 0.87447958E+02 -.30563058E+02 0.14586901E+03 0.80419002E+02 0.0000E+00 0.9000E+01
       21  1    1    2  502  501 0.24389526E+02 0.10580949E+02 0.27885778E+02 0.38535498E+02 0.75000000E+00 0.0000E+00 0.9000E+01
#aMCatNLO 1  0  0  5  1 0.61021507D+00 0.00000000D+00  -5  6  0 0.00000000D+00 0.00000000D+00 0.00000000D+00 0.00000000D+00 0.00000000D+00
  <mgrwgt>
 -.5483243525D+00   25    2    0
 0.222272855459164D+03 0.000000000000000D+00 0.000000000000000D+00 0.222272855459164D+03
 0.222272855459164D+03 -.000000000000000D+00 -.000000000000000D+00 -.222272855459164D+03
 0.224423728172328D+03 -.103316303238299D+03 -.980292622766808D+02 -.120237327770657D+03
 0.155078955099961D+03 0.789253928373664D+02 0.874477122766485D+02 0.608764843233668D+02
 0.650430276460379D+02 0.243909104009328D+02 0.105815500000323D+02 0.593608434472905D+02
 0.000000000000000D+00 0.000000000000000D+00 0.000000000000000D+00 0.000000000000000D+00
 0.222272855459164D+03 0.000000000000000D+00 0.000000000000000D+00 0.222272855459164D+03
 0.222272855459164D+03 -.000000000000000D+00 -.000000000000000D+00 -.222272855459164D+03
 0.224419307365735D+03 -.103314040498451D+03 -.980282806284171D+02 -.120231820877159D+03
 0.155081627229746D+03 0.789269564412402D+02 0.874483906175673D+02 0.608802897100146D+02
 0.391855055202030D+02 0.152093357110003D+02 0.658201828679543D+01 0.355085480606606D+02
 0.258592708026428D+02 0.917774834621006D+01 0.399787172405438D+01 0.238429831064835D+02
0.193034535766D-04 0.000000000000D+00 0.000000000000D+00 0.202858720661D-04 0.000000000000D+00  6 -2 1 25 -24 21 21 2 0.18258115D-01 0.64045733D-01 0.32169073D+05 0.32169073D+05 0.32169073D+05 0.12117293D+01  1  2  2  3  6  5       21 0.349778634878D-02 0.100000000000D+01
0.292229927988D-05 0.101867123165D-05 -.741303444501D-07 0.202858720661D-04 0.000000000000D+00  6 -2 1 25 -24 21 21 4 0.18258115D-01 0.64045733D-01 0.32169073D+05 0.32169073D+05 0.32169073D+05 0.12117293D+01  1  2  3  3  6  5       21 0.777488865771D-03 0.100000000000D+01
0.525419869882D-06 0.000000000000D+00 0.000000000000D+00 0.202858720661D-04 0.000000000000D+00  6 -2 1 25 -24 21 21 4 0.18258115D-01 0.64045733D-01 0.32169073D+05 0.32169073D+05 0.32169073D+05 0.12117293D+01  1  2 15  3  6  5       21 0.139789959742D-03 0.100000000000D+01
0.150892795878D-09 0.000000000000D+00 0.000000000000D+00 0.202859110066D-04 0.000000000000D+00  6 -2 1 25 -24 21 21 4 0.18258115D-01 0.64045733D-01 0.32168246D+05 0.32168246D+05 0.32168246D+05 0.12117305D+01  1  2 12  3  6  5       21 0.401457483556D-07 0.100000000000D+01
0.150992400819D-09 0.000000000000D+00 0.000000000000D+00 0.202859110066D-04 0.000000000000D+00  6 -2 1 25 -24 21 21 4 0.18258115D-01 0.64045733D-01 0.32168246D+05 0.32168246D+05 0.32168246D+05 0.12117305D+01  1  2 12  3  6  5       21 0.401722487255D-07 0.100000000000D+01
-.288542276372D-01 0.000000000000D+00 0.000000000000D+00 0.202858720661D-04 0.000000000000D+00  6 -2 1 25 -24 21 21 4 0.18258115D-01 0.64045733D-01 0.32169073D+05 0.32169073D+05 0.32169073D+05 0.12117293D+01  1  2  4  3  6  5       21 -.767677728042D+01 0.100000000000D+01
-.159053306462D-01 0.000000000000D+00 0.000000000000D+00 0.202858720661D-04 0.000000000000D+00  6 -2 1 25 -24 21 21 4 0.18258115D-01 0.64045733D-01 0.32169073D+05 0.32169073D+05 0.32169073D+05 0.12117293D+01  1  2  5  3  6  5       21 -.423167386345D+01 0.100000000000D+01
0.261974232762D-01 0.000000000000D+00 -.000000000000D+00 0.202858720661D-04 0.000000000000D+00  6 -2 1 25 -24 21 21 4 0.18258115D-01 0.64045733D-01 0.32169073D+05 0.32169073D+05 0.32169073D+05 0.12117293D+01  1  2  6  3  6  5       21 0.696992435012D+01 0.100000000000D+01
0.164405225647D-01 0.000000000000D+00 0.000000000000D+00 0.202858720661D-04 0.314294102298D-03  6 -2 1 25 -24 21 21 4 0.18258115D-01 0.64045733D-01 0.32168246D+05 0.32168246D+05 0.32168246D+05 0.12117305D+01  1  2 11  3  6  5       21 0.437407947729D+01 0.100000000000D+01
0.408215321161D-12 0.000000000000D+00 0.000000000000D+00 0.202859110066D-04 0.000000000000D+00  6 -2 1 25 -24 1 -1 4 0.18258115D-01 0.64045733D-01 0.32168246D+05 0.32168246D+05 0.32168246D+05 0.12117305D+01  1  2 12  6  6  5       21 0.108607634069D-09 0.100000000000D+01
0.408784022671D-12 0.000000000000D+00 0.000000000000D+00 0.202859110066D-04 0.000000000000D+00  6 -2 1 25 -24 1 -1 4 0.18258115D-01 0.64045733D-01 0.32168246D+05 0.32168246D+05 0.32168246D+05 0.12117305D+01  1  2 12  6  6  5       21 0.108758939819D-09 0.100000000000D+01
-.430483690848D-04 0.000000000000D+00 0.000000000000D+00 0.202858720661D-04 0.000000000000D+00  6 -2 1 25 -24 1 -1 4 0.18258115D-01 0.64045733D-01 0.32169073D+05 0.32169073D+05 0.32169073D+05 0.12117293D+01  1  2  5  6  6  5       21 -.114531827330D-01 0.100000000000D+01
0.541353376415D-04 0.000000000000D+00 0.000000000000D+00 0.202858720661D-04 0.144935264463D-05  6 -2 1 25 -24 1 -1 4 0.18258115D-01 0.64045733D-01 0.32168246D+05 0.32168246D+05 0.32168246D+05 0.12117305D+01  1  2 11  6  6  5       21 0.144029648961D-01 0.100000000000D+01
0.408215321161D-12 0.000000000000D+00 0.000000000000D+00 0.202859110066D-04 0.000000000000D+00  6 -2 1 25 -24 2 -2 4 0.18258115D-01 0.64045733D-01 0.32168246D+05 0.32168246D+05 0.32168246D+05 0.12117305D+01  1  2 12  7  6  5       21 0.108607634069D-09 0.100000000000D+01
0.408784022671D-12 0.000000000000D+00 0.000000000000D+00 0.202859110066D-04 0.000000000000D+00  6 -2 1 25 -24 2 -2 4 0.18258115D-01 0.64045733D-01 0.32168246D+05 0.32168246D+05 0.32168246D+05 0.12117305D+01  1  2 12  7  6  5       21 0.108758939819D-09 0.100000000000D+01
-.430483690848D-04 0.000000000000D+00 0.000000000000D+00 0.202858720661D-04 0.000000000000D+00  6 -2 1 25 -24 2 -2 4 0.18258115D-01 0.64045733D-01 0.32169073D+05 0.32169073D+05 0.32169073D+05 0.12117293D+01  1  2  5  7  6  5       21 -.114531827330D-01 0.100000000000D+01
0.538200648977D-04 0.000000000000D+00 0.000000000000D+00 0.202858720661D-04 0.144101555218D-05  6 -2 1 25 -24 2 -2 4 0.18258115D-01 0.64045733D-01 0.32168246D+05 0.32168246D+05 0.32168246D+05 0.12117305D+01  1  2 11  7  6  5       21 0.143190850782D-01 0.100000000000D+01
0.408215321161D-12 0.000000000000D+00 0.000000000000D+00 0.202859110066D-04 0.000000000000D+00  6 -2 1 25 -24 3 -3 4 0.18258115D-01 0.64045733D-01 0.32168246D+05 0.32168246D+05 0.32168246D+05 0.12117305D+01  1  2 12  8  6  5       21 0.108607634069D-09 0.100000000000D+01
0.408215321161D-12 0.000000000000D+00 0.000000000000D+00 0.202859110066D-04 0.000000000000D+00  6 -2 1 25 -24 4 -4 4 0.18258115D-01 0.64045733D-01 0.32168246D+05 0.32168246D+05 0.32168246D+05 0.12117305D+01  1  2 12  8  6  5       21 0.108607634069D-09 0.100000000000D+01
0.408784022671D-12 0.000000000000D+00 0.000000000000D+00 0.202859110066D-04 0.000000000000D+00  6 -2 1 25 -24 3 -3 4 0.18258115D-01 0.64045733D-01 0.32168246D+05 0.32168246D+05 0.32168246D+05 0.12117305D+01  1  2 12  8  6  5       21 0.108758939819D-09 0.100000000000D+01
0.408784022671D-12 0.000000000000D+00 0.000000000000D+00 0.202859110066D-04 0.000000000000D+00  6 -2 1 25 -24 4 -4 4 0.18258115D-01 0.64045733D-01 0.32168246D+05 0.32168246D+05 0.32168246D+05 0.12117305D+01  1  2 12  8  6  5       21 0.108758939819D-09 0.100000000000D+01
-.430483690848D-04 0.000000000000D+00 0.000000000000D+00 0.202858720661D-04 0.000000000000D+00  6 -2 1 25 -24 3 -3 4 0.18258115D-01 0.64045733D-01 0.32169073D+05 0.32169073D+05 0.32169073D+05 0.12117293D+01  1  2  5  8  6  5       21 -.114531827330D-01 0.100000000000D+01
-.430483690848D-04 0.000000000000D+00 0.000000000000D+00 0.202858720661D-04 0.000000000000D+00  6 -2 1 25 -24 4 -4 4 0.18258115D-01 0.64045733D-01 0.32169073D+05 0.32169073D+05 0.32169073D+05 0.12117293D+01  1  2  5  8  6  5       21 -.114531827330D-01 0.100000000000D+01
0.541213720574D-04 0.000000000000D+00 0.000000000000D+00 0.202858720661D-04 0.144897828310D-05  6 -2 1 25 -24 3 -3 4 0.18258115D-01 0.64045733D-01 0.32168246D+05 0.32168246D+05 0.32168246D+05 0.12117305D+01  1  2 11  8  6  5       21 0.143992492858D-01 0.100000000000D+01
0.541213720574D-04 0.000000000000D+00 0.000000000000D+00 0.202858720661D-04 0.144897828310D-05  6 -2 1 25 -24 4 -4 4 0.18258115D-01 0.64045733D-01 0.32168246D+05 0.32168246D+05 0.32168246D+05 0.12117305D+01  1  2 11  8  6  5       21 0.143992492858D-01 0.100000000000D+01
  </mgrwgt>
  </event>
  <event>
  5     66 0.49582427E-03 0.60376313E+02 0.75467711E-02 0.11832552E+00
       -2 -1    0    0    0  501 0.00000000E+00 0.00000000E+00 0.57829335E+02 0.57830220E+02 0.32000000E+00 0.0000E+00 0.9000E+01
        1 -1    0    0  502    0 0.00000000E+00 0.00000000E+00 -.71360574E+03 0.71360581E+03 0.32000000E+00 0.0000E+00 0.9000E+01
       25  1    1    2    0    0 0.30423380E+02 0.86310546E+01 -.16391517E+03 0.20855038E+03 0.12500000E+03 0.0000E+00 0.9000E+01
      -24  1    1    2    0    0 0.63634772E+02 -.19627063E+02 -.44526147E+03 0.45733970E+03 0.80419002E+02 0.0000E+00 0.9000E+01
       21  1    1    2  502  501 -.94058152E+02 0.10996009E+02 -.46599761E+02 0.10554595E+03 0.75000000E+00 0.0000E+00 0.9000E+01
#aMCatNLO 1  0  0  2  5 0.17965163D+01 0.00000000D+00  -5  6  0 0.00000000D+00 0.00000000D+00 0.00000000D+00 0.00000000D+00 0.00000000D+00
  <mgrwgt>
 0.6357017567D-01   11    4    0
 0.203144565725586D+03 0.000000000000000D+00 0.000000000000000D+00 0.203144565725586D+03
 0.203144565725586D+03 0.000000000000000D+00 0.000000000000000D+00 -.203144565725586D+03
 0.131412787378778D+03 0.304239257846461D+02 0.863099072955020D+01 0.253813204056970D+02
 0.149688040714361D+03 0.636353943310584D+02 -.196271357950573D+02 -.107259525019211D+03
 0.125188303358032D+03 -.940593201157045D+02 0.109961450655071D+02 0.818782046135142D+02
 0.000000000000000D+00 0.000000000000000D+00 -.000000000000000D+00 -.000000000000000D+00
 0.203551119102397D+03 0.000000000000000D+00 0.000000000000000D+00 0.203551119102397D+03
 0.205140947693161D+03 0.000000000000000D+00 0.000000000000000D+00 -.205140947693161D+03
 0.131421950039992D+03 0.302970792142313D+02 0.919807142090230D+01 0.253813204056970D+02
 0.149543387946730D+03 0.634909823676371D+02 -.189815272004482D+02 -.107259525019211D+03
 0.125327765334208D+03 -.941802215781957D+02 0.115366475379884D+02 0.818782046135142D+02
 0.239896347462820D+01 0.392159996327253D+00 -.175319175844255D+01 -.158982859076378D+01
 0.203144565725586D+03 0.000000000000000D+00 0.000000000000000D+00 0.203144565725586D+03
 0.203144565725586D+03 0.000000000000000D+00 0.000000000000000D+00 -.203144565725586D+03
 0.131412787378778D+03 0.304239257846461D+02 0.863099072955020D+01 0.253813204056970D+02
 0.149688040714361D+03 0.636353943310584D+02 -.196271357950573D+02 -.107259525019211D+03
 0.000000000000000D+00 0.000000000000000D+00 -.000000000000000D+00 -.000000000000000D+00
 0.125188303358032D+03 -.940593201157045D+02 0.109961450655071D+02 0.818782046135142D+02
 0.203551119102397D+03 0.000000000000000D+00 0.000000000000000D+00 0.203551119102397D+03
 0.205140947693161D+03 0.000000000000000D+00 0.000000000000000D+00 -.205140947693161D+03
 0.131421950039992D+03 0.302970792142313D+02 0.919807142090230D+01 0.253813204056970D+02
 0.149543387946730D+03 0.634909823676371D+02 -.189815272004482D+02 -.107259525019211D+03
 0.239896347462820D+01 0.392159996327253D+00 -.175319175844255D+01 -.158982859076378D+01
 0.125327765334208D+03 -.941802215781957D+02 0.115366475379884D+02 0.818782046135142D+02
0.526206802664D-04 0.000000000000D+00 0.000000000000D+00 0.241213134637D-05 0.000000000000D+00  6 -2 1 25 -24 21 21 2 0.88968944D-02 0.10978557D+00 0.26904279D+05 0.26904279D+05 0.26904279D+05 0.12198943D+01  1  2  2  2  6  2        1 0.149295835407D-01 0.100000000000D+01
-.394227544731D-05 0.277686958784D-05 -.202077267566D-06 0.241213134637D-05 0.000000000000D+00  6 -2 1 25 -24 21 21 4 0.88968944D-02 0.10978557D+00 0.26904279D+05 0.26904279D+05 0.26904279D+05 0.12198943D+01  1  2  3  2  6  2        1 -.166449530592D-02 0.100000000000D+01
0.231355998317D-05 0.000000000000D+00 0.000000000000D+00 0.241213134637D-05 0.000000000000D+00  6 -2 1 25 -24 21 21 4 0.88968944D-02 0.10978557D+00 0.26904279D+05 0.26904279D+05 0.26904279D+05 0.12198943D+01  1  2 15  2  6  2        1 0.976824116792D-03 0.100000000000D+01
0.401546284664D-07 0.000000000000D+00 0.000000000000D+00 0.241015431605D-05 0.000000000000D+00  6 -2 1 25 -24 21 21 4 0.88968944D-02 0.11107958D+00 0.27197473D+05 0.27197473D+05 0.27197473D+05 0.12193942D+01  1  2 12  2  6  2        1 0.166422837862D-04 0.100000000000D+01
-.301767763971D-02 0.000000000000D+00 0.000000000000D+00 0.241213134637D-05 0.000000000000D+00  6 -2 1 25 -24 21 21 4 0.88968944D-02 0.10978557D+00 0.26904279D+05 0.26904279D+05 0.26904279D+05 0.12198943D+01  1  2  4  2  6  2        1 -.127411448876D+01 0.100000000000D+01
-.136953133649D-01 0.000000000000D+00 -.126314377858D-02 0.241213134637D-05 0.000000000000D+00  6 -2 1 25 -24 21 21 4 0.88968944D-02 0.11100123D+00 0.26904279D+05 0.26904279D+05 0.26904279D+05 0.12198943D+01  1  2  5  2  6  2        1 -.569065367119D+01 0.100000000000D+01
0.137084686893D-01 0.000000000000D+00 0.126306719316D-02 0.241213134637D-05 0.000000000000D+00  6 -2 1 25 -24 21 21 4 0.88968944D-02 0.10978557D+00 0.26904279D+05 0.26904279D+05 0.26904279D+05 0.12198943D+01  1  2  6  2  6  2        1 0.578794711069D+01 0.100000000000D+01
0.300383231612D-02 0.000000000000D+00 0.000000000000D+00 0.241213134637D-05 0.256915333969D-05  6 -2 1 25 -24 21 21 4 0.89146997D-02 0.11086448D+00 0.27197473D+05 0.27197473D+05 0.27197473D+05 0.12193942D+01  1  2 11  2  6  2        1 0.124457200773D+01 0.100000000000D+01
0.501527613286D-08 0.000000000000D+00 0.000000000000D+00 0.241015431605D-05 0.000000000000D+00  6 -2 21 25 -24 -1 21 4 0.88968944D-02 0.11107958D+00 0.27197473D+05 0.27197473D+05 0.27197473D+05 0.12193942D+01  3  4 12  5  5  2        1 0.446372893260D-05 0.100000000000D+01
-.277597628100D-04 0.000000000000D+00 -.256555899618D-05 0.241213134637D-05 0.000000000000D+00  6 -2 21 25 -24 -1 21 4 0.88968944D-02 0.11100123D+00 0.26904279D+05 0.26904279D+05 0.26904279D+05 0.12198943D+01  3  4  5  5  5  2        1 -.247960129189D-01 0.100000000000D+01
0.712606993374D-05 0.000000000000D+00 0.000000000000D+00 0.241213134637D-05 0.113187311562D-07  6 -2 21 25 -24 -1 21 4 0.89146997D-02 0.11086448D+00 0.27197473D+05 0.27197473D+05 0.27197473D+05 0.12193942D+01  3  4 11  5  5  2        1 0.635221174785D-02 0.100000000000D+01
  </mgrwgt>
  </event>
  <event>
  6     66 -.49582427E-03 0.15670567E+02 0.75467711E-02 0.11631731E+00
       -2 -1    0    0    0  501 0.00000000E+00 0.00000000E+00 0.39748662E+02 0.39749950E+02 0.32000000E+00 0.0000E+00 0.9000E+01
        1 -1    0    0  502    0 -.00000000E+00 -.00000000E+00 -.97479272E+03 0.97479277E+03 0.32000000E+00 0.0000E+00 0.9000E+01
       25  1    1    2    0    0 0.10601473E+03 0.10326133E+03 -.63463336E+03 0.66354090E+03 0.12500000E+03 0.0000E+00 0.9000E+01
      -24  1    1    2    0    0 -.96135550E+02 -.88358987E+02 -.27010172E+03 0.31059863E+03 0.80419002E+02 0.0000E+00 0.9000E+01
       21  1    1    2  502  503 -.15988310E+02 -.11169329E+02 -.22042430E+02 0.29441658E+02 0.75000000E+00 0.0000E+00 0.9000E+01
       21  1    1    2  503  501 0.61091340E+01 -.37330144E+01 -.82665492E+01 0.10961535E+02 0.75000000E+00 0.0000E+00 0.9000E+01
#aMCatNLO 2  0  0  5  2 0.82790949D+01 0.00000000D+00  -5  6  0 0.00000000D+00 0.00000000D+00 0.00000000D+00 0.00000000D+00 0.00000000D+00
  <mgrwgt>
 -.2368958653D+00    3    2    0
 0.196843558373033D+03 0.000000000000000D+00 0.000000000000000D+00 0.196843558373033D+03
 0.196843558373033D+03 -.000000000000000D+00 -.000000000000000D+00 -.196843558373033D+03
 0.205221217327110D+03 0.107417517164061D+03 0.105377385515349D+03 -.620308928637930D+02
 0.156832958397651D+03 -.950496332145820D+02 -.867209252963193D+02 0.396788259265883D+02
 0.316329410213038D+02 -.123678839494785D+02 -.186564602190297D+02 0.223520669372047D+02
 0.000000000000000D+00 0.000000000000000D+00 0.000000000000000D+00 0.000000000000000D+00
 0.196843558373033D+03 0.000000000000000D+00 0.000000000000000D+00 0.196843558373033D+03
 0.196843558373033D+03 -.000000000000000D+00 -.000000000000000D+00 -.196843558373033D+03
 0.202583821112930D+03 0.105978761398661D+03 0.103207079761211D+03 -.594306772322544D+02
 0.158958388919114D+03 -.961637602576248D+02 -.884015415555258D+02 0.416923508225501D+02
 0.231711532926604D+02 -.160798775600272D+02 -.108222399145219D+02 0.126972046450797D+02
 0.897375342136043D+01 0.626487641899051D+01 -.398329829116313D+01 0.504112176462458D+01
-.129403210444D-03 0.000000000000D+00 0.000000000000D+00 0.324359737447D-04 0.000000000000D+00  6 -2 1 25 -24 21 21 4 0.61152819D-02 0.14996821D+00 0.34944732D+05 0.34944732D+05 0.34944732D+05 0.12080050D+01  1  2 13  3  6  5       21 -.578791505090D-01 0.100000000000D+01
-.161571417648D-03 0.000000000000D+00 0.000000000000D+00 0.324359737447D-04 0.000000000000D+00  6 -2 1 25 -24 21 21 4 0.61152819D-02 0.14996821D+00 0.34944732D+05 0.34944732D+05 0.34944732D+05 0.12080050D+01  1  2 13  3  6  5       21 -.722672673103D-01 0.100000000000D+01
-.237917513028D-03 0.000000000000D+00 0.000000000000D+00 0.324895496734D-04 0.000000000000D+00  6 -2 1 25 -24 21 21 4 0.61152819D-02 0.14996821D+00 0.34176196D+05 0.34176196D+05 0.34176196D+05 0.12090023D+01  1  2  8  3  6  5       21 -.106749447478D+00 0.100000000000D+01
  </mgrwgt>
  </event>
  <event>
  5     66 -.49582427E-03 0.43304571E+02 0.75467711E-02 0.11682347E+00
       -2 -1    0    0    0  501 0.00000000E+00 0.00000000E+00 0.66891299E+02 0.66892065E+02 0.32000000E+00 0.0000E+00 0.9000E+01
        1 -1    0    0  502    0 -.00000000E+00 -.00000000E+00 -.15739174E+04 0.15739175E+04 0.32000000E+00 0.0000E+00 0.9000E+01
       25  1    1    2    0    0 -.82627886E+02 -.75774797E+02 -.14094376E+04 0.14194043E+04 0.12500000E+03 0.0000E+00 0.9000E+01
      -24  1    1    2    0    0 0.52883972E+02 0.10985344E+03 -.46752062E+02 0.15335405E+03 0.80419002E+02 0.0000E+00 0.9000E+01
       21  1    1    2  502  501 0.29743914E+02 -.34078644E+02 -.50836438E+02 0.68051159E+02 0.75000000E+00 0.0000E+00 0.9000E+01
#aMCatNLO 1  0  0  5  1 0.22759629D+01 0.00000000D+00  -5  6  0 0.00000000D+00 0.00000000D+00 0.00000000D+00 0.00000000D+00 0.00000000D+00
  <mgrwgt>
 -.5223799948D-01   25    2    0
 0.324471936193208D+03 0.000000000000000D+00 0.000000000000000D+00 0.324471936193208D+03
 0.324471936193208D+03 -.000000000000000D+00 -.000000000000000D+00 -.324471936193208D+03
 0.315764660944499D+03 -.826292817604612D+02 -.757731973437923D+02 -.267419418631938D+03
 0.279173201372905D+03 0.528827383047951D+02 0.109854854292677D+03 0.237919707859915D+03
 0.540060100690123D+02 0.297465434556661D+02 -.340816569488842D+02 0.294997107720228D+02
 0.000000000000000D+00 0.000000000000000D+00 0.000000000000000D+00 0.000000000000000D+00
 0.324471936193208D+03 0.000000000000000D+00 0.000000000000000D+00 0.324471936193208D+03
 0.324471936193208D+03 -.000000000000000D+00 -.000000000000000D+00 -.324471936193208D+03
 0.315712797194762D+03 -.825665192025525D+02 -.758451066051513D+02 -.267357176869012D+03
 0.279205613478726D+03 0.529382355870028D+02 0.109791269112213D+03 0.237974744633388D+03
 0.156248292126680D+02 0.102466067357769D+02 -.950221708476688D+01 0.698929243924865D+01
 0.384006325002607D+02 0.193816768797727D+02 -.244439454222947D+02 0.223931397963761D+02
0.130976986276D-03 0.000000000000D+00 0.000000000000D+00 0.230992439066D-05 0.000000000000D+00  6 -2 1 25 -24 21 21 2 0.10291030D-01 0.24214121D+00 0.32256690D+05 0.32256690D+05 0.32256690D+05 0.12116063D+01  1  2  2  3  6  5       21 0.697880060023D-02 0.100000000000D+01
0.711861480185D-05 0.691184545803D-05 -.502986114333D-06 0.230992439066D-05 0.000000000000D+00  6 -2 1 25 -24 21 21 4 0.10291030D-01 0.24214121D+00 0.32256690D+05 0.32256690D+05 0.32256690D+05 0.12116063D+01  1  2  3  3  6  5       21 0.556806593345D-03 0.100000000000D+01
0.414331090834D-05 0.000000000000D+00 0.000000000000D+00 0.230992439066D-05 0.000000000000D+00  6 -2 1 25 -24 21 21 4 0.10291030D-01 0.24214121D+00 0.32256690D+05 0.32256690D+05 0.32256690D+05 0.12116063D+01  1  2 15  3  6  5       21 0.324083111147D-03 0.100000000000D+01
0.124946465448D-05 0.000000000000D+00 0.000000000000D+00 0.231001418682D-05 0.000000000000D+00  6 -2 1 25 -24 21 21 4 0.10291030D-01 0.24214121D+00 0.32239889D+05 0.32239889D+05 0.32239889D+05 0.12116299D+01  1  2 12  3  6  5       21 0.977396912447D-04 0.100000000000D+01
0.125180234133D-05 0.000000000000D+00 0.000000000000D+00 0.231001418682D-05 0.000000000000D+00  6 -2 1 25 -24 21 21 4 0.10291030D-01 0.24214121D+00 0.32239889D+05 0.32239889D+05 0.32239889D+05 0.12116299D+01  1  2 12  3  6  5       21 0.979225573948D-04 0.100000000000D+01
-.605050500593D-02 0.000000000000D+00 0.000000000000D+00 0.230992439066D-05 0.000000000000D+00  6 -2 1 25 -24 21 21 4 0.10291030D-01 0.24214121D+00 0.32256690D+05 0.32256690D+05 0.32256690D+05 0.12116063D+01  1  2  4  3  6  5       21 -.473260764087D+00 0.100000000000D+01
-.892231744545D-03 0.000000000000D+00 0.000000000000D+00 0.230992439066D-05 0.000000000000D+00  6 -2 1 25 -24 21 21 4 0.10291030D-01 0.24214121D+00 0.32256690D+05 0.32256690D+05 0.32256690D+05 0.12116063D+01  1  2  5  3  6  5       21 -.697889311309D-01 0.100000000000D+01
0.532468348318D-02 0.000000000000D+00 -.000000000000D+00 0.230992439066D-05 0.000000000000D+00  6 -2 1 25 -24 21 21 4 0.10291030D-01 0.24214121D+00 0.32256690D+05 0.32256690D+05 0.32256690D+05 0.12116063D+01  1  2  6  3  6  5       21 0.416488172690D+00 0.100000000000D+01
0.866123100103D-03 0.000000000000D+00 0.000000000000D+00 0.230992439066D-05 0.240337601109D-05  6 -2 1 25 -24 21 21 4 0.10291030D-01 0.24214121D+00 0.32239889D+05 0.32239889D+05 0.32239889D+05 0.12116299D+01  1  2 11  3  6  5       21 0.677527003908D-01 0.100000000000D+01
0.149007571728D-06 0.000000000000D+00 0.000000000000D+00 0.231001418682D-05 0.000000000000D+00  6 -2 1 25 -24 1 -1 4 0.10291030D-01 0.24214121D+00 0.32239889D+05 0.32239889D+05 0.32239889D+05 0.12116299D+01  1  2 12  6  6  5       21 0.116561552995D-04 0.100000000000D+01
0.149223473820D-06 0.000000000000D+00 0.000000000000D+00 0.231001418682D-05 0.000000000000D+00  6 -2 1 25 -24 1 -1 4 0.10291030D-01 0.24214121D+00 0.32239889D+05 0.32239889D+05 0.32239889D+05 0.12116299D+01  1  2 12  6  6  5       21 0.116730442957D-04 0.100000000000D+01
-.104355758959D-03 0.000000000000D+00 0.000000000000D+00 0.230992439066D-05 0.000000000000D+00  6 -2 1 25 -24 1 -1 4 0.10291030D-01 0.24214121D+00 0.32256690D+05 0.32256690D+05 0.32256690D+05 0.12116063D+01  1  2  5  6  6  5       21 -.816253951915D-02 0.100000000000D+01
0.991499628665D-04 0.000000000000D+00 0.000000000000D+00 0.230992439066D-05 0.753499933535D-07  6 -2 1 25 -24 1 -1 4 0.10291030D-01 0.24214121D+00 0.32239889D+05 0.32239889D+05 0.32239889D+05 0.12116299D+01  1  2 11  6  6  5       21 0.775603113120D-02 0.100000000000D+01
0.149007571728D-06 0.000000000000D+00 0.000000000000D+00 0.231001418682D-05 0.000000000000D+00  6 -2 1 25 -24 2 -2 4 0.10291030D-01 0.24214121D+00 0.32239889D+05 0.32239889D+05 0.32239889D+05 0.12116299D+01  1  2 12  7  6  5       21 0.116561552995D-04 0.100000000000D+01
0.149223473820D-06 0.000000000000D+00 0.000000000000D+00 0.231001418682D-05 0.000000000000D+00  6 -2 1 25 -24 2 -2 4 0.10291030D-01 0.24214121D+00 0.32239889D+05 0.32239889D+05 0.32239889D+05 0.12116299D+01  1  2 12  7  6  5       21 0.116730442957D-04 0.100000000000D+01
-.104355758959D-03 0.000000000000D+00 0.000000000000D+00 0.230992439066D-05 0.000000000000D+00  6 -2 1 25 -24 2 -2 4 0.10291030D-01 0.24214121D+00 0.32256690D+05 0.32256690D+05 0.32256690D+05 0.12116063D+01  1  2  5  7  6  5       21 -.816253951915D-02 0.100000000000D+01
0.994717152191D-04 0.000000000000D+00 0.000000000000D+00 0.230992439066D-05 0.755981751120D-07  6 -2 1 25 -24 2 -2 4 0.10291030D-01 0.24214121D+00 0.32239889D+05 0.32239889D+05 0.32239889D+05 0.12116299D+01  1  2 11  7  6  5       21 0.778120029104D-02 0.100000000000D+01
0.149007571728D-06 0.000000000000D+00 0.000000000000D+00 0.231001418682D-05 0.000000000000D+00  6 -2 1 25 -24 3 -3 4 0.10291030D-01 0.24214121D+00 0.32239889D+05 0.32239889D+05 0.32239889D+05 0.12116299D+01  1  2 12  8  6  5       21 0.116561552995D-04 0.100000000000D+01
0.149007571728D-06 0.000000000000D+00 0.000000000000D+00 0.231001418682D-05 0.000000000000D+00  6 -2 1 25 -24 4 -4 4 0.10291030D-01 0.24214121D+00 0.32239889D+05 0.32239889D+05 0.32239889D+05 0.12116299D+01  1  2 12  8  6  5       21 0.116561552995D-04 0.100000000000D+01
0.149223473820D-06 0.000000000000D+00 0.000000000000D+00 0.231001418682D-05 0.000000000000D+00  6 -2 1 25 -24 3 -3 4 0.10291030D-01 0.24214121D+00 0.32239889D+05 0.32239889D+05 0.32239889D+05 0.12116299D+01  1  2 12  8  6  5       21 0.116730442957D-04 0.100000000000D+01
0.149223473820D-06 0.000000000000D+00 0.000000000000D+00 0.231001418682D-05 0.000000000000D+00  6 -2 1 25 -24 4 -4 4 0.10291030D-01 0.24214121D+00 0.32239889D+05 0.32239889D+05 0.32239889D+05 0.12116299D+01  1  2 12  8  6  5       21 0.116730442957D-04 0.100000000000D+01
-.104355758959D-03 0.000000000000D+00 0.000000000000D+00 0.230992439066D-05 0.000000000000D+00  6 -2 1 25 -24 3 -3 4 0.10291030D-01 0.24214121D+00 0.32256690D+05 0.32256690D+05 0.32256690D+05 0.12116063D+01  1  2  5  8  6  5       21 -.816253951915D-02 0.100000000000D+01
-.104355758959D-03 0.000000000000D+00 0.000000000000D+00 0.230992439066D-05 0.000000000000D+00  6 -2 1 25 -24 4 -4 4 0.10291030D-01 0.24214121D+00 0.32256690D+05 0.32256690D+05 0.32256690D+05 0.12116063D+01  1  2  5  8  6  5       21 -.816253951915D-02 0.100000000000D+01
0.992970873235D-04 0.000000000000D+00 0.000000000000D+00 0.230992439066D-05 0.754564180249D-07  6 -2 1 25 -24 3 -3 4 0.10291030D-01 0.24214121D+00 0.32239889D+05 0.32239889D+05 0.32239889D+05 0.12116299D+01  1  2 11  8  6  5       21 0.776753997937D-02 0.100000000000D+01
0.992970873235D-04 0.000000000000D+00 0.000000000000D+00 0.230992439066D-05 0.754564180249D-07  6 -2 1 25 -24 4 -4 4 0.10291030D-01 0.24214121D+00 0.32239889D+05 0.32239889D+05 0.32239889D+05 0.12116299D+01  1  2 11  8  6  5       21 0.776753997937D-02 0.100000000000D+01
  </mgrwgt>
  </event>
  <event>
  5     66 0.49582427E-03 0.23197681E+02 0.75467711E-02 0.95085975E-01
       -2 -1    0    0    0  501 0.00000000E+00 0.00000000E+00 0.69368356E+03 0.69368364E+03 0.32000000E+00 0.0000E+00 0.9000E+01
        1 -1    0    0  502    0 0.00000000E+00 0.00000000E+00 -.35039782E+02 0.35041244E+02 0.32000000E+00 0.0000E+00 0.9000E+01
       25  1    1    2    0    0 -.55243214E+02 -.54213680E+01 0.48487233E+03 0.50379299E+03 0.12500000E+03 0.0000E+00 0.9000E+01
      -24  1    1    2    0    0 0.61014643E+02 -.17038439E+02 0.84644469E+02 0.13283447E+03 0.80419002E+02 0.0000E+00 0.9000E+01
       21  1    1    2  502  501 -.57714294E+01 0.22459807E+02 0.89126988E+02 0.92097421E+02 0.75000000E+00 0.0000E+00 0.9000E+01
#aMCatNLO 1  0  0  2  5 0.67114396D+00 0.00000000D+00  -5  6  0 0.00000000D+00 0.00000000D+00 0.00000000D+00 0.00000000D+00 0.00000000D+00
  <mgrwgt>
 0.3761406757D+00    3    2    0
 0.155907281592498D+03 0.000000000000000D+00 0.000000000000000D+00 0.155907281592498D+03
 0.155907281592498D+03 0.000000000000000D+00 0.000000000000000D+00 -.155907281592498D+03
 0.153193296374203D+03 -.552421169044746D+02 -.542563601952511D+01 0.690076593407597D+02
 0.131648620091208D+03 0.610155854878895D+02 -.170421070864323D+02 -.827696087412121D+02
 0.269726467195858D+02 -.577346858341488D+01 0.224677431059574D+02 0.137619494004523D+02
 0.000000000000000D+00 0.000000000000000D+00 -.000000000000000D+00 0.000000000000000D+00
 0.970374706412584D+03 0.000000000000000D+00 0.000000000000000D+00 0.970374706412584D+03
 0.752176422293516D+03 0.000000000000000D+00 0.000000000000000D+00 -.752176422293516D+03
 0.518374291996331D+03 -.369974140850916D+03 0.333832270244554D+03 0.690076593407597D+02
 0.228026307444736D+03 -.107547072785784D+03 0.164656004860274D+03 -.827696087412121D+02
 0.129277390998173D+03 -.790004846934972D+02 0.101401065034774D+03 0.137619494004523D+02
 0.846873138266860D+03 0.556521698330198D+03 -.599889340139602D+03 0.218198284119069D+03
0.198971929989D-02 0.000000000000D+00 0.000000000000D+00 0.282695865889D-04 0.000000000000D+00  6 -2 1 25 -24 21 21 2 0.10672067D+00 0.53908538D-02 0.17205909D+05 0.17205909D+05 0.17205909D+05 0.12410863D+01  1  2  2  2  6  2        1 0.287642510861D+00 0.100000000000D+01
0.323858011149D-03 0.105000372178D-03 -.764104601672D-05 0.282695865889D-04 0.000000000000D+00  6 -2 1 25 -24 21 21 4 0.10672067D+00 0.53908538D-02 0.17205909D+05 0.17205909D+05 0.17205909D+05 0.12410863D+01  1  2  3  2  6  2        1 0.721140479054D-01 0.100000000000D+01
0.735796653451D-04 0.000000000000D+00 0.000000000000D+00 0.282695865889D-04 0.000000000000D+00  6 -2 1 25 -24 21 21 4 0.10672067D+00 0.53908538D-02 0.17205909D+05 0.17205909D+05 0.17205909D+05 0.12410863D+01  1  2 15  2  6  2        1 0.163841168935D-01 0.100000000000D+01
  </mgrwgt>
  </event>
  <event>
  5     66 0.49582427E-03 0.23249685E+02 0.75467711E-02 0.11986370E+00
       -2 -1    0    0    0  501 0.00000000E+00 0.00000000E+00 0.11642371E+03 0.11642415E+03 0.32000000E+00 0.0000E+00 0.9000E+01
        1 -1    0    0  502    0 -.00000000E+00 -.00000000E+00 -.23039979E+03 0.23040001E+03 0.32000000E+00 0.0000E+00 0.9000E+01
       25  1    1    2    0    0 -.40823888E+02 -.69256269E+02 -.10487494E+03 0.18189770E+03 0.12500000E+03 0.0000E+00 0.9000E+01
      -24  1    1    2    0    0 0.51048313E+02 0.90132958E+02 -.29013420E+02 0.13430888E+03 0.80419002E+02 0.0000E+00 0.9000E+01
       21  1    1    2  502  501 -.10224425E+02 -.20876689E+02 0.19912280E+02 0.30617584E+02 0.75000000E+00 0.0000E+00 0.9000E+01
#aMCatNLO 1  0  0  5  2 0.94679887D+01 0.00000000D+00  -5  6  0 0.00000000D+00 0.00000000D+00 0.00000000D+00 0.00000000D+00 0.00000000D+00
  <mgrwgt>
 0.1472042874D+00   20    2    0
 0.163780686189372D+03 0.000000000000000D+00 0.000000000000000D+00 0.163780686189372D+03
 0.163780686189372D+03 -.000000000000000D+00 -.000000000000000D+00 -.163780686189372D+03
 0.156102715923198D+03 -.408230025144324D+02 -.692544608575260D+02 -.477531154547917D+02
 0.132112869346611D+03 0.510490624717910D+02 0.901344879973409D+02 0.160112956013119D+02
 0.393457871089354D+02 -.102260599573586D+02 -.208800271398149D+02 0.317418198534799D+02
 0.000000000000000D+00 -.000000000000000D+00 0.000000000000000D+00 0.000000000000000D+00
 0.163780686189372D+03 0.000000000000000D+00 0.000000000000000D+00 0.163780686189372D+03
 0.163780686189372D+03 -.000000000000000D+00 -.000000000000000D+00 -.163780686189372D+03
 0.156250470386809D+03 -.414232103346248D+02 -.704799920618613D+02 -.458900627656191D+02
 0.131414793923352D+03 0.505426762037327D+02 0.891005258394445D+02 0.175831250022747D+02
 0.212404744117713D+02 0.355221027956717D+01 -.841997834867575D+01 0.191740324390745D+02
 0.186556336568124D+02 -.126716761486750D+02 -.102005554289074D+02 0.913290532426995D+01
0.182602460141D-03 0.000000000000D+00 0.000000000000D+00 0.364011063926D-04 0.000000000000D+00  6 -2 1 25 -24 21 21 2 0.17911391D-01 0.35446172D-01 0.22953467D+05 0.22953467D+05 0.22953467D+05 0.12272944D+01  1  2  2  3  6  5       21 0.730993427239D-01 0.100000000000D+01
0.311140567137D-04 0.963619656122D-05 -.701241527275D-06 0.364011063926D-04 0.000000000000D+00  6 -2 1 25 -24 21 21 4 0.17911391D-01 0.35446172D-01 0.22953467D+05 0.22953467D+05 0.22953467D+05 0.12272944D+01  1  2  3  3  6  5       21 0.187612172391D-01 0.100000000000D+01
0.624762187164D-05 0.000000000000D+00 0.000000000000D+00 0.364011063926D-04 0.000000000000D+00  6 -2 1 25 -24 21 21 4 0.17911391D-01 0.35446172D-01 0.22953467D+05 0.22953467D+05 0.22953467D+05 0.12272944D+01  1  2 15  3  6  5       21 0.376720375103D-02 0.100000000000D+01
0.851503919410D-04 0.000000000000D+00 0.000000000000D+00 0.363646049992D-04 0.000000000000D+00  6 -2 1 25 -24 21 21 4 0.17911391D-01 0.35446172D-01 0.23256051D+05 0.23256051D+05 0.23256051D+05 0.12266789D+01  1  2 12  3  6  5       21 0.512564942295D-01 0.100000000000D+01
0.996756904033D-04 0.000000000000D+00 0.000000000000D+00 0.363646049992D-04 0.000000000000D+00  6 -2 1 25 -24 21 21 4 0.17911391D-01 0.35446172D-01 0.23256051D+05 0.23256051D+05 0.23256051D+05 0.12266789D+01  1  2 12  3  6  5       21 0.600000344510D-01 0.100000000000D+01
-.318158373826D-03 0.000000000000D+00 0.000000000000D+00 0.364011063926D-04 0.000000000000D+00  6 -2 1 25 -24 21 21 4 0.17911391D-01 0.35446172D-01 0.22953467D+05 0.22953467D+05 0.22953467D+05 0.12272944D+01  1  2  4  3  6  5       21 -.191843783750D+00 0.100000000000D+01
-.170001011164D-03 0.000000000000D+00 0.000000000000D+00 0.364011063926D-04 0.000000000000D+00  6 -2 1 25 -24 21 21 4 0.17911391D-01 0.35446172D-01 0.22953467D+05 0.22953467D+05 0.22953467D+05 0.12272944D+01  1  2  5  3  6  5       21 -.102507555689D+00 0.100000000000D+01
0.389289114310D-03 0.000000000000D+00 -.000000000000D+00 0.364011063926D-04 0.000000000000D+00  6 -2 1 25 -24 21 21 4 0.17911391D-01 0.35446172D-01 0.22953467D+05 0.22953467D+05 0.22953467D+05 0.12272944D+01  1  2  6  3  6  5       21 0.234734342410D+00 0.100000000000D+01
0.277964632362D-05 0.000000000000D+00 0.000000000000D+00 0.363646049992D-04 0.000000000000D+00  6 -2 1 25 -24 1 -1 4 0.17911391D-01 0.35446172D-01 0.23256051D+05 0.23256051D+05 0.23256051D+05 0.12266789D+01  1  2 12  6  6  5       21 0.167321514909D-02 0.100000000000D+01
0.325073074504D-05 0.000000000000D+00 0.000000000000D+00 0.363646049992D-04 0.000000000000D+00  6 -2 1 25 -24 1 -1 4 0.17911391D-01 0.35446172D-01 0.23256051D+05 0.23256051D+05 0.23256051D+05 0.12266789D+01  1  2 12  6  6  5       21 0.195678561046D-02 0.100000000000D+01
-.604620459048D-05 0.000000000000D+00 0.000000000000D+00 0.364011063926D-04 0.000000000000D+00  6 -2 1 25 -24 1 -1 4 0.17911391D-01 0.35446172D-01 0.22953467D+05 0.22953467D+05 0.22953467D+05 0.12272944D+01  1  2  5  6  6  5       21 -.364575274892D-02 0.100000000000D+01
0.277964632362D-05 0.000000000000D+00 0.000000000000D+00 0.363646049992D-04 0.000000000000D+00  6 -2 1 25 -24 2 -2 4 0.17911391D-01 0.35446172D-01 0.23256051D+05 0.23256051D+05 0.23256051D+05 0.12266789D+01  1  2 12  7  6  5       21 0.167321514909D-02 0.100000000000D+01
0.325073074504D-05 0.000000000000D+00 0.000000000000D+00 0.363646049992D-04 0.000000000000D+00  6 -2 1 25 -24 2 -2 4 0.17911391D-01 0.35446172D-01 0.23256051D+05 0.23256051D+05 0.23256051D+05 0.12266789D+01  1  2 12  7  6  5       21 0.195678561046D-02 0.100000000000D+01
-.604620459048D-05 0.000000000000D+00 0.000000000000D+00 0.364011063926D-04 0.000000000000D+00  6 -2 1 25 -24 2 -2 4 0.17911391D-01 0.35446172D-01 0.22953467D+05 0.22953467D+05 0.22953467D+05 0.12272944D+01  1  2  5  7  6  5       21 -.364575274892D-02 0.100000000000D+01
0.277964632362D-05 0.000000000000D+00 0.000000000000D+00 0.363646049992D-04 0.000000000000D+00  6 -2 1 25 -24 3 -3 4 0.17911391D-01 0.35446172D-01 0.23256051D+05 0.23256051D+05 0.23256051D+05 0.12266789D+01  1  2 12  8  6  5       21 0.167321514909D-02 0.100000000000D+01
0.277964632362D-05 0.000000000000D+00 0.000000000000D+00 0.363646049992D-04 0.000000000000D+00  6 -2 1 25 -24 4 -4 4 0.17911391D-01 0.35446172D-01 0.23256051D+05 0.23256051D+05 0.23256051D+05 0.12266789D+01  1  2 12  8  6  5       21 0.167321514909D-02 0.100000000000D+01
0.325073074504D-05 0.000000000000D+00 0.000000000000D+00 0.363646049992D-04 0.000000000000D+00  6 -2 1 25 -24 3 -3 4 0.17911391D-01 0.35446172D-01 0.23256051D+05 0.23256051D+05 0.23256051D+05 0.12266789D+01  1  2 12  8  6  5       21 0.195678561046D-02 0.100000000000D+01
0.325073074504D-05 0.000000000000D+00 0.000000000000D+00 0.363646049992D-04 0.000000000000D+00  6 -2 1 25 -24 4 -4 4 0.17911391D-01 0.35446172D-01 0.23256051D+05 0.23256051D+05 0.23256051D+05 0.12266789D+01  1  2 12  8  6  5       21 0.195678561046D-02 0.100000000000D+01
-.604620459048D-05 0.000000000000D+00 0.000000000000D+00 0.364011063926D-04 0.000000000000D+00  6 -2 1 25 -24 3 -3 4 0.17911391D-01 0.35446172D-01 0.22953467D+05 0.22953467D+05 0.22953467D+05 0.12272944D+01  1  2  5  8  6  5       21 -.364575274892D-02 0.100000000000D+01
-.604620459048D-05 0.000000000000D+00 0.000000000000D+00 0.364011063926D-04 0.000000000000D+00  6 -2 1 25 -24 4 -4 4 0.17911391D-01 0.35446172D-01 0.22953467D+05 0.22953467D+05 0.22953467D+05 0.12272944D+01  1  2  5  8  6  5       21 -.364575274892D-02 0.100000000000D+01
  </mgrwgt>
  </event>
  <event>
  6     66 0.49582427E-03 0.12843486E+02 0.75467711E-02 0.12326847E+00
       21 -1    0    0  503  501 0.00000000E+00 0.00000000E+00 0.36734214E+02 0.36741870E+02 0.75000000E+00 0.0000E+00 0.9000E+01
        1 -1    0    0  502    0 0.00000000E+00 0.00000000E+00 -.91834971E+03 0.91834976E+03 0.32000000E+00 0.0000E+00 0.9000E+01
       25  1    1    2    0    0 0.25401794E+02 0.12671235E+02 -.53143252E+03 0.54667297E+03 0.12500000E+03 0.0000E+00 0.9000E+01
      -24  1    1    2    0    0 0.49206083E+00 0.49176332E+01 -.35453890E+03 0.36357870E+03 0.80419002E+02 0.0000E+00 0.9000E+01
        2  1    1    2  503    0 -.23114563E+02 0.32114997E+01 0.48417293E+01 0.23835719E+02 0.32000000E+00 0.0000E+00 0.9000E+01
       21  1    1    2  502  501 -.27792916E+01 -.20800368E+02 -.48580346E+00 0.21004244E+02 0.75000000E+00 0.0000E+00 0.9000E+01
#aMCatNLO 2  0  0  1  2 0.23336597D+02 0.00000000D+00  -5  6  0 0.00000000D+00 0.00000000D+00 0.00000000D+00 0.00000000D+00 0.00000000D+00
  <mgrwgt>
 0.1067780899D+00    1    2    0
 0.142202824413246D+03 0.000000000000000D+00 0.000000000000000D+00 0.142202824413246D+03
 0.142202824413246D+03 0.000000000000000D+00 0.000000000000000D+00 -.142202824413246D+03
 0.131692003573673D+03 0.146572079871146D+02 0.141646800211712D+02 -.360875587864943D+02
 0.854616659715985D+02 -.642960476184164D+01 0.587971405694723D+01 -.275784252901719D+02
 0.000000000000000D+00 -.000000000000000D+00 0.000000000000000D+00 0.000000000000000D+00
 0.672519792812207D+02 -.822760322527295D+01 -.200443940781184D+02 0.636659840766662D+02
 0.234015982690129D+03 0.000000000000000D+00 0.000000000000000D+00 0.234015982690129D+03
 0.144171389390479D+03 0.000000000000000D+00 0.000000000000000D+00 -.144171389390479D+03
 0.133165882125245D+03 0.254020789870001D+02 0.126718051659664D+02 -.360875587864943D+02
 0.851599351745454D+02 0.492247269376661D+00 0.491800322310252D+01 -.275784252901719D+02
 0.928258998650969D+02 -.231145627377388D+02 0.321149965416901D+01 0.898445932996493D+02
 0.670356549157203D+02 -.277976351863798D+01 -.208013080432379D+02 0.636659840766662D+02
0.979466008611D-05 0.000000000000D+00 0.000000000000D+00 0.692055028323D-04 0.151797299977D-06  6 21 1 25 -24 2 21 4 0.56520000D-02 0.14128490D+00 0.16011916D+05 0.16011916D+05 0.16011916D+05 0.12446033D+01  1  2  1  4  5  1       -2 0.106778089908D+00 0.100000000000D+01
  </mgrwgt>
  </event>
  <event>
  6     66 -.49582427E-03 0.63801795E+01 0.75467711E-02 0.12485859E+00
       -2 -1    0    0    0  501 0.00000000E+00 0.00000000E+00 0.32894431E+03 0.32894447E+03 0.32000000E+00 0.0000E+00 0.9000E+01
        1 -1    0    0  502    0 0.00000000E+00 0.00000000E+00 -.18820102E+03 0.18820129E+03 0.32000000E+00 0.0000E+00 0.9000E+01
       25  1    1    2    0    0 -.24987762E+02 -.57889546E+01 -.55725897E+02 0.13924179E+03 0.12500000E+03 0.0000E+00 0.9000E+01
      -24  1    1    2    0    0 0.27784401E+00 0.81256615E+01 -.70811606E+02 0.10745977E+03 0.80419002E+02 0.0000E+00 0.9000E+01
        3  1    1    2  502    0 0.12171669E+02 -.37403215E+01 0.24048649E+03 0.24082388E+03 0.50000000E+00 0.0000E+00 0.9000E+01
       -3  1    1    2    0  501 0.12538249E+02 0.14036147E+01 0.26794305E+02 0.29620308E+02 0.50000000E+00 0.0000E+00 0.9000E+01
#aMCatNLO 2  0  0  5  2 0.10233453D+02 0.00000000D+00  -5  6  0 0.00000000D+00 0.00000000D+00 0.00000000D+00 0.00000000D+00 0.00000000D+00
  <mgrwgt>
 -.5409870201D-02    1    2    0
 0.248812707984061D+03 0.000000000000000D+00 0.000000000000000D+00 0.248812707984061D+03
 0.248812707984061D+03 -.000000000000000D+00 -.000000000000000D+00 -.248812707984061D+03
 0.161000098141954D+03 -.250926337638777D+02 -.577903740800865D+01 -.981478173937020D+02
 0.132257567861962D+03 0.191732179670849D+00 0.813380472859576D+01 -.104683584012964D+03
 0.204367749964206D+03 0.249009015842068D+02 -.235476732058711D+01 0.202831401406666D+03
 0.000000000000000D+00 0.000000000000000D+00 0.000000000000000D+00 0.000000000000000D+00
 0.248812707984061D+03 0.000000000000000D+00 0.000000000000000D+00 0.248812707984061D+03
 0.248812707984061D+03 -.000000000000000D+00 -.000000000000000D+00 -.248812707984061D+03
 0.160463960225704D+03 -.249876038617322D+02 -.578896961790957D+01 -.972922916542132D+02
 0.131701890919020D+03 0.277973970640918D+00 0.812564922666108D+01 -.103981097668719D+03
 0.182216572561293D+03 0.121399785671805D+02 -.374432287768601D+01 0.181773156111020D+03
 0.232429922621045D+02 0.125696513239107D+02 0.140764326893450D+01 0.195002332119127D+02
-.423859330172D-04 0.000000000000D+00 0.000000000000D+00 0.118719519003D-03 0.000000000000D+00  6 -2 1 25 -24 3 -3 4 0.50606850D-01 0.28954035D-01 0.13663962D+05 0.13663962D+05 0.13663962D+05 0.12524679D+01  1  2 13  8  6  5       21 -.540987020077D-02 0.100000000000D+01
  </mgrwgt>
  </event>
  <event>
  5     66 0.49582427E-03 0.46289622E+02 0.75467711E-02 0.10908358E+00
       -2 -1    0    0    0  501 0.00000000E+00 0.00000000E+00 0.52766458E+03 0.52766468E+03 0.32000000E+00 0.0000E+00 0.9000E+01
        1 -1    0    0  502    0 0.00000000E+00 0.00000000E+00 -.12204137E+03 0.12204179E+03 0.32000000E+00 0.0000E+00 0.9000E+01
       25  1    1    2    0    0 0.13642679E+03 -.13787997E+03 0.14765117E+03 0.27395077E+03 0.12500000E+03 0.0000E+00 0.9000E+01
      -24  1    1    2    0    0 -.10134969E+03 0.16808022E+03 0.15453739E+03 0.26243426E+03 0.80419002E+02 0.0000E+00 0.9000E+01
       21  1    1    2  502  501 -.35077099E+02 -.30200244E+02 0.10343465E+03 0.11332143E+03 0.75000000E+00 0.0000E+00 0.9000E+01
#aMCatNLO 1  0  0  1  2 0.84810181D+02 0.00000000D+00  -5  6  0 0.00000000D+00 0.00000000D+00 0.00000000D+00 0.00000000D+00 0.00000000D+00
  <mgrwgt>
 0.1378222515D+00    7    4    0
 0.253765786204640D+03 0.000000000000000D+00 0.000000000000000D+00 0.253765786204640D+03
 0.253765786204640D+03 0.000000000000000D+00 0.000000000000000D+00 -.253765786204640D+03
 0.232688930504438D+03 0.136427951240463D+03 -.137878974059731D+03 -.299322737503349D+02
 0.212442798363127D+03 -.101348629647076D+03 0.168081131469993D+03 -.119128138746663D+02
 0.623998435417149D+02 -.350793215933866D+02 -.302021574102618D+02 0.418450876250012D+02
 0.000000000000000D+00 -.000000000000000D+00 -.000000000000000D+00 0.000000000000000D+00
 0.301256692301255D+03 0.000000000000000D+00 0.000000000000000D+00 0.301256692301255D+03
 0.298178157713189D+03 0.000000000000000D+00 0.000000000000000D+00 -.298178157713189D+03
 0.235398673222441D+03 0.163598074271412D+03 -.110123859529651D+03 -.299322737503349D+02
 0.223612158791360D+03 -.760378400858648D+02 0.193936879797593D+03 -.119128138746663D+02
 0.555579814394029D+02 -.282324651680450D+02 -.232078834410236D+02 0.418450876250012D+02
 0.848660365612386D+02 -.593277690175022D+02 -.606051368269183D+02 0.307853458806628D+01
 0.253765786204640D+03 0.000000000000000D+00 0.000000000000000D+00 0.253765786204640D+03
 0.253765786204640D+03 0.000000000000000D+00 0.000000000000000D+00 -.253765786204640D+03
 0.232688930504438D+03 0.136427951240463D+03 -.137878974059731D+03 -.299322737503349D+02
 0.212442798363127D+03 -.101348629647076D+03 0.168081131469993D+03 -.119128138746663D+02
 0.000000000000000D+00 -.000000000000000D+00 -.000000000000000D+00 0.000000000000000D+00
 0.623998435417149D+02 -.350793215933866D+02 -.302021574102618D+02 0.418450876250012D+02
 0.301256692301255D+03 0.000000000000000D+00 0.000000000000000D+00 0.301256692301255D+03
 0.298178157713189D+03 0.000000000000000D+00 0.000000000000000D+00 -.298178157713189D+03
 0.235398673222441D+03 0.163598074271412D+03 -.110123859529651D+03 -.299322737503349D+02
 0.223612158791360D+03 -.760378400858648D+02 0.193936879797593D+03 -.119128138746663D+02
 0.848660365612386D+02 -.593277690175022D+02 -.606051368269183D+02 0.307853458806628D+01
 0.555579814394029D+02 -.282324651680450D+02 -.232078834410236D+02 0.418450876250012D+02
0.130895906089D-02 0.000000000000D+00 0.000000000000D+00 0.758608740521D-05 0.000000000000D+00  6 -2 1 25 -24 21 21 2 0.81179206D-01 0.18775635D-01 0.59817874D+05 0.59817874D+05 0.59817874D+05 0.11846468D+01  1  2  2  1  6  1       -2 0.618452952465D-01 0.100000000000D+01
0.178742810206D-03 0.690756673900D-04 -.502674745065D-05 0.758608740521D-05 0.000000000000D+00  6 -2 1 25 -24 21 21 4 0.81179206D-01 0.18775635D-01 0.59817874D+05 0.59817874D+05 0.59817874D+05 0.11846468D+01  1  2  3  1  6  1       -2 0.118518730697D-01 0.100000000000D+01
0.191383918289D-04 0.000000000000D+00 0.000000000000D+00 0.758608740521D-05 0.000000000000D+00  6 -2 1 25 -24 21 21 4 0.81179206D-01 0.18775635D-01 0.59817874D+05 0.59817874D+05 0.59817874D+05 0.11846468D+01  1  2 15  1  6  1       -2 0.126900651529D-02 0.100000000000D+01
-.124371438186D-03 0.000000000000D+00 0.000000000000D+00 0.758608740521D-05 0.000000000000D+00  6 -2 1 25 -24 21 21 4 0.81179206D-01 0.18775635D-01 0.59817874D+05 0.59817874D+05 0.59817874D+05 0.11846468D+01  1  2  4  1  6  1       -2 -.824667854987D-02 0.100000000000D+01
-.258543510593D-02 0.000000000000D+00 -.995866270949D-03 0.758608740521D-05 0.000000000000D+00  6 -2 1 25 -24 21 21 4 0.10999318D+00 0.18775635D-01 0.59817874D+05 0.59817874D+05 0.59817874D+05 0.11846468D+01  1  2  5  1  6  1       -2 -.853484420468D-01 0.100000000000D+01
0.280191733552D-02 0.000000000000D+00 0.951624612081D-03 0.758608740521D-05 0.000000000000D+00  6 -2 1 25 -24 21 21 4 0.81179206D-01 0.18775635D-01 0.59817874D+05 0.59817874D+05 0.59817874D+05 0.11846468D+01  1  2  6  1  6  1       -2 0.185786318197D+00 0.100000000000D+01
-.780801897123D-04 0.000000000000D+00 -.388432658101D-04 0.758608740521D-05 0.000000000000D+00  6 21 1 25 -24 2 21 4 0.10999318D+00 0.18775635D-01 0.59817874D+05 0.59817874D+05 0.59817874D+05 0.11846468D+01  3  4  5  4  5  1       -2 -.293351208845D-01 0.100000000000D+01
  </mgrwgt>
  </event>
  <event>
  6     66 -.49582427E-03 0.53056743E+02 0.75467711E-02 0.12065225E+00
       21 -1    0    0  503  501 0.00000000E+00 0.00000000E+00 0.37792917E+02 0.37800359E+02 0.75000000E+00 0.0000E+00 0.9000E+01
        1 -1    0    0  502    0 0.00000000E+00 0.00000000E+00 -.66066112E+03 0.66066120E+03 0.32000000E+00 0.0000E+00 0.9000E+01
       25  1    1    2    0    0 -.28284818E+02 0.30231986E+00 -.29264936E+03 0.31948203E+03 0.12500000E+03 0.0000E+00 0.9000E+01
      -24  1    1    2    0    0 0.37502760E+02 0.56016329E+02 -.28780317E+03 0.30633669E+03 0.80419002E+02 0.0000E+00 0.9000E+01
        2  1    1    2  503    0 -.40679332E+01 -.12582254E+02 -.30603854E+01 0.13576802E+02 0.32000000E+00 0.0000E+00 0.9000E+01
       21  1    1    2  502  501 -.51500096E+01 -.43736395E+02 -.39355286E+02 0.59066029E+02 0.75000000E+00 0.0000E+00 0.9000E+01
#aMCatNLO 2  0  0  1  5 0.13223509D+02 0.00000000D+00  -5  6  0 0.00000000D+00 0.00000000D+00 0.00000000D+00 0.00000000D+00 0.00000000D+00
  <mgrwgt>
 -.4575365344D-01    2    2    0
 0.145542549019280D+03 0.000000000000000D+00 0.000000000000000D+00 0.145542549019280D+03
 0.145542549019280D+03 0.000000000000000D+00 0.000000000000000D+00 -.145542549019280D+03
 0.128942559323534D+03 -.300820491884955D+02 -.525551678952344D+01 -.828453165840724D+01
 0.105005706795063D+03 0.360164596518354D+02 0.514200153283878D+02 -.248551637076935D+02
 0.000000000000000D+00 -.000000000000000D+00 -.000000000000000D+00 0.000000000000000D+00
 0.571368319199636D+02 -.593441046333983D+01 -.461644985388644D+02 0.331396953661008D+02
 0.169235405072623D+03 0.000000000000000D+00 0.000000000000000D+00 0.169235405072623D+03
 0.147549499538506D+03 0.000000000000000D+00 0.000000000000000D+00 -.147549499538506D+03
 0.128427972123225D+03 -.282845910933873D+02 0.304081509876052D+00 -.828453165840724D+01
 0.107839983177440D+03 0.375029593155667D+02 0.560178087484571D+02 -.248551637076935D+02
 0.253996004133356D+02 -.406793323919151D+01 -.125822542290303D+02 0.216859055341171D+02
 0.551173488971288D+02 -.515043498298784D+01 -.437396360293028D+02 0.331396953661008D+02
-.371060945272D-05 0.000000000000D+00 0.000000000000D+00 0.116908830517D-04 0.000000000000D+00  6 21 1 25 -24 2 21 4 0.62284692D-02 0.10025757D+00 0.21077580D+05 0.21077580D+05 0.21077580D+05 0.12313248D+01  1  2 13  4  5  1       -2 -.548301885337D-01 0.100000000000D+01
0.557094503655D-06 0.000000000000D+00 0.000000000000D+00 0.117749318985D-04 0.232075263247D-07  6 21 1 25 -24 2 21 4 0.58148340D-02 0.10164006D+00 0.21077580D+05 0.21077580D+05 0.21077580D+05 0.12313248D+01  1  2  1  4  5  1       -2 0.907653509224D-02 0.100000000000D+01
  </mgrwgt>
  </event>
  <event>
  6     66 0.49582427E-03 0.27472848E+02 0.75467711E-02 0.12139314E+00
       -2 -1    0    0    0  503 0.00000000E+00 0.00000000E+00 0.10959901E+03 0.10959948E+03 0.32000000E+00 0.0000E+00 0.9000E+01
        1 -1    0    0  502    0 0.00000000E+00 0.00000000E+00 -.21756885E+03 0.21756908E+03 0.32000000E+00 0.0000E+00 0.9000E+01
       25  1    1    2    0    0 0.10231505E+02 0.19802892E+02 -.11769965E+03 0.17313303E+03 0.12500000E+03 0.0000E+00 0.9000E+01
      -24  1    1    2    0    0 -.29972433E+02 -.49799323E+02 0.15736734E+02 0.10046482E+03 0.80419002E+02 0.0000E+00 0.9000E+01
       21  1    1    2  502  501 0.31331069E+02 0.17618113E+02 -.67482733E+01 0.36580534E+02 0.75000000E+00 0.0000E+00 0.9000E+01
       21  1    1    2  501  503 -.11590141E+02 0.12378318E+02 0.74135662E+00 0.16990181E+02 0.75000000E+00 0.0000E+00 0.9000E+01
#aMCatNLO 2  0  0  1  2 0.16957421D+02 0.00000000D+00  -5  6  0 0.00000000D+00 0.00000000D+00 0.00000000D+00 0.00000000D+00 0.00000000D+00
  <mgrwgt>
 0.2865355338D-01    1    2    0
 0.145004269253411D+03 0.000000000000000D+00 0.000000000000000D+00 0.145004269253411D+03
 0.145004269253411D+03 0.000000000000000D+00 0.000000000000000D+00 -.145004269253411D+03
 0.141490126166251D+03 0.459205961139827D+01 0.258204613038729D+02 -.608824487773139D+02
 0.112424482227316D+03 -.344787427876557D+02 -.449908416653138D+02 0.543975064845702D+02
 0.360939301132548D+02 0.298866831762575D+02 0.191703803614408D+02 0.648494229274367D+01
 0.000000000000000D+00 -.000000000000000D+00 0.000000000000000D+00 0.000000000000000D+00
 0.158027974752778D+03 0.000000000000000D+00 0.000000000000000D+00 0.158027974752778D+03
 0.150878769502463D+03 0.000000000000000D+00 0.000000000000000D+00 -.150878769502463D+03
 0.140813233011546D+03 0.102283485517660D+02 0.198008814941484D+02 -.608824487773139D+02
 0.113158896521367D+03 -.299748888254674D+02 -.498009762527303D+02 0.543975064845702D+02
 0.365317543337778D+02 0.313366813031931D+02 0.176217763879067D+02 0.648494229274367D+01
 0.184028603885493D+02 -.115901410294917D+02 0.123783183706752D+02 0.714920525031530D+01
0.391695170142D-04 0.000000000000D+00 0.000000000000D+00 0.146851647773D-04 0.134057503602D-06  6 -2 1 25 -24 21 21 4 0.16860600D-01 0.33470514D-01 0.19475103D+05 0.19475103D+05 0.19475103D+05 0.12350997D+01  1  2  1  1  6  1       -2 0.286535533775D-01 0.100000000000D+01
  </mgrwgt>
  </event>
  <event>
  5     66 0.49582427E-03 0.27537379E+02 0.75467711E-02 0.11842783E+00
       -2 -1    0    0    0  501 0.00000000E+00 0.00000000E+00 0.11845048E+02 0.11849370E+02 0.32000000E+00 0.0000E+00 0.9000E+01
        1 -1    0    0  502    0 -.00000000E+00 -.00000000E+00 -.23077332E+04 0.23077332E+04 0.32000000E+00 0.0000E+00 0.9000E+01
       25  1    1    2    0    0 0.11774030E+03 -.35049701E+02 -.13574640E+04 0.13687311E+04 0.12500000E+03 0.0000E+00 0.9000E+01
      -24  1    1    2    0    0 -.92971539E+02 0.23035102E+02 -.79966121E+03 0.80938223E+03 0.80419002E+02 0.0000E+00 0.9000E+01
       21  1    1    2  502  501 -.24768759E+02 0.12014598E+02 -.13876298E+03 0.14146932E+03 0.75000000E+00 0.0000E+00 0.9000E+01
#aMCatNLO 1  0  0  5  2 0.42751010D+01 0.00000000D+00  -5  6  0 0.00000000D+00 0.00000000D+00 0.00000000D+00 0.00000000D+00 0.00000000D+00
  <mgrwgt>
 0.1354737051D+00   25    2    0
 0.165348870004892D+03 0.000000000000000D+00 0.000000000000000D+00 0.165348870004892D+03
 0.165348870004892D+03 -.000000000000000D+00 -.000000000000000D+00 -.165348870004892D+03
 0.176295284341647D+03 0.117744738631425D+03 -.350518550414972D+02 -.190413041535843D+02
 0.125478115190785D+03 -.929683780843485D+02 0.230335691495944D+02 0.101919971574660D+02
 0.289243404773524D+02 -.247763605470768D+02 0.120182858919028D+02 0.884930699611836D+01
 0.000000000000000D+00 0.000000000000000D+00 0.000000000000000D+00 0.000000000000000D+00
 0.165348870004892D+03 0.000000000000000D+00 0.000000000000000D+00 0.165348870004892D+03
 0.165348870004892D+03 -.000000000000000D+00 -.000000000000000D+00 -.165348870004892D+03
 0.175777802710989D+03 0.117099166237865D+03 -.347387068059044D+02 -.188107267736669D+02
 0.125874530237595D+03 -.934292662774658D+02 0.232571324957348D+02 0.103566113712457D+02
 0.185981064815237D+02 -.171615902602788D+02 0.363236386273885D+01 0.617861774226801D+01
 0.104473005796760D+02 -.650830970012039D+01 0.784921044743070D+01 0.227549766015315D+01
0.253554121549D-03 0.000000000000D+00 0.000000000000D+00 0.251497071887D-04 0.000000000000D+00  6 -2 1 25 -24 21 21 2 0.18226492D-02 0.35503621D+00 0.26873839D+05 0.26873839D+05 0.26873839D+05 0.12199465D+01  1  2  2  3  6  5       21 0.628536959555D-01 0.100000000000D+01
0.515915828069D-04 0.133804186004D-04 -.973714589082D-06 0.251497071887D-04 0.000000000000D+00  6 -2 1 25 -24 21 21 4 0.18226492D-02 0.35503621D+00 0.26873839D+05 0.26873839D+05 0.26873839D+05 0.12199465D+01  1  2  3  3  6  5       21 0.190335844041D-01 0.100000000000D+01
0.116364670536D-04 0.000000000000D+00 0.000000000000D+00 0.251497071887D-04 0.000000000000D+00  6 -2 1 25 -24 21 21 4 0.18226492D-02 0.35503621D+00 0.26873839D+05 0.26873839D+05 0.26873839D+05 0.12199465D+01  1  2 15  3  6  5       21 0.429301963188D-02 0.100000000000D+01
0.515707074308D-04 0.000000000000D+00 0.000000000000D+00 0.251486673407D-04 0.000000000000D+00  6 -2 1 25 -24 21 21 4 0.18226492D-02 0.35503621D+00 0.26888524D+05 0.26888524D+05 0.26888524D+05 0.12199213D+01  1  2 12  3  6  5       21 0.190242626799D-01 0.100000000000D+01
0.519574044524D-04 0.000000000000D+00 0.000000000000D+00 0.251486673407D-04 0.000000000000D+00  6 -2 1 25 -24 21 21 4 0.18226492D-02 0.35503621D+00 0.26888524D+05 0.26888524D+05 0.26888524D+05 0.12199213D+01  1  2 12  3  6  5       21 0.191669139268D-01 0.100000000000D+01
-.146203895021D-02 0.000000000000D+00 0.000000000000D+00 0.251497071887D-04 0.000000000000D+00  6 -2 1 25 -24 21 21 4 0.18226492D-02 0.35503621D+00 0.26873839D+05 0.26873839D+05 0.26873839D+05 0.12199465D+01  1  2  4  3  6  5       21 -.539387245883D+00 0.100000000000D+01
-.751153352522D-03 0.000000000000D+00 0.000000000000D+00 0.251497071887D-04 0.000000000000D+00  6 -2 1 25 -24 21 21 4 0.18226492D-02 0.35503621D+00 0.26873839D+05 0.26873839D+05 0.26873839D+05 0.12199465D+01  1  2  5  3  6  5       21 -.277121575998D+00 0.100000000000D+01
0.160356282469D-02 0.000000000000D+00 -.000000000000D+00 0.251497071887D-04 0.000000000000D+00  6 -2 1 25 -24 21 21 4 0.18226492D-02 0.35503621D+00 0.26873839D+05 0.26873839D+05 0.26873839D+05 0.12199465D+01  1  2  6  3  6  5       21 0.591599379404D+00 0.100000000000D+01
0.649026817723D-03 0.000000000000D+00 0.000000000000D+00 0.251497071887D-04 0.677315917447D-05  6 -2 1 25 -24 21 21 4 0.18226492D-02 0.35503621D+00 0.26888524D+05 0.26888524D+05 0.26888524D+05 0.12199213D+01  1  2 11  3  6  5       21 0.239423837325D+00 0.100000000000D+01
0.157078175835D-05 0.000000000000D+00 0.000000000000D+00 0.251486673407D-04 0.000000000000D+00  6 -2 1 25 -24 1 -1 4 0.18226492D-02 0.35503621D+00 0.26888524D+05 0.26888524D+05 0.26888524D+05 0.12199213D+01  1  2 12  6  6  5       21 0.579456173329D-03 0.100000000000D+01
0.158128400943D-05 0.000000000000D+00 0.000000000000D+00 0.251486673407D-04 0.000000000000D+00  6 -2 1 25 -24 1 -1 4 0.18226492D-02 0.35503621D+00 0.26888524D+05 0.26888524D+05 0.26888524D+05 0.12199213D+01  1  2 12  6  6  5       21 0.583330418868D-03 0.100000000000D+01
-.340949471230D-04 0.000000000000D+00 0.000000000000D+00 0.251497071887D-04 0.000000000000D+00  6 -2 1 25 -24 1 -1 4 0.18226492D-02 0.35503621D+00 0.26873839D+05 0.26873839D+05 0.26873839D+05 0.12199465D+01  1  2  5  6  6  5       21 -.125785839184D-01 0.100000000000D+01
0.286339984970D-04 0.000000000000D+00 0.000000000000D+00 0.251497071887D-04 0.452265457338D-06  6 -2 1 25 -24 1 -1 4 0.18226492D-02 0.35503621D+00 0.26888524D+05 0.26888524D+05 0.26888524D+05 0.12199213D+01  1  2 11  6  6  5       21 0.105629869382D-01 0.100000000000D+01
0.157078175835D-05 0.000000000000D+00 0.000000000000D+00 0.251486673407D-04 0.000000000000D+00  6 -2 1 25 -24 2 -2 4 0.18226492D-02 0.35503621D+00 0.26888524D+05 0.26888524D+05 0.26888524D+05 0.12199213D+01  1  2 12  7  6  5       21 0.579456173329D-03 0.100000000000D+01
0.158128400943D-05 0.000000000000D+00 0.000000000000D+00 0.251486673407D-04 0.000000000000D+00  6 -2 1 25 -24 2 -2 4 0.18226492D-02 0.35503621D+00 0.26888524D+05 0.26888524D+05 0.26888524D+05 0.12199213D+01  1  2 12  7  6  5       21 0.583330418868D-03 0.100000000000D+01
-.340949471230D-04 0.000000000000D+00 0.000000000000D+00 0.251497071887D-04 0.000000000000D+00  6 -2 1 25 -24 2 -2 4 0.18226492D-02 0.35503621D+00 0.26873839D+05 0.26873839D+05 0.26873839D+05 0.12199465D+01  1  2  5  7  6  5       21 -.125785839184D-01 0.100000000000D+01
0.286701166222D-04 0.000000000000D+00 0.000000000000D+00 0.251497071887D-04 0.454706293469D-06  6 -2 1 25 -24 2 -2 4 0.18226492D-02 0.35503621D+00 0.26888524D+05 0.26888524D+05 0.26888524D+05 0.12199213D+01  1  2 11  7  6  5       21 0.105763107946D-01 0.100000000000D+01
0.157078175835D-05 0.000000000000D+00 0.000000000000D+00 0.251486673407D-04 0.000000000000D+00  6 -2 1 25 -24 3 -3 4 0.18226492D-02 0.35503621D+00 0.26888524D+05 0.26888524D+05 0.26888524D+05 0.12199213D+01  1  2 12  8  6  5       21 0.579456173329D-03 0.100000000000D+01
0.157078175835D-05 0.000000000000D+00 0.000000000000D+00 0.251486673407D-04 0.000000000000D+00  6 -2 1 25 -24 4 -4 4 0.18226492D-02 0.35503621D+00 0.26888524D+05 0.26888524D+05 0.26888524D+05 0.12199213D+01  1  2 12  8  6  5       21 0.579456173329D-03 0.100000000000D+01
0.158128400943D-05 0.000000000000D+00 0.000000000000D+00 0.251486673407D-04 0.000000000000D+00  6 -2 1 25 -24 3 -3 4 0.18226492D-02 0.35503621D+00 0.26888524D+05 0.26888524D+05 0.26888524D+05 0.12199213D+01  1  2 12  8  6  5       21 0.583330418868D-03 0.100000000000D+01
0.158128400943D-05 0.000000000000D+00 0.000000000000D+00 0.251486673407D-04 0.000000000000D+00  6 -2 1 25 -24 4 -4 4 0.18226492D-02 0.35503621D+00 0.26888524D+05 0.26888524D+05 0.26888524D+05 0.12199213D+01  1  2 12  8  6  5       21 0.583330418868D-03 0.100000000000D+01
-.340949471230D-04 0.000000000000D+00 0.000000000000D+00 0.251497071887D-04 0.000000000000D+00  6 -2 1 25 -24 3 -3 4 0.18226492D-02 0.35503621D+00 0.26873839D+05 0.26873839D+05 0.26873839D+05 0.12199465D+01  1  2  5  8  6  5       21 -.125785839184D-01 0.100000000000D+01
-.340949471230D-04 0.000000000000D+00 0.000000000000D+00 0.251497071887D-04 0.000000000000D+00  6 -2 1 25 -24 4 -4 4 0.18226492D-02 0.35503621D+00 0.26873839D+05 0.26873839D+05 0.26873839D+05 0.12199465D+01  1  2  5  8  6  5       21 -.125785839184D-01 0.100000000000D+01
0.286146859596D-04 0.000000000000D+00 0.000000000000D+00 0.251497071887D-04 0.451524210551D-06  6 -2 1 25 -24 3 -3 4 0.18226492D-02 0.35503621D+00 0.26888524D+05 0.26888524D+05 0.26888524D+05 0.12199213D+01  1  2 11  8  6  5       21 0.105558626072D-01 0.100000000000D+01
0.286146859596D-04 0.000000000000D+00 0.000000000000D+00 0.251497071887D-04 0.451524210551D-06  6 -2 1 25 -24 4 -4 4 0.18226492D-02 0.35503621D+00 0.26888524D+05 0.26888524D+05 0.26888524D+05 0.12199213D+01  1  2 11  8  6  5       21 0.105558626072D-01 0.100000000000D+01
  </mgrwgt>
  </event>
  <event>
  5     66 0.49582427E-03 0.26381766E+02 0.75467711E-02 0.12199265E+00
       -2 -1    0    0    0  501 0.00000000E+00 0.00000000E+00 0.88409390E+01 0.88467284E+01 0.32000000E+00 0.0000E+00 0.9000E+01
        1 -1    0    0  502    0 -.00000000E+00 -.00000000E+00 -.22498609E+04 0.22498610E+04 0.32000000E+00 0.0000E+00 0.9000E+01
       25  1    1    2    0    0 -.65255917E+02 0.40247645E+02 -.14834819E+04 0.14907118E+04 0.12500000E+03 0.0000E+00 0.9000E+01
      -24  1    1    2    0    0 0.53859417E+02 -.16461914E+02 -.64340126E+03 0.65084885E+03 0.80419002E+02 0.0000E+00 0.9000E+01
       21  1    1    2  502  501 0.11396500E+02 -.23785731E+02 -.11413687E+03 0.11714704E+03 0.75000000E+00 0.0000E+00 0.9000E+01
#aMCatNLO 1  0  0  5  2 0.17094627D+01 0.00000000D+00  -5  6  0 0.00000000D+00 0.00000000D+00 0.00000000D+00 0.00000000D+00 0.00000000D+00
  <mgrwgt>
 0.4228031248D+00   14    2    0
 0.141058312072077D+03 0.000000000000000D+00 0.000000000000000D+00 0.141058312072077D+03
 0.141058312072077D+03 -.000000000000000D+00 -.000000000000000D+00 -.141058312072077D+03
 0.150896193190963D+03 -.652576724822918D+02 0.402513094070120D+02 -.355799015279610D+02
 0.999651698112640D+02 0.538582541810506D+02 -.164594868806052D+02 0.188200151227584D+02
 0.312552611419263D+02 0.113994183012412D+02 -.237918225264068D+02 0.167598864052027D+02
 0.000000000000000D+00 0.000000000000000D+00 0.000000000000000D+00 -.000000000000000D+00
 0.141058312072077D+03 0.000000000000000D+00 0.000000000000000D+00 0.141058312072077D+03
 0.141058312072077D+03 -.000000000000000D+00 -.000000000000000D+00 -.141058312072077D+03
 0.150239388890721D+03 -.647625021708087D+02 0.392178352542240D+02 -.348518820841284D+02
 0.100350337667225D+03 0.541876416667384D+02 -.171469542929599D+02 0.193042939427418D+02
 0.296968933168121D+02 0.117520650483610D+02 -.214724837374698D+02 0.168144842892462D+02
 0.183000426939527D+01 -.117720454429071D+01 -.598397223794270D+00 -.126689614785961D+01
0.498593191943D-03 0.000000000000D+00 0.000000000000D+00 0.311069483297D-04 0.000000000000D+00  6 -2 1 25 -24 21 21 2 0.13605916D-02 0.34613290D+00 0.18387479D+05 0.18387479D+05 0.18387479D+05 0.12378656D+01  1  2  2  3  6  5       21 0.211782101598D+00 0.100000000000D+01
0.705478154928D-04 0.263114856061D-04 -.191472913966D-05 0.311069483297D-04 0.000000000000D+00  6 -2 1 25 -24 21 21 4 0.13605916D-02 0.34613290D+00 0.18387479D+05 0.18387479D+05 0.18387479D+05 0.12378656D+01  1  2  3  3  6  5       21 0.459169957173D-01 0.100000000000D+01
0.138087766055D-04 0.000000000000D+00 0.000000000000D+00 0.311069483297D-04 0.000000000000D+00  6 -2 1 25 -24 21 21 4 0.13605916D-02 0.34613290D+00 0.18387479D+05 0.18387479D+05 0.18387479D+05 0.12378656D+01  1  2 15  3  6  5       21 0.898762820403D-02 0.100000000000D+01
0.249617704452D-07 0.000000000000D+00 0.000000000000D+00 0.311210281856D-04 0.000000000000D+00  6 -2 1 25 -24 21 21 4 0.13605916D-02 0.34613290D+00 0.18281183D+05 0.18281183D+05 0.18281183D+05 0.12381457D+01  1  2 12  3  6  5       21 0.162610884524D-04 0.100000000000D+01
-.242344027279D-02 0.000000000000D+00 0.000000000000D+00 0.311069483297D-04 0.000000000000D+00  6 -2 1 25 -24 21 21 4 0.13605916D-02 0.34613290D+00 0.18387479D+05 0.18387479D+05 0.18387479D+05 0.12378656D+01  1  2  4  3  6  5       21 -.157732873583D+01 0.100000000000D+01
0.262755969591D-02 0.000000000000D+00 0.000000000000D+00 0.311069483297D-04 0.821046622468D-04  6 -2 1 25 -24 21 21 4 0.13605916D-02 0.34613290D+00 0.18281183D+05 0.18281183D+05 0.18281183D+05 0.12381457D+01  1  2 11  3  6  5       21 0.171169672131D+01 0.100000000000D+01
0.232911655213D-08 0.000000000000D+00 0.000000000000D+00 0.311210281856D-04 0.000000000000D+00  6 -2 1 25 -24 1 -1 4 0.13605916D-02 0.34613290D+00 0.18281183D+05 0.18281183D+05 0.18281183D+05 0.12381457D+01  1  2 12  6  6  5       21 0.151727900684D-05 0.100000000000D+01
0.835520877268D-05 0.000000000000D+00 0.000000000000D+00 0.311210281856D-04 0.256733012499D-06  6 -2 1 25 -24 1 -1 4 0.13605916D-02 0.34613290D+00 0.18281183D+05 0.18281183D+05 0.18281183D+05 0.12381457D+01  1  2 11  6  6  5       21 0.544291476396D-02 0.100000000000D+01
0.232911655213D-08 0.000000000000D+00 0.000000000000D+00 0.311210281856D-04 0.000000000000D+00  6 -2 1 25 -24 2 -2 4 0.13605916D-02 0.34613290D+00 0.18281183D+05 0.18281183D+05 0.18281183D+05 0.12381457D+01  1  2 12  7  6  5       21 0.151727900684D-05 0.100000000000D+01
0.827294247728D-05 0.000000000000D+00 0.000000000000D+00 0.311210281856D-04 0.272538725258D-06  6 -2 1 25 -24 2 -2 4 0.13605916D-02 0.34613290D+00 0.18281183D+05 0.18281183D+05 0.18281183D+05 0.12381457D+01  1  2 11  7  6  5       21 0.538932323250D-02 0.100000000000D+01
0.232911655213D-08 0.000000000000D+00 0.000000000000D+00 0.311210281856D-04 0.000000000000D+00  6 -2 1 25 -24 3 -3 4 0.13605916D-02 0.34613290D+00 0.18281183D+05 0.18281183D+05 0.18281183D+05 0.12381457D+01  1  2 12  8  6  5       21 0.151727900684D-05 0.100000000000D+01
0.232911655213D-08 0.000000000000D+00 0.000000000000D+00 0.311210281856D-04 0.000000000000D+00  6 -2 1 25 -24 4 -4 4 0.13605916D-02 0.34613290D+00 0.18281183D+05 0.18281183D+05 0.18281183D+05 0.12381457D+01  1  2 12  8  6  5       21 0.151727900684D-05 0.100000000000D+01
0.836136135998D-05 0.000000000000D+00 0.000000000000D+00 0.311210281856D-04 0.256598141925D-06  6 -2 1 25 -24 3 -3 4 0.13605916D-02 0.34613290D+00 0.18281183D+05 0.18281183D+05 0.18281183D+05 0.12381457D+01  1  2 11  8  6  5       21 0.544692280363D-02 0.100000000000D+01
0.836136135998D-05 0.000000000000D+00 0.000000000000D+00 0.311210281856D-04 0.256598141925D-06  6 -2 1 25 -24 4 -4 4 0.13605916D-02 0.34613290D+00 0.18281183D+05 0.18281183D+05 0.18281183D+05 0.12381457D+01  1  2 11  8  6  5       21 0.544692280363D-02 0.100000000000D+01
  </mgrwgt>
  </event>
  <event>
  5     66 0.49582427E-03 0.27618371E+02 0.75467711E-02 0.12384733E+00
       -2 -1    0    0    0  501 0.00000000E+00 0.00000000E+00 0.29420668E+02 0.29422408E+02 0.32000000E+00 0.0000E+00 0.9000E+01
        1 -1    0    0  502    0 -.00000000E+00 -.00000000E+00 -.54849277E+03 0.54849286E+03 0.32000000E+00 0.0000E+00 0.9000E+01
       25  1    1    2    0    0 -.21747349E+01 -.37374482E+02 -.32100829E+03 0.34651538E+03 0.12500000E+03 0.0000E+00 0.9000E+01
      -24  1    1    2    0    0 -.23746361E+02 0.27859536E+02 -.17226213E+03 0.19360140E+03 0.80419002E+02 0.0000E+00 0.9000E+01
       21  1    1    2  502  501 0.25921096E+02 0.95149464E+01 -.25801679E+02 0.37798499E+02 0.75000000E+00 0.0000E+00 0.9000E+01
#aMCatNLO 1  0  0  5  1 0.51679215D+01 0.00000000D+00  -5  6  0 0.00000000D+00 0.00000000D+00 0.00000000D+00 0.00000000D+00 0.00000000D+00
  <mgrwgt>
 0.1266644955D+01   25    2    0
 0.127033670548250D+03 0.000000000000000D+00 0.000000000000000D+00 0.127033670548250D+03
 0.127033670548250D+03 -.000000000000000D+00 -.000000000000000D+00 -.127033670548250D+03
 0.132367613098103D+03 -.217816883574434D+01 -.373757425466568D+02 -.222372310978241D+02
 0.884364330586357D+02 -.237486548446856D+02 0.278586934452844D+02 0.369882824063109D+01
 0.332632949397623D+02 0.259268236804299D+02 0.951704910137243D+01 0.185384028571930D+02
 0.000000000000000D+00 0.000000000000000D+00 0.000000000000000D+00 0.000000000000000D+00
 0.127033670548250D+03 0.000000000000000D+00 0.000000000000000D+00 0.127033670548250D+03
 0.127033670548250D+03 -.000000000000000D+00 -.000000000000000D+00 -.127033670548250D+03
 0.132044836191348D+03 -.786001722855142D+00 -.368647149354850D+02 -.212417927401839D+02
 0.883299537859643D+02 -.228179560402586D+02 0.282003282837628D+02 0.436430387265766D+01
 0.603064741279557D+01 0.549074298044708D+01 -.232223394626231D+01 -.909768783238856D+00
 0.276619037063933D+02 0.181132147826666D+02 0.109866205979846D+02 0.177872576507651D+02
0.645497307548D-03 0.000000000000D+00 0.000000000000D+00 0.337285562101D-04 0.000000000000D+00  6 -2 1 25 -24 21 21 2 0.45263976D-02 0.84383644D-01 0.15186099D+05 0.15186099D+05 0.15186099D+05 0.12472125D+01  1  2  2  3  6  5       21 0.762243341637D+00 0.100000000000D+01
0.666288887643D-04 0.340638287702D-04 -.247887962433D-05 0.337285562101D-04 0.000000000000D+00  6 -2 1 25 -24 21 21 4 0.45263976D-02 0.84383644D-01 0.15186099D+05 0.15186099D+05 0.15186099D+05 0.12472125D+01  1  2  3  3  6  5       21 0.122389088738D+00 0.100000000000D+01
0.911204803226D-05 0.000000000000D+00 0.000000000000D+00 0.337285562101D-04 0.000000000000D+00  6 -2 1 25 -24 21 21 4 0.45263976D-02 0.84383644D-01 0.15186099D+05 0.15186099D+05 0.15186099D+05 0.12472125D+01  1  2 15  3  6  5       21 0.167377135637D-01 0.100000000000D+01
0.196573702748D-04 0.000000000000D+00 0.000000000000D+00 0.337453027639D-04 0.000000000000D+00  6 -2 1 25 -24 21 21 4 0.45263976D-02 0.84383644D-01 0.15091329D+05 0.15091329D+05 0.15091329D+05 0.12475221D+01  1  2 12  3  6  5       21 0.361366177785D-01 0.100000000000D+01
0.228469845004D-04 0.000000000000D+00 0.000000000000D+00 0.337453027639D-04 0.000000000000D+00  6 -2 1 25 -24 21 21 4 0.45263976D-02 0.84383644D-01 0.15091329D+05 0.15091329D+05 0.15091329D+05 0.12475221D+01  1  2 12  3  6  5       21 0.420001625213D-01 0.100000000000D+01
-.445608976300D-03 0.000000000000D+00 0.000000000000D+00 0.337285562101D-04 0.000000000000D+00  6 -2 1 25 -24 21 21 4 0.45263976D-02 0.84383644D-01 0.15186099D+05 0.15186099D+05 0.15186099D+05 0.12472125D+01  1  2  4  3  6  5       21 -.818528982762D+00 0.100000000000D+01
-.633765533396D-04 0.000000000000D+00 0.000000000000D+00 0.337285562101D-04 0.000000000000D+00  6 -2 1 25 -24 21 21 4 0.45263976D-02 0.84383644D-01 0.15186099D+05 0.15186099D+05 0.15186099D+05 0.12472125D+01  1  2  5  3  6  5       21 -.116414947847D+00 0.100000000000D+01
0.623105613412D-03 0.000000000000D+00 -.000000000000D+00 0.337285562101D-04 0.000000000000D+00  6 -2 1 25 -24 21 21 4 0.45263976D-02 0.84383644D-01 0.15186099D+05 0.15186099D+05 0.15186099D+05 0.12472125D+01  1  2  6  3  6  5       21 0.114456851416D+01 0.100000000000D+01
0.468576640282D-04 0.000000000000D+00 0.000000000000D+00 0.337285562101D-04 0.956788611336D-05  6 -2 1 25 -24 21 21 4 0.45263976D-02 0.84383644D-01 0.15091329D+05 0.15091329D+05 0.15091329D+05 0.12475221D+01  1  2 11  3  6  5       21 0.861395736719D-01 0.100000000000D+01
0.526878783594D-05 0.000000000000D+00 0.000000000000D+00 0.337453027639D-04 0.000000000000D+00  6 -2 1 25 -24 1 -1 4 0.45263976D-02 0.84383644D-01 0.15091329D+05 0.15091329D+05 0.15091329D+05 0.12475221D+01  1  2 12  6  6  5       21 0.968573972623D-02 0.100000000000D+01
0.567386037677D-05 0.000000000000D+00 0.000000000000D+00 0.337453027639D-04 0.000000000000D+00  6 -2 1 25 -24 1 -1 4 0.45263976D-02 0.84383644D-01 0.15091329D+05 0.15091329D+05 0.15091329D+05 0.12475221D+01  1  2 12  6  6  5       21 0.104303943456D-01 0.100000000000D+01
-.220092202261D-04 0.000000000000D+00 0.000000000000D+00 0.337285562101D-04 0.000000000000D+00  6 -2 1 25 -24 1 -1 4 0.45263976D-02 0.84383644D-01 0.15186099D+05 0.15186099D+05 0.15186099D+05 0.12472125D+01  1  2  5  6  6  5       21 -.404282355186D-01 0.100000000000D+01
0.941585480136D-05 0.000000000000D+00 0.000000000000D+00 0.337285562101D-04 0.149941803848D-06  6 -2 1 25 -24 1 -1 4 0.45263976D-02 0.84383644D-01 0.15091329D+05 0.15091329D+05 0.15091329D+05 0.12475221D+01  1  2 11  6  6  5       21 0.173093929279D-01 0.100000000000D+01
0.526878783594D-05 0.000000000000D+00 0.000000000000D+00 0.337453027639D-04 0.000000000000D+00  6 -2 1 25 -24 2 -2 4 0.45263976D-02 0.84383644D-01 0.15091329D+05 0.15091329D+05 0.15091329D+05 0.12475221D+01  1  2 12  7  6  5       21 0.968573972623D-02 0.100000000000D+01
0.567386037677D-05 0.000000000000D+00 0.000000000000D+00 0.337453027639D-04 0.000000000000D+00  6 -2 1 25 -24 2 -2 4 0.45263976D-02 0.84383644D-01 0.15091329D+05 0.15091329D+05 0.15091329D+05 0.12475221D+01  1  2 12  7  6  5       21 0.104303943456D-01 0.100000000000D+01
-.220092202261D-04 0.000000000000D+00 0.000000000000D+00 0.337285562101D-04 0.000000000000D+00  6 -2 1 25 -24 2 -2 4 0.45263976D-02 0.84383644D-01 0.15186099D+05 0.15186099D+05 0.15186099D+05 0.12472125D+01  1  2  5  7  6  5       21 -.404282355186D-01 0.100000000000D+01
0.101316522599D-04 0.000000000000D+00 0.000000000000D+00 0.337285562101D-04 0.154847110798D-06  6 -2 1 25 -24 2 -2 4 0.45263976D-02 0.84383644D-01 0.15091329D+05 0.15091329D+05 0.15091329D+05 0.12475221D+01  1  2 11  7  6  5       21 0.186252606561D-01 0.100000000000D+01
0.526878783594D-05 0.000000000000D+00 0.000000000000D+00 0.337453027639D-04 0.000000000000D+00  6 -2 1 25 -24 3 -3 4 0.45263976D-02 0.84383644D-01 0.15091329D+05 0.15091329D+05 0.15091329D+05 0.12475221D+01  1  2 12  8  6  5       21 0.968573972623D-02 0.100000000000D+01
0.526878783594D-05 0.000000000000D+00 0.000000000000D+00 0.337453027639D-04 0.000000000000D+00  6 -2 1 25 -24 4 -4 4 0.45263976D-02 0.84383644D-01 0.15091329D+05 0.15091329D+05 0.15091329D+05 0.12475221D+01  1  2 12  8  6  5       21 0.968573972623D-02 0.100000000000D+01
0.567386037677D-05 0.000000000000D+00 0.000000000000D+00 0.337453027639D-04 0.000000000000D+00  6 -2 1 25 -24 3 -3 4 0.45263976D-02 0.84383644D-01 0.15091329D+05 0.15091329D+05 0.15091329D+05 0.12475221D+01  1  2 12  8  6  5       21 0.104303943456D-01 0.100000000000D+01
0.567386037677D-05 0.000000000000D+00 0.000000000000D+00 0.337453027639D-04 0.000000000000D+00  6 -2 1 25 -24 4 -4 4 0.45263976D-02 0.84383644D-01 0.15091329D+05 0.15091329D+05 0.15091329D+05 0.12475221D+01  1  2 12  8  6  5       21 0.104303943456D-01 0.100000000000D+01
-.220092202261D-04 0.000000000000D+00 0.000000000000D+00 0.337285562101D-04 0.000000000000D+00  6 -2 1 25 -24 3 -3 4 0.45263976D-02 0.84383644D-01 0.15186099D+05 0.15186099D+05 0.15186099D+05 0.12472125D+01  1  2  5  8  6  5       21 -.404282355186D-01 0.100000000000D+01
-.220092202261D-04 0.000000000000D+00 0.000000000000D+00 0.337285562101D-04 0.000000000000D+00  6 -2 1 25 -24 4 -4 4 0.45263976D-02 0.84383644D-01 0.15186099D+05 0.15186099D+05 0.15186099D+05 0.12472125D+01  1  2  5  8  6  5       21 -.404282355186D-01 0.100000000000D+01
0.997855199002D-05 0.000000000000D+00 0.000000000000D+00 0.337285562101D-04 0.148695360355D-06  6 -2 1 25 -24 3 -3 4 0.45263976D-02 0.84383644D-01 0.15091329D+05 0.15091329D+05 0.15091329D+05 0.12475221D+01  1  2 11  8  6  5       21 0.183438127382D-01 0.100000000000D+01
0.997855199002D-05 0.000000000000D+00 0.000000000000D+00 0.337285562101D-04 0.148695360355D-06  6 -2 1 25 -24 4 -4 4 0.45263976D-02 0.84383644D-01 0.15091329D+05 0.15091329D+05 0.15091329D+05 0.12475221D+01  1  2 11  8  6  5       21 0.183438127382D-01 0.100000000000D+01
  </mgrwgt>
  </event>
  <event>
  5     66 0.49582427E-03 0.47262455E+02 0.75467711E-02 0.12240883E+00
       -2 -1    0    0    0  501 0.00000000E+00 0.00000000E+00 0.23365201E+03 0.23365223E+03 0.32000000E+00 0.0000E+00 0.9000E+01
        1 -1    0    0  502    0 0.00000000E+00 0.00000000E+00 -.11366514E+03 0.11366560E+03 0.32000000E+00 0.0000E+00 0.9000E+01
       25  1    1    2    0    0 0.21317933E+02 -.21680637E+02 -.85714565E+01 0.12893011E+03 0.12500000E+03 0.0000E+00 0.9000E+01
      -24  1    1    2    0    0 -.26000995E+02 -.25596964E+02 0.78415425E+01 0.88656427E+02 0.80419002E+02 0.0000E+00 0.9000E+01
       21  1    1    2  502  501 0.46830621E+01 0.47277601E+02 0.12071678E+03 0.12973128E+03 0.75000000E+00 0.0000E+00 0.9000E+01
#aMCatNLO 1  0  0  5  1 0.19534028D+01 0.00000000D+00  -5  6  0 0.00000000D+00 0.00000000D+00 0.00000000D+00 0.00000000D+00 0.00000000D+00
  <mgrwgt>
 0.8376560892D-02   25    2    0
 0.162966885338759D+03 0.000000000000000D+00 0.000000000000000D+00 0.162966885338759D+03
 0.162966885338759D+03 -.000000000000000D+00 -.000000000000000D+00 -.162966885338759D+03
 0.140545008196552D+03 0.213178687259768D+02 -.216812884002016D+02 -.565983174242685D+02
 0.915866451486986D+02 -.260010374090046D+02 -.255973890349039D+02 -.242820374654685D+02
 0.938021173322663D+02 0.468316868302788D+01 0.472786774351056D+02 0.808803548897370D+02
 0.000000000000000D+00 0.000000000000000D+00 0.000000000000000D+00 0.000000000000000D+00
 0.162966885338759D+03 0.000000000000000D+00 0.000000000000000D+00 0.162966885338759D+03
 0.162966885338759D+03 -.000000000000000D+00 -.000000000000000D+00 -.162966885338759D+03
 0.140530022230340D+03 0.213196616282094D+02 -.216631882521897D+02 -.565673532248834D+02
 0.915776696982348D+02 -.259998690529663D+02 -.255855939593890D+02 -.242618594498101D+02
 0.398315216420005D+02 0.397959694774908D-01 0.202158507987211D+02 0.343200802604221D+02
 0.539945571069417D+02 0.464041145527947D+01 0.270329314128576D+02 0.465091324142715D+02
0.631741858774D-05 0.000000000000D+00 0.000000000000D+00 0.151695600380D-04 0.000000000000D+00  6 -2 1 25 -24 21 21 2 0.35946514D-01 0.17486997D-01 0.17485319D+05 0.17485319D+05 0.17485319D+05 0.12403028D+01  1  2  2  3  6  5       21 0.183784241106D-02 0.100000000000D+01
0.142981645968D-07 0.333379337955D-06 -.242605507914D-07 0.151695600380D-04 0.000000000000D+00  6 -2 1 25 -24 21 21 4 0.35946514D-01 0.17486997D-01 0.17485319D+05 0.17485319D+05 0.17485319D+05 0.12403028D+01  1  2  3  3  6  5       21 0.639888556726D-05 0.100000000000D+01
0.289798291183D-06 0.000000000000D+00 0.000000000000D+00 0.151695600380D-04 0.000000000000D+00  6 -2 1 25 -24 21 21 4 0.35946514D-01 0.17486997D-01 0.17485319D+05 0.17485319D+05 0.17485319D+05 0.12403028D+01  1  2 15  3  6  5       21 0.129693996059D-03 0.100000000000D+01
0.237126626897D-06 0.000000000000D+00 0.000000000000D+00 0.151684130472D-04 0.000000000000D+00  6 -2 1 25 -24 21 21 4 0.35946514D-01 0.17486997D-01 0.17502201D+05 0.17502201D+05 0.17502201D+05 0.12402559D+01  1  2 12  3  6  5       21 0.106108199754D-03 0.100000000000D+01
0.238017084456D-06 0.000000000000D+00 0.000000000000D+00 0.151684130472D-04 0.000000000000D+00  6 -2 1 25 -24 21 21 4 0.35946514D-01 0.17486997D-01 0.17502201D+05 0.17502201D+05 0.17502201D+05 0.12402559D+01  1  2 12  3  6  5       21 0.106506657109D-03 0.100000000000D+01
-.101490129806D-02 0.000000000000D+00 0.000000000000D+00 0.151695600380D-04 0.000000000000D+00  6 -2 1 25 -24 21 21 4 0.35946514D-01 0.17486997D-01 0.17485319D+05 0.17485319D+05 0.17485319D+05 0.12403028D+01  1  2  4  3  6  5       21 -.454200762927D+00 0.100000000000D+01
-.446978083199D-03 0.000000000000D+00 0.000000000000D+00 0.151695600380D-04 0.000000000000D+00  6 -2 1 25 -24 21 21 4 0.35946514D-01 0.17486997D-01 0.17485319D+05 0.17485319D+05 0.17485319D+05 0.12403028D+01  1  2  5  3  6  5       21 -.200036975802D+00 0.100000000000D+01
0.103134975633D-02 0.000000000000D+00 -.000000000000D+00 0.151695600380D-04 0.000000000000D+00  6 -2 1 25 -24 21 21 4 0.35946514D-01 0.17486997D-01 0.17485319D+05 0.17485319D+05 0.17485319D+05 0.12403028D+01  1  2  6  3  6  5       21 0.461561973629D+00 0.100000000000D+01
0.444531893125D-03 0.000000000000D+00 0.000000000000D+00 0.151695600380D-04 0.192350066412D-04  6 -2 1 25 -24 21 21 4 0.35946514D-01 0.17486997D-01 0.17502201D+05 0.17502201D+05 0.17502201D+05 0.12402559D+01  1  2 11  3  6  5       21 0.198916838357D+00 0.100000000000D+01
0.229752297466D-07 0.000000000000D+00 0.000000000000D+00 0.151684130472D-04 0.000000000000D+00  6 -2 1 25 -24 1 -1 4 0.35946514D-01 0.17486997D-01 0.17502201D+05 0.17502201D+05 0.17502201D+05 0.12402559D+01  1  2 12  6  6  5       21 0.102808372861D-04 0.100000000000D+01
0.230551120745D-07 0.000000000000D+00 0.000000000000D+00 0.151684130472D-04 0.000000000000D+00  6 -2 1 25 -24 1 -1 4 0.35946514D-01 0.17486997D-01 0.17502201D+05 0.17502201D+05 0.17502201D+05 0.12402559D+01  1  2 12  6  6  5       21 0.103165826182D-04 0.100000000000D+01
-.433289466579D-04 0.000000000000D+00 0.000000000000D+00 0.151695600380D-04 0.000000000000D+00  6 -2 1 25 -24 1 -1 4 0.35946514D-01 0.17486997D-01 0.17485319D+05 0.17485319D+05 0.17485319D+05 0.12403028D+01  1  2  5  6  6  5       21 -.193910882433D-01 0.100000000000D+01
0.432333619936D-04 0.000000000000D+00 0.000000000000D+00 0.151695600380D-04 0.130603749096D-05  6 -2 1 25 -24 1 -1 4 0.35946514D-01 0.17486997D-01 0.17502201D+05 0.17502201D+05 0.17502201D+05 0.12402559D+01  1  2 11  6  6  5       21 0.193458417997D-01 0.100000000000D+01
0.229752297466D-07 0.000000000000D+00 0.000000000000D+00 0.151684130472D-04 0.000000000000D+00  6 -2 1 25 -24 2 -2 4 0.35946514D-01 0.17486997D-01 0.17502201D+05 0.17502201D+05 0.17502201D+05 0.12402559D+01  1  2 12  7  6  5       21 0.102808372861D-04 0.100000000000D+01
0.230551120745D-07 0.000000000000D+00 0.000000000000D+00 0.151684130472D-04 0.000000000000D+00  6 -2 1 25 -24 2 -2 4 0.35946514D-01 0.17486997D-01 0.17502201D+05 0.17502201D+05 0.17502201D+05 0.12402559D+01  1  2 12  7  6  5       21 0.103165826182D-04 0.100000000000D+01
-.433289466579D-04 0.000000000000D+00 0.000000000000D+00 0.151695600380D-04 0.000000000000D+00  6 -2 1 25 -24 2 -2 4 0.35946514D-01 0.17486997D-01 0.17485319D+05 0.17485319D+05 0.17485319D+05 0.12403028D+01  1  2  5  7  6  5       21 -.193910882433D-01 0.100000000000D+01
0.433494677477D-04 0.000000000000D+00 0.000000000000D+00 0.151695600380D-04 0.131019423108D-05  6 -2 1 25 -24 2 -2 4 0.35946514D-01 0.17486997D-01 0.17502201D+05 0.17502201D+05 0.17502201D+05 0.12402559D+01  1  2 11  7  6  5       21 0.193977962036D-01 0.100000000000D+01
0.229752297466D-07 0.000000000000D+00 0.000000000000D+00 0.151684130472D-04 0.000000000000D+00  6 -2 1 25 -24 3 -3 4 0.35946514D-01 0.17486997D-01 0.17502201D+05 0.17502201D+05 0.17502201D+05 0.12402559D+01  1  2 12  8  6  5       21 0.102808372861D-04 0.100000000000D+01
0.229752297466D-07 0.000000000000D+00 0.000000000000D+00 0.151684130472D-04 0.000000000000D+00  6 -2 1 25 -24 4 -4 4 0.35946514D-01 0.17486997D-01 0.17502201D+05 0.17502201D+05 0.17502201D+05 0.12402559D+01  1  2 12  8  6  5       21 0.102808372861D-04 0.100000000000D+01
0.230551120745D-07 0.000000000000D+00 0.000000000000D+00 0.151684130472D-04 0.000000000000D+00  6 -2 1 25 -24 3 -3 4 0.35946514D-01 0.17486997D-01 0.17502201D+05 0.17502201D+05 0.17502201D+05 0.12402559D+01  1  2 12  8  6  5       21 0.103165826182D-04 0.100000000000D+01
0.230551120745D-07 0.000000000000D+00 0.000000000000D+00 0.151684130472D-04 0.000000000000D+00  6 -2 1 25 -24 4 -4 4 0.35946514D-01 0.17486997D-01 0.17502201D+05 0.17502201D+05 0.17502201D+05 0.12402559D+01  1  2 12  8  6  5       21 0.103165826182D-04 0.100000000000D+01
-.433289466579D-04 0.000000000000D+00 0.000000000000D+00 0.151695600380D-04 0.000000000000D+00  6 -2 1 25 -24 3 -3 4 0.35946514D-01 0.17486997D-01 0.17485319D+05 0.17485319D+05 0.17485319D+05 0.12403028D+01  1  2  5  8  6  5       21 -.193910882433D-01 0.100000000000D+01
-.433289466579D-04 0.000000000000D+00 0.000000000000D+00 0.151695600380D-04 0.000000000000D+00  6 -2 1 25 -24 4 -4 4 0.35946514D-01 0.17486997D-01 0.17485319D+05 0.17485319D+05 0.17485319D+05 0.12403028D+01  1  2  5  8  6  5       21 -.193910882433D-01 0.100000000000D+01
0.432284222492D-04 0.000000000000D+00 0.000000000000D+00 0.151695600380D-04 0.130586681096D-05  6 -2 1 25 -24 3 -3 4 0.35946514D-01 0.17486997D-01 0.17502201D+05 0.17502201D+05 0.17502201D+05 0.12402559D+01  1  2 11  8  6  5       21 0.193436313884D-01 0.100000000000D+01
0.432284222492D-04 0.000000000000D+00 0.000000000000D+00 0.151695600380D-04 0.130586681096D-05  6 -2 1 25 -24 4 -4 4 0.35946514D-01 0.17486997D-01 0.17502201D+05 0.17502201D+05 0.17502201D+05 0.12402559D+01  1  2 11  8  6  5       21 0.193436313884D-01 0.100000000000D+01
  </mgrwgt>
  </event>
  <event>
  6     66 0.49582427E-03 0.18036404E+02 0.75467711E-02 0.12302138E+00
       21 -1    0    0  503  501 0.00000000E+00 0.00000000E+00 0.22927221E+03 0.22927344E+03 0.75000000E+00 0.0000E+00 0.9000E+01
        1 -1    0    0  502    0 0.00000000E+00 0.00000000E+00 -.48121213E+03 0.48121223E+03 0.32000000E+00 0.0000E+00 0.9000E+01
       25  1    1    2    0    0 -.40334208E+02 -.10094799E+02 -.30474082E+03 0.33199506E+03 0.12500000E+03 0.0000E+00 0.9000E+01
      -24  1    1    2    0    0 0.35991036E+02 -.86620490E+01 -.14803565E+03 0.17248813E+03 0.80419002E+02 0.0000E+00 0.9000E+01
        2  1    1    2  503    0 0.16304733E+02 0.17668553E+02 0.18245116E+03 0.18402866E+03 0.32000000E+00 0.0000E+00 0.9000E+01
       21  1    1    2  502  501 -.11961562E+02 0.10882951E+01 0.18385397E+02 0.21973817E+02 0.75000000E+00 0.0000E+00 0.9000E+01
#aMCatNLO 2  0  0  1  5 0.30137148D+01 0.00000000D+00  -5  6  0 0.00000000D+00 0.00000000D+00 0.00000000D+00 0.00000000D+00 0.00000000D+00
  <mgrwgt>
 0.1282863919D+01    1    2    0
 0.148225635724015D+03 0.000000000000000D+00 0.000000000000000D+00 0.148225635724015D+03
 0.148225635724015D+03 0.000000000000000D+00 0.000000000000000D+00 -.148225635724015D+03
 0.140220855870905D+03 -.325699490346246D+02 -.168153102205232D+01 -.545276012169325D+02
 0.908616977964974D+02 0.409321645245532D+02 -.330790054689821D+01 -.101117690538417D+02
 0.000000000000000D+00 0.000000000000000D+00 0.000000000000000D+00 0.000000000000000D+00
 0.653687177806287D+02 -.836221548992860D+01 0.498943156895053D+01 0.646393702707741D+02
 0.740679682019789D+03 0.000000000000000D+00 0.000000000000000D+00 0.740679682019789D+03
 0.148956398624034D+03 0.000000000000000D+00 0.000000000000000D+00 -.148956398624034D+03
 0.142572784245185D+03 -.403339874775353D+02 -.100949971328959D+02 -.545276012169325D+02
 0.891059080309179D+02 0.359911926924107D+02 -.866216294140269D+01 -.101117690538417D+02
 0.592211504613348D+03 0.163047334029381D+02 0.176685526405677D+02 0.591723283395755D+03
 0.657458837543717D+02 -.119619386178135D+02 0.108860743373081D+01 0.646393702707741D+02
0.128861939580D-02 0.000000000000D+00 0.000000000000D+00 0.299826963950D-03 0.294113424437D-05  6 21 1 25 -24 2 21 4 0.35272740D-01 0.74032716D-01 0.16424647D+05 0.16424647D+05 0.16424647D+05 0.12433552D+01  1  2  1  4  5  1       -2 0.128286391867D+01 0.100000000000D+01
  </mgrwgt>
  </event>
  <event>
  6     66 0.49582427E-03 0.53211585E+02 0.75467711E-02 0.11599630E+00
       21 -1    0    0  503  501 0.00000000E+00 0.00000000E+00 0.19869386E+03 0.19869528E+03 0.75000000E+00 0.0000E+00 0.9000E+01
        1 -1    0    0  502    0 0.00000000E+00 0.00000000E+00 -.10113821E+04 0.10113821E+04 0.32000000E+00 0.0000E+00 0.9000E+01
       25  1    1    2    0    0 -.84039576E+02 0.25329705E+02 -.71954716E+03 0.73557961E+03 0.12500000E+03 0.0000E+00 0.9000E+01
      -24  1    1    2    0    0 0.80477446E+02 0.17557219E+02 -.24615057E+03 0.27173920E+03 0.80419002E+02 0.0000E+00 0.9000E+01
        2  1    1    2  503    0 0.34915158E+02 -.62683673E+02 0.14909856E+03 0.16546539E+03 0.32000000E+00 0.0000E+00 0.9000E+01
       21  1    1    2  502  501 -.31353027E+02 0.19796749E+02 0.39109737E+01 0.37293187E+02 0.75000000E+00 0.0000E+00 0.9000E+01
#aMCatNLO 2  0  0  1  2 0.26411909D+03 0.00000000D+00  -5  6  0 0.00000000D+00 0.00000000D+00 0.00000000D+00 0.00000000D+00 0.00000000D+00
  <mgrwgt>
 0.7563128403D-01    1    2    0
 0.200644056937354D+03 0.000000000000000D+00 0.000000000000000D+00 0.200644056937354D+03
 0.200644056937354D+03 0.000000000000000D+00 0.000000000000000D+00 -.200644056937354D+03
 0.178980116867917D+03 -.682310384211954D+02 -.305113252928572D+01 -.108370190644417D+03
 0.121675752769133D+03 0.907180955888453D+02 -.827656573217003D+00 0.103592941310973D+02
 0.000000000000000D+00 0.000000000000000D+00 -.000000000000000D+00 0.000000000000000D+00
 0.100632244237658D+03 -.224870571676499D+02 0.387878910250272D+01 0.980108965133202D+02
 0.977942355175876D+03 0.000000000000000D+00 0.000000000000000D+00 0.977942355175876D+03
 0.205488830728684D+03 0.000000000000000D+00 0.000000000000000D+00 -.205488830728684D+03
 0.187278688181991D+03 -.840393506624267D+02 0.253297526063275D+02 -.108370190644417D+03
 0.115583021835071D+03 0.804776297237201D+02 0.175571957132439D+02 0.103592941310973D+02
 0.775778807730914D+03 0.349151575513197D+02 -.626836730471022D+02 0.772453524447192D+03
 0.104790668156585D+03 -.313534366126131D+02 0.197967247275308D+02 0.980108965133202D+02
0.196121163047D-03 0.000000000000D+00 0.000000000000D+00 0.428963196725D-04 0.308405348794D-07  6 21 1 25 -24 2 21 4 0.30568395D-01 0.15559733D+00 0.35473632D+05 0.35473632D+05 0.35473632D+05 0.12073328D+01  1  2  1  4  5  1       -2 0.756312840283D-01 0.100000000000D+01
  </mgrwgt>
  </event>
  <event>
  6     66 -.49582427E-03 0.14223407E+02 0.75467711E-02 0.12319851E+00
       -2 -1    0    0    0  501 0.00000000E+00 0.00000000E+00 0.10165863E+02 0.10170899E+02 0.32000000E+00 0.0000E+00 0.9000E+01
        1 -1    0    0  502    0 -.00000000E+00 -.00000000E+00 -.27666832E+04 0.27666832E+04 0.32000000E+00 0.0000E+00 0.9000E+01
       25  1    1    2    0    0 -.30557103E+02 -.18446811E+02 -.22397036E+04 0.22434730E+04 0.12500000E+03 0.0000E+00 0.9000E+01
      -24  1    1    2    0    0 0.42787866E+02 0.28736274E+02 -.30214641E+03 0.31688522E+03 0.80419002E+02 0.0000E+00 0.9000E+01
       21  1    1    2  503  501 0.30120564E+00 -.34605338E+01 -.40250102E+01 0.53692855E+01 0.75000000E+00 0.0000E+00 0.9000E+01
       21  1    1    2  502  503 -.12531968E+02 -.68289301E+01 -.21064231E+03 0.21112657E+03 0.75000000E+00 0.0000E+00 0.9000E+01
#aMCatNLO 2  0  0  5  2 0.10263640D+02 0.00000000D+00  -5  6  0 0.00000000D+00 0.00000000D+00 0.00000000D+00 0.00000000D+00 0.00000000D+00
  <mgrwgt>
 -.1093788017D+00    2    2    0
 0.167728172877621D+03 0.000000000000000D+00 0.000000000000000D+00 0.167728172877621D+03
 0.167728172877621D+03 -.000000000000000D+00 -.000000000000000D+00 -.167728172877621D+03
 0.166294027699433D+03 -.259328122309199D+02 -.145564991816138D+02 -.105566572502243D+03
 0.141806272996382D+03 0.467024692173463D+02 0.320295417081251D+02 0.102150824439768D+03
 0.273560450594267D+02 -.207696569864264D+02 -.174730425265113D+02 0.341574806247478D+01
 0.000000000000000D+00 0.000000000000000D+00 0.000000000000000D+00 -.000000000000000D+00
 0.167728172877621D+03 0.000000000000000D+00 0.000000000000000D+00 0.167728172877621D+03
 0.167728172877621D+03 -.000000000000000D+00 -.000000000000000D+00 -.167728172877621D+03
 0.166948344797511D+03 -.303550502454428D+02 -.182768279737845D+02 -.104839297567477D+03
 0.140383681650662D+03 0.429577139048505D+02 0.288791637856885D+02 0.102766681538971D+03
 0.105164432457431D+02 0.937389120303721D+00 -.272552875510995D+01 0.101137714618801D+02
 0.176078760613258D+02 -.135400527797115D+02 -.787680705679402D+01 -.804115543337387D+01
-.213000964552D-03 0.000000000000D+00 0.000000000000D+00 0.158204712951D-04 0.000000000000D+00  6 -2 1 25 -24 21 21 4 0.15643677D-02 0.42564395D+00 0.14897350D+05 0.14897350D+05 0.14897350D+05 0.12481627D+01  1  2 13  3  6  5       21 -.539899541208D-01 0.100000000000D+01
-.218519873856D-03 0.000000000000D+00 0.000000000000D+00 0.158204712951D-04 0.000000000000D+00  6 -2 1 25 -24 21 21 4 0.15643677D-02 0.42564395D+00 0.14897350D+05 0.14897350D+05 0.14897350D+05 0.12481627D+01  1  2 13  3  6  5       21 -.553888475989D-01 0.100000000000D+01
  </mgrwgt>
  </event>
  <event>
  6     66 0.49582427E-03 0.15915329E+02 0.75467711E-02 0.12378061E+00
       -4 -1    0    0    0  501 0.00000000E+00 0.00000000E+00 0.12396536E+04 0.12396546E+04 0.15500000E+01 0.0000E+00 0.9000E+01
       21 -1    0    0  502  503 0.00000000E+00 0.00000000E+00 -.30010689E+02 0.30020059E+02 0.75000000E+00 0.0000E+00 0.9000E+01
       25  1    1    2    0    0 0.23741396E+02 -.59149426E+01 0.79361674E+03 0.80377308E+03 0.12500000E+03 0.0000E+00 0.9000E+01
      -24  1    1    2    0    0 0.93953597E+01 0.47483211E+01 0.37488247E+03 0.38355560E+03 0.80419002E+02 0.0000E+00 0.9000E+01
       -3  1    1    2    0  503 -.21787020E+02 -.82416921E+01 -.12686038E+02 0.26528952E+02 0.50000000E+00 0.0000E+00 0.9000E+01
       21  1    1    2  502  501 -.11349736E+02 0.94083136E+01 0.53829754E+02 0.55817003E+02 0.75000000E+00 0.0000E+00 0.9000E+01
#aMCatNLO 2  0  0  2  1 0.40685896D+00 0.00000000D+00  -5  6  0 0.00000000D+00 0.00000000D+00 0.00000000D+00 0.00000000D+00 0.00000000D+00
  <mgrwgt>
 0.9351681420D-01    1    2    0
 0.112672659712762D+03 0.000000000000000D+00 0.000000000000000D+00 0.112672659712762D+03
 0.329429241877412D+03 0.000000000000000D+00 0.000000000000000D+00 -.329429241877412D+03
 0.127263181716720D+03 0.114102694371202D+02 -.105874429310430D+02 0.181281335006415D+02
 0.813946191413319D+02 0.152040700294334D+01 0.176434300405973D+01 -.123468023026762D+02
 0.216756582164651D+03 -.000000000000000D+00 -.000000000000000D+00 -.216756582164651D+03
 0.166875185674717D+02 -.129306764400636D+02 0.882309992698323D+01 -.578133119796526D+01
 0.113908729176091D+03 0.000000000000000D+00 0.000000000000000D+00 0.113908729176091D+03
 0.326658310803425D+03 0.000000000000000D+00 0.000000000000000D+00 -.326658310803425D+03
 0.128657247058519D+03 0.237489504925285D+02 -.591991106040766D+01 0.181281335006415D+02
 0.820398480149301D+02 0.940006621323936D+01 0.474509599772600D+01 -.123468023026762D+02
 0.214020990109354D+03 -.217870199112868D+02 -.824169206947152D+01 -.212749581627334D+03
 0.158489547967131D+02 -.113619967944811D+02 0.941650713215318D+01 -.578133119796526D+01
0.182430707940D-03 0.000000000000D+00 0.000000000000D+00 0.107262242816D-03 0.368686378773D-06  6 -4 21 25 -24 -3 21 4 0.19071625D+00 0.46178126D-02 0.15194235D+05 0.15194235D+05 0.15194235D+05 0.12471860D+01  1  2  1  5  5  2        3 0.935168142000D-01 0.100000000000D+01
  </mgrwgt>
  </event>
  <event>
  6     66 0.49582427E-03 0.31023657E+02 0.75467711E-02 0.11586508E+00
       -2 -1    0    0    0  503 0.00000000E+00 0.00000000E+00 0.42326035E+03 0.42326047E+03 0.32000000E+00 0.0000E+00 0.9000E+01
        1 -1    0    0  502    0 0.00000000E+00 0.00000000E+00 -.13478600E+04 0.13478601E+04 0.32000000E+00 0.0000E+00 0.9000E+01
       25  1    1    2    0    0 0.55426792E+02 0.12788754E+03 -.58932504E+03 0.61834970E+03 0.12500000E+03 0.0000E+00 0.9000E+01
      -24  1    1    2    0    0 -.82944005E+02 -.10347965E+03 -.73493059E+03 0.75111779E+03 0.80419002E+02 0.0000E+00 0.9000E+01
       21  1    1    2  502  501 0.15728919E+01 -.38487325E+01 0.15270452E+02 0.15844113E+02 0.75000000E+00 0.0000E+00 0.9000E+01
       21  1    1    2  501  503 0.25944321E+02 -.20559162E+02 0.38438548E+03 0.38580895E+03 0.75000000E+00 0.0000E+00 0.9000E+01
#aMCatNLO 2  0  0  1  5 0.98575284D+01 0.00000000D+00  -5  6  0 0.00000000D+00 0.00000000D+00 0.00000000D+00 0.00000000D+00 0.00000000D+00
  <mgrwgt>
 0.1081398374D+01    1    2    0
 0.226136166297358D+03 0.000000000000000D+00 0.000000000000000D+00 0.226136166297358D+03
 0.226136166297358D+03 0.000000000000000D+00 0.000000000000000D+00 -.226136166297358D+03
 0.185724584352385D+03 0.661274894808804D+02 0.119407981690294D+03 -.154113684166089D+02
 0.173556249319496D+03 -.730131876117524D+02 -.111349133643160D+03 -.769740254577437D+02
 0.929914989228346D+02 0.688569813087202D+01 -.805884804713457D+01 0.923853938743525D+02
 0.000000000000000D+00 0.000000000000000D+00 -.000000000000000D+00 0.000000000000000D+00
 0.251473827967880D+04 0.000000000000000D+00 0.000000000000000D+00 0.251473827967880D+04
 0.226860801281763D+03 0.000000000000000D+00 0.000000000000000D+00 -.226860801281763D+03
 0.187856012358573D+03 0.554266921602831D+02 0.127887657336277D+03 -.154113684166089D+02
 0.173147208223441D+03 -.829441194165102D+02 -.103479525608941D+03 -.769740254577437D+02
 0.924789177558222D+02 0.157310600130651D+01 -.384896940459589D+01 0.923853938743525D+02
 0.228811694262273D+04 0.259443212549206D+02 -.205591623227407D+02 0.228787747839704D+04
0.273767875517D+00 0.000000000000D+00 0.000000000000D+00 0.181582943744D-03 0.626321155436D-04  6 -2 1 25 -24 21 21 4 0.65116971D-01 0.20736304D+00 0.36020261D+05 0.36020261D+05 0.36020261D+05 0.12066497D+01  1  2  1  1  6  1       -2 0.108139837412D+01 0.100000000000D+01
  </mgrwgt>
  </event>
  <event>
  5     66 -.49582427E-03 0.24151751E+02 0.75467711E-02 0.12215479E+00
       -2 -1    0    0    0  501 0.00000000E+00 0.00000000E+00 0.72537332E+02 0.72538038E+02 0.32000000E+00 0.0000E+00 0.9000E+01
        1 -1    0    0  502    0 0.00000000E+00 0.00000000E+00 -.30002595E+03 0.30002612E+03 0.32000000E+00 0.0000E+00 0.9000E+01
       25  1    1    2    0    0 0.54985854E+02 -.47290814E+02 -.18354600E+03 0.23361078E+03 0.12500000E+03 0.0000E+00 0.9000E+01
      -24  1    1    2    0    0 -.53412416E+02 0.23193961E+02 -.53721442E+02 0.11288957E+03 0.80419002E+02 0.0000E+00 0.9000E+01
       21  1    1    2  502  501 -.15734381E+01 0.24096853E+02 0.97788209E+01 0.26063804E+02 0.75000000E+00 0.0000E+00 0.9000E+01
#aMCatNLO 1  0  0  1  5 0.16682644D+00 0.00000000D+00  -5  6  0 0.00000000D+00 0.00000000D+00 0.00000000D+00 0.00000000D+00 0.00000000D+00
  <mgrwgt>
 -.1967188871D-01    7    4    0
 0.147523710722879D+03 0.000000000000000D+00 0.000000000000000D+00 0.147523710722879D+03
 0.147523710722879D+03 0.000000000000000D+00 0.000000000000000D+00 -.147523710722879D+03
 0.153469833669467D+03 0.549859945985261D+02 -.472929690560846D+02 -.516517697896686D+02
 0.101127383601294D+03 -.534123230694399D+02 0.231925406799467D+02 0.192031653851018D+02
 0.404502041749962D+02 -.157367152908611D+01 0.241004283761379D+02 0.324486044045668D+02
 0.000000000000000D+00 0.000000000000000D+00 -.000000000000000D+00 0.000000000000000D+00
 0.317763054824016D+03 0.000000000000000D+00 0.000000000000000D+00 0.317763054824016D+03
 0.147523775175227D+03 0.000000000000000D+00 0.000000000000000D+00 -.147523775175227D+03
 0.153428911734998D+03 0.549172132410016D+02 -.472400817486919D+02 -.516517697896686D+02
 0.101159334491572D+03 -.534576590484491D+02 0.232274003853102D+02 0.192031653851018D+02
 0.404592223828926D+02 -.159180474167986D+01 0.241143713517199D+02 0.324486044045668D+02
 0.170239361389780D+03 0.132250549127327D+00 -.101689988338191D+00 0.170239279648789D+03
 0.147523710722879D+03 0.000000000000000D+00 0.000000000000000D+00 0.147523710722879D+03
 0.147523710722879D+03 0.000000000000000D+00 0.000000000000000D+00 -.147523710722879D+03
 0.153469833669467D+03 0.549859945985261D+02 -.472929690560846D+02 -.516517697896686D+02
 0.101127383601294D+03 -.534123230694399D+02 0.231925406799467D+02 0.192031653851018D+02
 0.000000000000000D+00 0.000000000000000D+00 -.000000000000000D+00 0.000000000000000D+00
 0.404502041749962D+02 -.157367152908611D+01 0.241004283761379D+02 0.324486044045668D+02
 0.317763054824016D+03 0.000000000000000D+00 0.000000000000000D+00 0.317763054824016D+03
 0.147523775175227D+03 0.000000000000000D+00 0.000000000000000D+00 -.147523775175227D+03
 0.153428911734998D+03 0.549172132410016D+02 -.472400817486919D+02 -.516517697896686D+02
 0.101159334491572D+03 -.534576590484491D+02 0.232274003853102D+02 0.192031653851018D+02
 0.170239361389780D+03 0.132250549127327D+00 -.101689988338191D+00 0.170239279648789D+03
 0.404592223828926D+02 -.159180474167986D+01 0.241143713517199D+02 0.324486044045668D+02
0.615106268007D-07 0.000000000000D+00 0.000000000000D+00 0.368759062047D-04 0.000000000000D+00  6 -2 1 25 -24 21 21 2 0.11159657D-01 0.46157906D-01 0.17950087D+05 0.17950087D+05 0.17950087D+05 0.12390301D+01  1  2  2  1  6  1       -2 0.388299556671D-04 0.100000000000D+01
0.793727406949D-08 0.324600495522D-08 -.236217003035D-09 0.368759062047D-04 0.000000000000D+00  6 -2 1 25 -24 21 21 4 0.11159657D-01 0.46157906D-01 0.17950087D+05 0.17950087D+05 0.17950087D+05 0.12390301D+01  1  2  3  1  6  1       -2 0.769222187094D-05 0.100000000000D+01
0.306261029921D-08 0.000000000000D+00 0.000000000000D+00 0.368759062047D-04 0.000000000000D+00  6 -2 1 25 -24 21 21 4 0.11159657D-01 0.46157906D-01 0.17950087D+05 0.17950087D+05 0.17950087D+05 0.12390301D+01  1  2 15  1  6  1       -2 0.296805650398D-05 0.100000000000D+01
-.297867668851D-01 0.000000000000D+00 -.308066755578D-07 0.368759062047D-04 0.000000000000D+00  6 -2 1 25 -24 21 21 4 0.24037676D-01 0.46157906D-01 0.17950087D+05 0.17950087D+05 0.17950087D+05 0.12390301D+01  1  2  5  1  6  1       -2 -.811753735848D+01 0.100000000000D+01
0.297352311239D-01 0.000000000000D+00 0.000000000000D+00 0.368759062047D-04 0.708736991565D-02  6 -2 1 25 -24 21 21 4 0.24037673D-01 0.46157926D-01 0.17973006D+05 0.17973006D+05 0.17973006D+05 0.12389683D+01  1  2 11  1  6  1       -2 0.810199816822D+01 0.100000000000D+01
-.247415737824D-02 0.000000000000D+00 -.255887533344D-08 0.368759062047D-04 0.000000000000D+00  6 21 1 25 -24 2 21 4 0.24037676D-01 0.46157906D-01 0.17950087D+05 0.17950087D+05 0.17950087D+05 0.12390301D+01  3  4  5  4  5  1       -2 -.918487153199D+01 0.100000000000D+01
0.247355027340D-02 0.000000000000D+00 0.000000000000D+00 0.368759062047D-04 0.117913768438D-02  6 21 1 25 -24 2 21 4 0.24037673D-01 0.46157926D-01 0.17973006D+05 0.17973006D+05 0.17973006D+05 0.12389683D+01  3  4 11  4  5  1       -2 0.918068934331D+01 0.100000000000D+01
  </mgrwgt>
  </event>
  <event>
  5     66 0.49582427E-03 0.29073152E+02 0.75467711E-02 0.11945644E+00
       -2 -1    0    0    0  501 0.00000000E+00 0.00000000E+00 0.10731991E+02 0.10736761E+02 0.32000000E+00 0.0000E+00 0.9000E+01
        1 -1    0    0  502    0 0.00000000E+00 0.00000000E+00 -.23252297E+04 0.23252297E+04 0.32000000E+00 0.0000E+00 0.9000E+01
       25  1    1    2    0    0 0.67155129E+02 -.42318580E+02 -.86733423E+03 0.87988314E+03 0.12500000E+03 0.0000E+00 0.9000E+01
      -24  1    1    2    0    0 -.78181883E+02 0.69210207E+02 -.12000492E+04 0.12072646E+04 0.80419002E+02 0.0000E+00 0.9000E+01
       21  1    1    2  502  501 0.11026754E+02 -.26891627E+02 -.24711423E+03 0.24881872E+03 0.75000000E+00 0.0000E+00 0.9000E+01
#aMCatNLO 1  0  0  2  5 0.88081444D+00 0.00000000D+00  -5  6  0 0.00000000D+00 0.00000000D+00 0.00000000D+00 0.00000000D+00 0.00000000D+00
  <mgrwgt>
 0.3483227433D+00   11    4    0
 0.157987153707581D+03 0.000000000000000D+00 0.000000000000000D+00 0.157987153707581D+03
 0.157987153707581D+03 0.000000000000000D+00 0.000000000000000D+00 -.157987153707581D+03
 0.151701795378050D+03 0.671534045918675D+02 -.423143742234918D+02 0.329901304441061D+02
 0.134882200113356D+03 -.781834162681149D+02 0.692139464846732D+02 -.286840545549651D+02
 0.293903119237567D+02 0.110300116762475D+02 -.268995722611814D+02 -.430607588914102D+01
 0.000000000000000D+00 -.000000000000000D+00 0.000000000000000D+00 -.000000000000000D+00
 0.158054150623014D+03 0.000000000000000D+00 0.000000000000000D+00 0.158054150623014D+03
 0.160909574368287D+03 0.000000000000000D+00 0.000000000000000D+00 -.160909574368287D+03
 0.151913958350740D+03 0.675617849932632D+02 -.424253137123970D+02 0.329901304441061D+02
 0.134621820648153D+03 -.778209180814277D+02 0.691154712311529D+02 -.286840545549651D+02
 0.294397560992606D+02 0.111091414529416D+02 -.269210684371821D+02 -.430607588914102D+01
 0.298818989314723D+01 -.850008364777045D+00 0.230910918426215D+00 -.285542374527282D+01
 0.157987153707581D+03 0.000000000000000D+00 0.000000000000000D+00 0.157987153707581D+03
 0.157987153707581D+03 0.000000000000000D+00 0.000000000000000D+00 -.157987153707581D+03
 0.151701795378050D+03 0.671534045918675D+02 -.423143742234918D+02 0.329901304441061D+02
 0.134882200113356D+03 -.781834162681149D+02 0.692139464846732D+02 -.286840545549651D+02
 0.000000000000000D+00 -.000000000000000D+00 0.000000000000000D+00 -.000000000000000D+00
 0.293903119237567D+02 0.110300116762475D+02 -.268995722611814D+02 -.430607588914102D+01
 0.158054150623014D+03 0.000000000000000D+00 0.000000000000000D+00 0.158054150623014D+03
 0.160909574368287D+03 0.000000000000000D+00 0.000000000000000D+00 -.160909574368287D+03
 0.151913958350740D+03 0.675617849932632D+02 -.424253137123970D+02 0.329901304441061D+02
 0.134621820648153D+03 -.778209180814277D+02 0.691154712311529D+02 -.286840545549651D+02
 0.298818989314723D+01 -.850008364777045D+00 0.230910918426215D+00 -.285542374527282D+01
 0.294397560992606D+02 0.111091414529416D+02 -.269210684371821D+02 -.430607588914102D+01
0.781263436830D-04 0.000000000000D+00 0.000000000000D+00 0.226713352642D-04 0.000000000000D+00  6 -2 1 25 -24 21 21 2 0.16514441D-02 0.35772801D+00 0.23861183D+05 0.23861183D+05 0.23861183D+05 0.12254745D+01  1  2  2  2  6  2        1 0.219844678550D-01 0.100000000000D+01
0.135484802811D-04 0.412284042480D-05 -.300025730882D-06 0.226713352642D-04 0.000000000000D+00  6 -2 1 25 -24 21 21 4 0.16514441D-02 0.35772801D+00 0.23861183D+05 0.23861183D+05 0.23861183D+05 0.12254745D+01  1  2  3  2  6  2        1 0.572555469349D-02 0.100000000000D+01
0.426113058492D-05 0.000000000000D+00 0.000000000000D+00 0.226713352642D-04 0.000000000000D+00  6 -2 1 25 -24 21 21 4 0.16514441D-02 0.35772801D+00 0.23861183D+05 0.23861183D+05 0.23861183D+05 0.12254745D+01  1  2 15  2  6  2        1 0.180074338331D-02 0.100000000000D+01
0.240222516606D-08 0.000000000000D+00 0.000000000000D+00 0.226614664374D-04 0.000000000000D+00  6 -2 1 25 -24 21 21 4 0.16514441D-02 0.36530546D+00 0.23997569D+05 0.23997569D+05 0.23997569D+05 0.12252077D+01  1  2 12  2  6  2        1 0.942427827639D-06 0.100000000000D+01
-.132319832835D-01 0.000000000000D+00 0.000000000000D+00 0.226713352642D-04 0.000000000000D+00  6 -2 1 25 -24 21 21 4 0.16514441D-02 0.35772801D+00 0.23861183D+05 0.23861183D+05 0.23861183D+05 0.12254745D+01  1  2  4  2  6  2        1 -.559180383491D+01 0.100000000000D+01
-.237852309452D-01 0.000000000000D+00 -.810066517859D-03 0.226713352642D-04 0.000000000000D+00  6 -2 1 25 -24 21 21 4 0.16514441D-02 0.36439455D+00 0.23861183D+05 0.23861183D+05 0.23861183D+05 0.12254745D+01  1  2  5  2  6  2        1 -.942265547929D+01 0.100000000000D+01
0.237962697609D-01 0.000000000000D+00 0.809928449843D-03 0.226713352642D-04 0.000000000000D+00  6 -2 1 25 -24 21 21 4 0.16514441D-02 0.35772801D+00 0.23861183D+05 0.23861183D+05 0.23861183D+05 0.12254745D+01  1  2  6  2  6  2        1 0.100562455117D+02 0.100000000000D+01
0.133501861711D-01 0.000000000000D+00 0.000000000000D+00 0.226713352642D-04 0.951612585547D-04  6 -2 1 25 -24 21 21 4 0.16521445D-02 0.36434521D+00 0.23997569D+05 0.23997569D+05 0.23997569D+05 0.12252077D+01  1  2 11  2  6  2        1 0.528327829807D+01 0.100000000000D+01
0.184927178538D-09 0.000000000000D+00 0.000000000000D+00 0.226614664374D-04 0.000000000000D+00  6 -2 21 25 -24 -1 21 4 0.16514441D-02 0.36530546D+00 0.23997569D+05 0.23997569D+05 0.23997569D+05 0.12252077D+01  3  4 12  5  5  2        1 0.482692325193D-07 0.100000000000D+01
-.800104812384D-04 0.000000000000D+00 -.272840318019D-05 0.226713352642D-04 0.000000000000D+00  6 -2 21 25 -24 -1 21 4 0.16514441D-02 0.36439455D+00 0.23861183D+05 0.23861183D+05 0.23861183D+05 0.12254745D+01  3  4  5  5  5  2        1 -.211742612789D-01 0.100000000000D+01
0.564554402476D-04 0.000000000000D+00 0.000000000000D+00 0.226713352642D-04 0.802304245327D-06  6 -2 21 25 -24 -1 21 4 0.16521445D-02 0.36434521D+00 0.23997569D+05 0.23997569D+05 0.23997569D+05 0.12252077D+01  3  4 11  5  5  2        1 0.149207524138D-01 0.100000000000D+01
  </mgrwgt>
  </event>
  <event>
  5     66 0.49582427E-03 0.32387510E+02 0.75467711E-02 0.12050840E+00
       -2 -1    0    0    0  501 0.00000000E+00 0.00000000E+00 0.99549955E+02 0.99550469E+02 0.32000000E+00 0.0000E+00 0.9000E+01
        1 -1    0    0  502    0 -.00000000E+00 -.00000000E+00 -.33390753E+03 0.33390769E+03 0.32000000E+00 0.0000E+00 0.9000E+01
       25  1    1    2    0    0 -.29576590E+02 0.46469190E+02 -.10060921E+03 0.16965074E+03 0.12500000E+03 0.0000E+00 0.9000E+01
      -24  1    1    2    0    0 0.45874853E+02 -.74455984E+02 -.17489877E+03 0.21143555E+03 0.80419002E+02 0.0000E+00 0.9000E+01
       21  1    1    2  502  501 -.16298263E+02 0.27986794E+02 0.41150404E+02 0.52371865E+02 0.75000000E+00 0.0000E+00 0.9000E+01
#aMCatNLO 1  0  0  5  2 0.24699242D+02 0.00000000D+00  -5  6  0 0.00000000D+00 0.00000000D+00 0.00000000D+00 0.00000000D+00 0.00000000D+00
  <mgrwgt>
 0.8309162501D-01   15    2    0
 0.182320115857594D+03 0.000000000000000D+00 0.000000000000000D+00 0.182320115857594D+03
 0.182320115857594D+03 -.000000000000000D+00 -.000000000000000D+00 -.182320115857594D+03
 0.137006092737540D+03 -.295763711472149D+02 0.464688141184838D+02 -.105620562103841D+02
 0.138931255410393D+03 0.458750752060711D+02 -.744563654154667D+02 -.720166987544779D+02
 0.887028835672559D+02 -.162987040588562D+02 0.279875512969829D+02 0.825787549648621D+02
 0.000000000000000D+00 0.000000000000000D+00 0.000000000000000D+00 0.000000000000000D+00
 0.182320115857594D+03 0.000000000000000D+00 0.000000000000000D+00 0.182320115857594D+03
 0.182320115857594D+03 -.000000000000000D+00 -.000000000000000D+00 -.182320115857594D+03
 0.137700574267137D+03 -.308524019546056D+02 0.486599685531809D+02 -.409693880039750D+01
 0.134102008729336D+03 0.446068174667029D+02 -.722785586149882D+02 -.655909642474039D+02
 0.300720899270486D+02 -.216339222499083D+02 0.194729277240371D+02 0.755705541331075D+01
 0.627655587916678D+02 0.787950673781097D+01 0.414566233777024D+01 0.621308476344907D+02
0.140814701890D-03 0.000000000000D+00 0.000000000000D+00 0.227281725452D-04 0.000000000000D+00  6 -2 1 25 -24 21 21 2 0.15315429D-01 0.51370441D-01 0.20706418D+05 0.20706418D+05 0.20706418D+05 0.12321699D+01  1  2  2  3  6  5       21 0.463652805094D-01 0.100000000000D+01
0.120019252081D-04 0.743099597384D-05 -.540765532621D-06 0.227281725452D-04 0.000000000000D+00  6 -2 1 25 -24 21 21 4 0.15315429D-01 0.51370441D-01 0.20706418D+05 0.20706418D+05 0.20706418D+05 0.12321699D+01  1  2  3  3  6  5       21 0.599980278687D-02 0.100000000000D+01
0.647714149243D-05 0.000000000000D+00 0.000000000000D+00 0.227281725452D-04 0.000000000000D+00  6 -2 1 25 -24 21 21 4 0.15315429D-01 0.51370441D-01 0.20706418D+05 0.20706418D+05 0.20706418D+05 0.12321699D+01  1  2 15  3  6  5       21 0.323794482165D-02 0.100000000000D+01
0.215395192003D-04 0.000000000000D+00 0.000000000000D+00 0.226699482425D-04 0.000000000000D+00  6 -2 1 25 -24 21 21 4 0.15315429D-01 0.51370441D-01 0.21406145D+05 0.21406145D+05 0.21406145D+05 0.12305906D+01  1  2 12  3  6  5       21 0.107191731454D-01 0.100000000000D+01
-.272584788717D-04 0.000000000000D+00 0.000000000000D+00 0.227281725452D-04 0.000000000000D+00  6 -2 1 25 -24 21 21 4 0.15315429D-01 0.51370441D-01 0.20706418D+05 0.20706418D+05 0.20706418D+05 0.12321699D+01  1  2  4  3  6  5       21 -.136266052875D-01 0.100000000000D+01
-.268401954002D-04 0.000000000000D+00 0.000000000000D+00 0.227281725452D-04 0.000000000000D+00  6 -2 1 25 -24 21 21 4 0.15315429D-01 0.51370441D-01 0.20706418D+05 0.20706418D+05 0.20706418D+05 0.12321699D+01  1  2  5  3  6  5       21 -.134175039730D-01 0.100000000000D+01
0.866601247319D-04 0.000000000000D+00 -.000000000000D+00 0.227281725452D-04 0.000000000000D+00  6 -2 1 25 -24 21 21 4 0.15315429D-01 0.51370441D-01 0.20706418D+05 0.20706418D+05 0.20706418D+05 0.12321699D+01  1  2  6  3  6  5       21 0.433216878845D-01 0.100000000000D+01
0.190439914133D-05 0.000000000000D+00 0.000000000000D+00 0.226699482425D-04 0.000000000000D+00  6 -2 1 25 -24 1 -1 4 0.15315429D-01 0.51370441D-01 0.21406145D+05 0.21406145D+05 0.21406145D+05 0.12305906D+01  1  2 12  6  6  5       21 0.947727010248D-03 0.100000000000D+01
-.164985032982D-05 0.000000000000D+00 0.000000000000D+00 0.227281725452D-04 0.000000000000D+00  6 -2 1 25 -24 1 -1 4 0.15315429D-01 0.51370441D-01 0.20706418D+05 0.20706418D+05 0.20706418D+05 0.12321699D+01  1  2  5  6  6  5       21 -.824765730094D-03 0.100000000000D+01
0.190439914133D-05 0.000000000000D+00 0.000000000000D+00 0.226699482425D-04 0.000000000000D+00  6 -2 1 25 -24 2 -2 4 0.15315429D-01 0.51370441D-01 0.21406145D+05 0.21406145D+05 0.21406145D+05 0.12305906D+01  1  2 12  7  6  5       21 0.947727010248D-03 0.100000000000D+01
-.164985032982D-05 0.000000000000D+00 0.000000000000D+00 0.227281725452D-04 0.000000000000D+00  6 -2 1 25 -24 2 -2 4 0.15315429D-01 0.51370441D-01 0.20706418D+05 0.20706418D+05 0.20706418D+05 0.12321699D+01  1  2  5  7  6  5       21 -.824765730094D-03 0.100000000000D+01
0.190439914133D-05 0.000000000000D+00 0.000000000000D+00 0.226699482425D-04 0.000000000000D+00  6 -2 1 25 -24 3 -3 4 0.15315429D-01 0.51370441D-01 0.21406145D+05 0.21406145D+05 0.21406145D+05 0.12305906D+01  1  2 12  8  6  5       21 0.947727010248D-03 0.100000000000D+01
0.190439914133D-05 0.000000000000D+00 0.000000000000D+00 0.226699482425D-04 0.000000000000D+00  6 -2 1 25 -24 4 -4 4 0.15315429D-01 0.51370441D-01 0.21406145D+05 0.21406145D+05 0.21406145D+05 0.12305906D+01  1  2 12  8  6  5       21 0.947727010248D-03 0.100000000000D+01
-.164985032982D-05 0.000000000000D+00 0.000000000000D+00 0.227281725452D-04 0.000000000000D+00  6 -2 1 25 -24 3 -3 4 0.15315429D-01 0.51370441D-01 0.20706418D+05 0.20706418D+05 0.20706418D+05 0.12321699D+01  1  2  5  8  6  5       21 -.824765730094D-03 0.100000000000D+01
-.164985032982D-05 0.000000000000D+00 0.000000000000D+00 0.227281725452D-04 0.000000000000D+00  6 -2 1 25 -24 4 -4 4 0.15315429D-01 0.51370441D-01 0.20706418D+05 0.20706418D+05 0.20706418D+05 0.12321699D+01  1  2  5  8  6  5       21 -.824765730094D-03 0.100000000000D+01
  </mgrwgt>
  </event>
  <event>
  6     66 -.49582427E-03 0.25460176E+02 0.75467711E-02 0.11999073E+00
       -4 -1    0    0    0  501 0.00000000E+00 0.00000000E+00 0.22478923E+03 0.22479457E+03 0.15500000E+01 0.0000E+00 0.9000E+01
        3 -1    0    0  503    0 0.00000000E+00 0.00000000E+00 -.14740293E+03 0.14740378E+03 0.50000000E+00 0.0000E+00 0.9000E+01
       25  1    1    2    0    0 0.37794810E+02 0.52158544E+02 -.41216359E+01 0.14068031E+03 0.12500000E+03 0.0000E+00 0.9000E+01
      -24  1    1    2    0    0 -.97342777E+01 -.79546429E+02 -.91932982E+01 0.11390401E+03 0.80419002E+02 0.0000E+00 0.9000E+01
       21  1    1    2  502  501 -.13997224E+02 0.29400463E+02 0.96802008E+02 0.10213472E+03 0.75000000E+00 0.0000E+00 0.9000E+01
       21  1    1    2  503  502 -.14063308E+02 -.20125775E+01 -.61007807E+01 0.15479313E+02 0.75000000E+00 0.0000E+00 0.9000E+01
#aMCatNLO 2  0  0  2  5 0.14206587D+02 0.00000000D+00  -5  6  0 0.00000000D+00 0.00000000D+00 0.00000000D+00 0.00000000D+00 0.00000000D+00
  <mgrwgt>
 -.2513028923D-01    3    2    0
 0.173260318687909D+03 0.000000000000000D+00 0.000000000000000D+00 0.173260318687909D+03
 0.173260318687909D+03 0.000000000000000D+00 0.000000000000000D+00 -.173260318687909D+03
 0.143977093988976D+03 0.319195835424292D+02 0.513172064294938D+02 -.381062738175883D+02
 0.120328880617104D+03 -.145960022470513D+02 -.802426363722370D+02 -.368768163299355D+02
 0.822146627697383D+02 -.173235812953779D+02 0.289254299427433D+02 0.749830901475238D+02
 0.000000000000000D+00 -.000000000000000D+00 -.000000000000000D+00 -.000000000000000D+00
 0.177092261562292D+03 0.000000000000000D+00 0.000000000000000D+00 0.177092261562292D+03
 0.187093164719954D+03 0.000000000000000D+00 0.000000000000000D+00 -.187093164719954D+03
 0.145691526122053D+03 0.377951191274782D+02 0.521580449178424D+02 -.381062738175883D+02
 0.119371548889182D+03 -.973400372344214D+01 -.795468435496478D+02 -.368768163299355D+02
 0.817486595472791D+02 -.139978074005486D+02 0.294013761188559D+02 0.749830901475238D+02
 0.173736917237319D+02 -.140633080034875D+02 -.201257748705053D+01 -.100009031576619D+02
-.745019244037D-03 0.000000000000D+00 0.000000000000D+00 0.226489525631D-04 0.000000000000D+00  6 -4 3 25 -24 21 21 4 0.33833586D-01 0.23177652D-01 0.22638594D+05 0.22638594D+05 0.22638594D+05 0.12279446D+01  1  2 13  2  6  2        3 -.492865032187D-01 0.100000000000D+01
-.265172423211D-05 0.000000000000D+00 0.000000000000D+00 0.228136325354D-04 0.000000000000D+00  6 -4 3 25 -24 21 21 4 0.33833586D-01 0.21000202D-01 0.20606295D+05 0.20606295D+05 0.20606295D+05 0.12324007D+01  1  2  8  2  6  2        3 -.210683732389D-03 0.100000000000D+01
0.369450174607D-03 0.000000000000D+00 0.000000000000D+00 0.228136325354D-04 0.492913367036D-06  6 -4 3 25 -24 21 21 4 0.34581873D-01 0.22676827D-01 0.22638594D+05 0.22638594D+05 0.22638594D+05 0.12279446D+01  1  2  1  2  6  2        3 0.243668977163D-01 0.100000000000D+01
  </mgrwgt>
  </event>
  <event>
  5     66 0.49582427E-03 0.36571620E+02 0.75467711E-02 0.10824363E+00
       -2 -1    0    0    0  501 0.00000000E+00 0.00000000E+00 0.17482425E+03 0.17482454E+03 0.32000000E+00 0.0000E+00 0.9000E+01
        1 -1    0    0  502    0 0.00000000E+00 0.00000000E+00 -.21154852E+03 0.21154876E+03 0.32000000E+00 0.0000E+00 0.9000E+01
       25  1    1    2    0    0 -.20597535E+02 0.52389628E+02 0.55656214E+02 0.14795792E+03 0.12500000E+03 0.0000E+00 0.9000E+01
      -24  1    1    2    0    0 0.21524647E+02 -.88948824E+02 0.17065210E+02 0.12301886E+03 0.80419002E+02 0.0000E+00 0.9000E+01
       21  1    1    2  502  501 -.92711250E+00 0.36559196E+02 -.10944569E+03 0.11539652E+03 0.75000000E+00 0.0000E+00 0.9000E+01
#aMCatNLO 1  0  0  2  5 0.28886606D+02 0.00000000D+00  -5  6  0 0.00000000D+00 0.00000000D+00 0.00000000D+00 0.00000000D+00 0.00000000D+00
  <mgrwgt>
 0.6807262409D-01    5    4    0
 0.192312022546738D+03 0.000000000000000D+00 0.000000000000000D+00 0.192312022546738D+03
 0.192312022546738D+03 0.000000000000000D+00 0.000000000000000D+00 -.192312022546738D+03
 0.153945262303503D+03 -.205975255909218D+02 0.523892581836933D+02 0.700374996140487D+02
 0.125208155357647D+03 0.215246551002581D+02 -.889491247810597D+02 0.288895939257106D+02
 0.105470627432326D+03 -.927129509336335D+00 0.365598665973664D+02 -.989270935397593D+02
 0.000000000000000D+00 -.000000000000000D+00 0.000000000000000D+00 -.000000000000000D+00
 0.243600542268138D+03 0.000000000000000D+00 0.000000000000000D+00 0.243600542268138D+03
 0.103538782445258D+04 0.000000000000000D+00 0.000000000000000D+00 -.103538782445258D+04
 0.153433650498634D+03 0.543630078386088D+02 0.750314146796715D+01 0.700374996140487D+02
 0.186902427520330D+03 0.976391014955941D+02 -.134526200721504D+03 0.288895939257106D+02
 0.111904078397790D+03 0.520840668494776D+02 0.481693951108963D+01 -.989270935397593D+02
 0.826748210303961D+03 -.204086176183680D+03 0.122206119742447D+03 -.791787282184440D+03
 0.192312022546738D+03 0.000000000000000D+00 0.000000000000000D+00 0.192312022546738D+03
 0.192312022546738D+03 0.000000000000000D+00 0.000000000000000D+00 -.192312022546738D+03
 0.153945262303503D+03 -.205975255909218D+02 0.523892581836933D+02 0.700374996140487D+02
 0.125208155357647D+03 0.215246551002581D+02 -.889491247810597D+02 0.288895939257106D+02
 0.000000000000000D+00 -.000000000000000D+00 0.000000000000000D+00 -.000000000000000D+00
 0.105470627432326D+03 -.927129509336335D+00 0.365598665973664D+02 -.989270935397593D+02
 0.243600542268138D+03 0.000000000000000D+00 0.000000000000000D+00 0.243600542268138D+03
 0.103538782445258D+04 0.000000000000000D+00 0.000000000000000D+00 -.103538782445258D+04
 0.153433650498634D+03 0.543630078386088D+02 0.750314146796715D+01 0.700374996140487D+02
 0.186902427520330D+03 0.976391014955941D+02 -.134526200721504D+03 0.288895939257106D+02
 0.826748210303961D+03 -.204086176183680D+03 0.122206119742447D+03 -.791787282184440D+03
 0.111904078397790D+03 0.520840668494776D+02 0.481693951108963D+01 -.989270935397593D+02
0.408655582503D-03 0.000000000000D+00 0.000000000000D+00 0.206560122194D-04 0.000000000000D+00  6 -2 1 25 -24 21 21 2 0.26896079D-01 0.32545967D-01 0.21828900D+05 0.21828900D+05 0.21828900D+05 0.12296642D+01  1  2  2  2  6  2        1 0.907120629494D-01 0.100000000000D+01
0.309897852987D-04 0.215653475632D-04 -.156934503830D-05 0.206560122194D-04 0.000000000000D+00  6 -2 1 25 -24 21 21 4 0.26896079D-01 0.32545967D-01 0.21828900D+05 0.21828900D+05 0.21828900D+05 0.12296642D+01  1  2  3  2  6  2        1 0.104015778103D-01 0.100000000000D+01
0.191500997605D-04 0.000000000000D+00 0.000000000000D+00 0.206560122194D-04 0.000000000000D+00  6 -2 1 25 -24 21 21 4 0.26896079D-01 0.32545967D-01 0.21828900D+05 0.21828900D+05 0.21828900D+05 0.12296642D+01  1  2 15  2  6  2        1 0.642764223156D-02 0.100000000000D+01
-.113359808836D-02 0.000000000000D+00 -.433746727049D-03 0.206560122194D-04 0.000000000000D+00  6 -2 1 25 -24 21 21 4 0.26896079D-01 0.19635504D+00 0.21828900D+05 0.21828900D+05 0.21828900D+05 0.12296642D+01  1  2  5  2  6  2        1 -.301149672178D-01 0.100000000000D+01
-.277895266821D-03 0.000000000000D+00 -.955429309802D-04 0.206560122194D-04 0.000000000000D+00  6 -2 21 25 -24 -1 21 4 0.26896079D-01 0.19635504D+00 0.21828900D+05 0.21828900D+05 0.21828900D+05 0.12296642D+01  3  4  5  5  5  2        1 -.935369168092D-02 0.100000000000D+01
  </mgrwgt>
  </event>
  <event>
  5     66 0.49582427E-03 0.26200951E+02 0.75467711E-02 0.12009594E+00
       -2 -1    0    0    0  501 0.00000000E+00 0.00000000E+00 0.19471596E+03 0.19471622E+03 0.32000000E+00 0.0000E+00 0.9000E+01
        1 -1    0    0  502    0 0.00000000E+00 0.00000000E+00 -.13125278E+03 0.13125317E+03 0.32000000E+00 0.0000E+00 0.9000E+01
       25  1    1    2    0    0 -.22300941E+02 0.69209366E+02 0.87643325E+02 0.16909648E+03 0.12500000E+03 0.0000E+00 0.9000E+01
      -24  1    1    2    0    0 0.33609736E+02 -.92836933E+02 -.11785927E+02 0.12788446E+03 0.80419002E+02 0.0000E+00 0.9000E+01
       21  1    1    2  502  501 -.11308795E+02 0.23627567E+02 -.12394223E+02 0.28988447E+02 0.75000000E+00 0.0000E+00 0.9000E+01
#aMCatNLO 1  0  0  5  1 0.45181707D+01 0.00000000D+00  -5  6  0 0.00000000D+00 0.00000000D+00 0.00000000D+00 0.00000000D+00 0.00000000D+00
  <mgrwgt>
 0.1885776442D+00   14    2    0
 0.159865933865725D+03 0.000000000000000D+00 0.000000000000000D+00 0.159865933865725D+03
 0.159865933865725D+03 -.000000000000000D+00 -.000000000000000D+00 -.159865933865725D+03
 0.154998365975842D+03 -.222994364250604D+02 0.692062214133326D+02 0.557918229491965D+02
 0.132720297300047D+03 0.336110250028465D+02 -.928396257438289D+02 -.373973829438113D+02
 0.320132044555608D+02 -.113115885777861D+02 0.236334043304963D+02 -.183944400053852D+02
 0.000000000000000D+00 0.000000000000000D+00 0.000000000000000D+00 0.000000000000000D+00
 0.159865933865725D+03 0.000000000000000D+00 0.000000000000000D+00 0.159865933865725D+03
 0.159865933865725D+03 -.000000000000000D+00 -.000000000000000D+00 -.159865933865725D+03
 0.155727179082378D+03 -.236851016794236D+02 0.721013043628131D+02 0.535385111164989D+02
 0.131274963815865D+03 0.324337511466647D+02 -.903799368274989D+02 -.393118172576592D+02
 0.514219616538601D+01 0.495886178391377D+01 0.103700109739909D+00 0.135687784954656D+01
 0.275875286678204D+02 -.137075112511549D+02 0.181749323549459D+02 -.155835717083863D+02
0.601201654747D-03 0.000000000000D+00 0.000000000000D+00 0.267768202431D-04 0.000000000000D+00  6 -2 1 25 -24 21 21 2 0.29956351D-01 0.20192786D-01 0.22223723D+05 0.22223723D+05 0.22223723D+05 0.12288169D+01  1  2  2  3  6  5       21 0.200425083670D+00 0.100000000000D+01
0.987181796964D-04 0.317262829514D-04 -.230877265426D-05 0.267768202431D-04 0.000000000000D+00  6 -2 1 25 -24 21 21 4 0.29956351D-01 0.20192786D-01 0.22223723D+05 0.22223723D+05 0.22223723D+05 0.12288169D+01  1  2  3  3  6  5       21 0.496939391108D-01 0.100000000000D+01
0.253600044420D-04 0.000000000000D+00 0.000000000000D+00 0.267768202431D-04 0.000000000000D+00  6 -2 1 25 -24 21 21 4 0.29956351D-01 0.20192786D-01 0.22223723D+05 0.22223723D+05 0.22223723D+05 0.12288169D+01  1  2 15  3  6  5       21 0.127660226360D-01 0.100000000000D+01
0.994742675325D-05 0.000000000000D+00 0.000000000000D+00 0.267622613626D-04 0.000000000000D+00  6 -2 1 25 -24 21 21 4 0.29956351D-01 0.20192786D-01 0.22381611D+05 0.22381611D+05 0.22381611D+05 0.12284828D+01  1  2 12  3  6  5       21 0.500283850753D-02 0.100000000000D+01
-.211503961669D-03 0.000000000000D+00 0.000000000000D+00 0.267768202431D-04 0.000000000000D+00  6 -2 1 25 -24 21 21 4 0.29956351D-01 0.20192786D-01 0.22223723D+05 0.22223723D+05 0.22223723D+05 0.12288169D+01  1  2  4  3  6  5       21 -.106469396267D+00 0.100000000000D+01
0.185384299772D-04 0.000000000000D+00 0.000000000000D+00 0.267768202431D-04 0.391534910218D-05  6 -2 1 25 -24 21 21 4 0.29956351D-01 0.20192786D-01 0.22381611D+05 0.22381611D+05 0.22381611D+05 0.12284828D+01  1  2 11  3  6  5       21 0.932349376975D-02 0.100000000000D+01
0.153537902445D-05 0.000000000000D+00 0.000000000000D+00 0.267622613626D-04 0.000000000000D+00  6 -2 1 25 -24 1 -1 4 0.29956351D-01 0.20192786D-01 0.22381611D+05 0.22381611D+05 0.22381611D+05 0.12284828D+01  1  2 12  6  6  5       21 0.772184957747D-03 0.100000000000D+01
0.710432603103D-05 0.000000000000D+00 0.000000000000D+00 0.267622613626D-04 0.724015860791D-07  6 -2 1 25 -24 1 -1 4 0.29956351D-01 0.20192786D-01 0.22381611D+05 0.22381611D+05 0.22381611D+05 0.12284828D+01  1  2 11  6  6  5       21 0.357296381463D-02 0.100000000000D+01
0.153537902445D-05 0.000000000000D+00 0.000000000000D+00 0.267622613626D-04 0.000000000000D+00  6 -2 1 25 -24 2 -2 4 0.29956351D-01 0.20192786D-01 0.22381611D+05 0.22381611D+05 0.22381611D+05 0.12284828D+01  1  2 12  7  6  5       21 0.772184957747D-03 0.100000000000D+01
0.739660800511D-05 0.000000000000D+00 0.000000000000D+00 0.267622613626D-04 0.687207850596D-07  6 -2 1 25 -24 2 -2 4 0.29956351D-01 0.20192786D-01 0.22381611D+05 0.22381611D+05 0.22381611D+05 0.12284828D+01  1  2 11  7  6  5       21 0.371996057583D-02 0.100000000000D+01
0.153537902445D-05 0.000000000000D+00 0.000000000000D+00 0.267622613626D-04 0.000000000000D+00  6 -2 1 25 -24 3 -3 4 0.29956351D-01 0.20192786D-01 0.22381611D+05 0.22381611D+05 0.22381611D+05 0.12284828D+01  1  2 12  8  6  5       21 0.772184957747D-03 0.100000000000D+01
0.153537902445D-05 0.000000000000D+00 0.000000000000D+00 0.267622613626D-04 0.000000000000D+00  6 -2 1 25 -24 4 -4 4 0.29956351D-01 0.20192786D-01 0.22381611D+05 0.22381611D+05 0.22381611D+05 0.12284828D+01  1  2 12  8  6  5       21 0.772184957747D-03 0.100000000000D+01
0.741060347226D-05 0.000000000000D+00 0.000000000000D+00 0.267622613626D-04 0.684369213698D-07  6 -2 1 25 -24 3 -3 4 0.29956351D-01 0.20192786D-01 0.22381611D+05 0.22381611D+05 0.22381611D+05 0.12284828D+01  1  2 11  8  6  5       21 0.372699928682D-02 0.100000000000D+01
0.741060347226D-05 0.000000000000D+00 0.000000000000D+00 0.267622613626D-04 0.684369213698D-07  6 -2 1 25 -24 4 -4 4 0.29956351D-01 0.20192786D-01 0.22381611D+05 0.22381611D+05 0.22381611D+05 0.12284828D+01  1  2 11  8  6  5       21 0.372699928682D-02 0.100000000000D+01
  </mgrwgt>
  </event>
  <event>
  6     66 0.49582427E-03 0.38883795E+02 0.75467711E-02 0.10803814E+00
       -2 -1    0    0    0  501 0.00000000E+00 0.00000000E+00 0.11122215E+03 0.11122261E+03 0.32000000E+00 0.0000E+00 0.9000E+01
        1 -1    0    0  503    0 0.00000000E+00 0.00000000E+00 -.15669615E+04 0.15669616E+04 0.32000000E+00 0.0000E+00 0.9000E+01
       25  1    1    2    0    0 -.15943211E+03 -.18986655E+03 -.21827582E+03 0.35318159E+03 0.12500000E+03 0.0000E+00 0.9000E+01
      -24  1    1    2    0    0 0.14207474E+03 0.23512322E+03 -.43722760E+03 0.52259291E+03 0.80419002E+02 0.0000E+00 0.9000E+01
       21  1    1    2  502  501 -.76873104E+01 -.83848515E+01 -.81622065E+02 0.82414346E+02 0.75000000E+00 0.0000E+00 0.9000E+01
       21  1    1    2  503  502 0.25044683E+02 -.36871823E+02 -.71861392E+03 0.71999535E+03 0.75000000E+00 0.0000E+00 0.9000E+01
#aMCatNLO 2  0  0  2  2 0.23820073D+02 0.00000000D+00  -5  6  0 0.00000000D+00 0.00000000D+00 0.00000000D+00 0.00000000D+00 0.00000000D+00
  <mgrwgt>
 0.3317727562D+00    1    2    0
 0.305280661090737D+03 0.000000000000000D+00 0.000000000000000D+00 0.305280661090737D+03
 0.305280661090737D+03 0.000000000000000D+00 0.000000000000000D+00 -.305280661090737D+03
 0.295671518981536D+03 -.147435829401385D+03 -.207525179341870D+03 0.836219067272403D+02
 0.283903299107865D+03 0.153861144862467D+03 0.217773472757685D+03 -.550938286437626D+02
 0.309865040920730D+02 -.642531546108112D+01 -.102482934158152D+02 -.285280780834778D+02
 0.000000000000000D+00 0.000000000000000D+00 -.000000000000000D+00 -.000000000000000D+00
 0.308005321139333D+03 0.000000000000000D+00 0.000000000000000D+00 0.308005321139333D+03
 0.565836464712862D+03 0.000000000000000D+00 0.000000000000000D+00 -.565836464712862D+03
 0.289973598996053D+03 -.159431189375638D+03 -.189865111814398D+03 0.836219067272403D+02
 0.291498930006284D+03 0.142075582827822D+03 0.235124667038455D+03 -.550938286437626D+02
 0.307136319086489D+02 -.768907625933526D+01 -.838773224185762D+01 -.285280780834778D+02
 0.261655624941210D+03 0.250446828071511D+02 -.368718229821993D+02 -.257831143573529D+03
0.115684565371D-01 0.000000000000D+00 0.000000000000D+00 0.104811487419D-03 0.261745829719D-06  6 -2 1 25 -24 21 21 4 0.17111108D-01 0.24107063D+00 0.96054022D+05 0.96054022D+05 0.96054022D+05 0.11651812D+01  1  2  1  2  6  2        1 0.331772756230D+00 0.100000000000D+01
  </mgrwgt>
  </event>
  <event>
  5     66 -.49582427E-03 0.22855053E+02 0.75467711E-02 0.11983692E+00
       -2 -1    0    0    0  501 0.00000000E+00 0.00000000E+00 0.25128405E+02 0.25130443E+02 0.32000000E+00 0.0000E+00 0.9000E+01
        1 -1    0    0  502    0 -.00000000E+00 -.00000000E+00 -.94818187E+03 0.94818193E+03 0.32000000E+00 0.0000E+00 0.9000E+01
       25  1    1    2    0    0 -.20602073E+02 0.10027405E+03 -.57976368E+03 0.60185568E+03 0.12500000E+03 0.0000E+00 0.9000E+01
      -24  1    1    2    0    0 0.15062133E+01 -.87736212E+02 -.28673310E+03 0.31045611E+03 0.80419002E+02 0.0000E+00 0.9000E+01
       21  1    1    2  502  501 0.19095860E+02 -.12537841E+02 -.56556693E+02 0.61000584E+02 0.75000000E+00 0.0000E+00 0.9000E+01
#aMCatNLO 1  0  0  5  1 0.38362526D+01 0.00000000D+00  -5  6  0 0.00000000D+00 0.00000000D+00 0.00000000D+00 0.00000000D+00 0.00000000D+00
  <mgrwgt>
 -.2398554174D+00   20    2    0
 0.154360993431840D+03 0.000000000000000D+00 0.000000000000000D+00 0.154360993431840D+03
 0.154360993431840D+03 -.000000000000000D+00 -.000000000000000D+00 -.154360993431840D+03
 0.164036331634739D+03 -.206073713574945D+02 0.100277531584157D+03 -.283314489799697D+02
 0.121469003016980D+03 0.150229003373526D+01 -.877336358608096D+02 0.242498454194223D+02
 0.232166522119608D+02 0.191050813237592D+02 -.125438957233475D+02 0.408160356054737D+01
 0.000000000000000D+00 0.000000000000000D+00 0.000000000000000D+00 0.000000000000000D+00
 0.154360993431840D+03 0.000000000000000D+00 0.000000000000000D+00 0.154360993431840D+03
 0.154360993431840D+03 -.000000000000000D+00 -.000000000000000D+00 -.154360993431840D+03
 0.163631200630296D+03 -.198856528908523D+02 0.998036701525434D+02 -.281772612739223D+02
 0.121753940167152D+03 0.203801137418551D+01 -.880853764536655D+02 0.243642967579740D+02
 0.165996393231513D+02 0.112155420941854D+02 -.119472922014892D+02 0.264987740178673D+01
 0.673720674308016D+01 0.663209942248138D+01 0.228998502611433D+00 0.116308711416155D+01
0.178753142569D-03 0.000000000000D+00 0.000000000000D+00 0.371601578733D-04 0.000000000000D+00  6 -2 1 25 -24 21 21 2 0.38660694D-02 0.14587430D+00 0.23020480D+05 0.23020480D+05 0.23020480D+05 0.12271573D+01  1  2  2  3  6  5       21 0.117582276352D+00 0.100000000000D+01
0.437030658861D-04 0.943306249215D-05 -.686459134250D-06 0.371601578733D-04 0.000000000000D+00  6 -2 1 25 -24 21 21 4 0.38660694D-02 0.14587430D+00 0.23020480D+05 0.23020480D+05 0.23020480D+05 0.12271573D+01  1  2  3  3  6  5       21 0.432912952049D-01 0.100000000000D+01
0.671993766001D-05 0.000000000000D+00 0.000000000000D+00 0.371601578733D-04 0.000000000000D+00  6 -2 1 25 -24 21 21 4 0.38660694D-02 0.14587430D+00 0.23020480D+05 0.23020480D+05 0.23020480D+05 0.12271573D+01  1  2 15  3  6  5       21 0.665662234672D-02 0.100000000000D+01
0.803951962498D-05 0.000000000000D+00 0.000000000000D+00 0.371592022017D-04 0.000000000000D+00  6 -2 1 25 -24 21 21 4 0.38660694D-02 0.14587430D+00 0.23028208D+05 0.23028208D+05 0.23028208D+05 0.12271416D+01  1  2 12  3  6  5       21 0.796341037062D-02 0.100000000000D+01
0.809402519336D-05 0.000000000000D+00 0.000000000000D+00 0.371592022017D-04 0.000000000000D+00  6 -2 1 25 -24 21 21 4 0.38660694D-02 0.14587430D+00 0.23028208D+05 0.23028208D+05 0.23028208D+05 0.12271416D+01  1  2 12  3  6  5       21 0.801739994073D-02 0.100000000000D+01
-.771203213219D-03 0.000000000000D+00 0.000000000000D+00 0.371601578733D-04 0.000000000000D+00  6 -2 1 25 -24 21 21 4 0.38660694D-02 0.14587430D+00 0.23020480D+05 0.23020480D+05 0.23020480D+05 0.12271573D+01  1  2  4  3  6  5       21 -.763936929583D+00 0.100000000000D+01
-.452598350184D-03 0.000000000000D+00 0.000000000000D+00 0.371601578733D-04 0.000000000000D+00  6 -2 1 25 -24 21 21 4 0.38660694D-02 0.14587430D+00 0.23020480D+05 0.23020480D+05 0.23020480D+05 0.12271573D+01  1  2  5  3  6  5       21 -.448333964444D+00 0.100000000000D+01
0.854383547668D-03 0.000000000000D+00 -.000000000000D+00 0.371601578733D-04 0.000000000000D+00  6 -2 1 25 -24 21 21 4 0.38660694D-02 0.14587430D+00 0.23020480D+05 0.23020480D+05 0.23020480D+05 0.12271573D+01  1  2  6  3  6  5       21 0.846333538171D+00 0.100000000000D+01
0.387306893736D-06 0.000000000000D+00 0.000000000000D+00 0.371592022017D-04 0.000000000000D+00  6 -2 1 25 -24 1 -1 4 0.38660694D-02 0.14587430D+00 0.23028208D+05 0.23028208D+05 0.23028208D+05 0.12271416D+01  1  2 12  6  6  5       21 0.383640301667D-03 0.100000000000D+01
0.389299235446D-06 0.000000000000D+00 0.000000000000D+00 0.371592022017D-04 0.000000000000D+00  6 -2 1 25 -24 1 -1 4 0.38660694D-02 0.14587430D+00 0.23028208D+05 0.23028208D+05 0.23028208D+05 0.12271416D+01  1  2 12  6  6  5       21 0.385613782096D-03 0.100000000000D+01
-.152703983447D-04 0.000000000000D+00 0.000000000000D+00 0.371601578733D-04 0.000000000000D+00  6 -2 1 25 -24 1 -1 4 0.38660694D-02 0.14587430D+00 0.23020480D+05 0.23020480D+05 0.23020480D+05 0.12271573D+01  1  2  5  6  6  5       21 -.151265205137D-01 0.100000000000D+01
0.387306893736D-06 0.000000000000D+00 0.000000000000D+00 0.371592022017D-04 0.000000000000D+00  6 -2 1 25 -24 2 -2 4 0.38660694D-02 0.14587430D+00 0.23028208D+05 0.23028208D+05 0.23028208D+05 0.12271416D+01  1  2 12  7  6  5       21 0.383640301667D-03 0.100000000000D+01
0.389299235446D-06 0.000000000000D+00 0.000000000000D+00 0.371592022017D-04 0.000000000000D+00  6 -2 1 25 -24 2 -2 4 0.38660694D-02 0.14587430D+00 0.23028208D+05 0.23028208D+05 0.23028208D+05 0.12271416D+01  1  2 12  7  6  5       21 0.385613782096D-03 0.100000000000D+01
-.152703983447D-04 0.000000000000D+00 0.000000000000D+00 0.371601578733D-04 0.000000000000D+00  6 -2 1 25 -24 2 -2 4 0.38660694D-02 0.14587430D+00 0.23020480D+05 0.23020480D+05 0.23020480D+05 0.12271573D+01  1  2  5  7  6  5       21 -.151265205137D-01 0.100000000000D+01
0.387306893736D-06 0.000000000000D+00 0.000000000000D+00 0.371592022017D-04 0.000000000000D+00  6 -2 1 25 -24 3 -3 4 0.38660694D-02 0.14587430D+00 0.23028208D+05 0.23028208D+05 0.23028208D+05 0.12271416D+01  1  2 12  8  6  5       21 0.383640301667D-03 0.100000000000D+01
0.387306893736D-06 0.000000000000D+00 0.000000000000D+00 0.371592022017D-04 0.000000000000D+00  6 -2 1 25 -24 4 -4 4 0.38660694D-02 0.14587430D+00 0.23028208D+05 0.23028208D+05 0.23028208D+05 0.12271416D+01  1  2 12  8  6  5       21 0.383640301667D-03 0.100000000000D+01
0.389299235446D-06 0.000000000000D+00 0.000000000000D+00 0.371592022017D-04 0.000000000000D+00  6 -2 1 25 -24 3 -3 4 0.38660694D-02 0.14587430D+00 0.23028208D+05 0.23028208D+05 0.23028208D+05 0.12271416D+01  1  2 12  8  6  5       21 0.385613782096D-03 0.100000000000D+01
0.389299235446D-06 0.000000000000D+00 0.000000000000D+00 0.371592022017D-04 0.000000000000D+00  6 -2 1 25 -24 4 -4 4 0.38660694D-02 0.14587430D+00 0.23028208D+05 0.23028208D+05 0.23028208D+05 0.12271416D+01  1  2 12  8  6  5       21 0.385613782096D-03 0.100000000000D+01
-.152703983447D-04 0.000000000000D+00 0.000000000000D+00 0.371601578733D-04 0.000000000000D+00  6 -2 1 25 -24 3 -3 4 0.38660694D-02 0.14587430D+00 0.23020480D+05 0.23020480D+05 0.23020480D+05 0.12271573D+01  1  2  5  8  6  5       21 -.151265205137D-01 0.100000000000D+01
-.152703983447D-04 0.000000000000D+00 0.000000000000D+00 0.371601578733D-04 0.000000000000D+00  6 -2 1 25 -24 4 -4 4 0.38660694D-02 0.14587430D+00 0.23020480D+05 0.23020480D+05 0.23020480D+05 0.12271573D+01  1  2  5  8  6  5       21 -.151265205137D-01 0.100000000000D+01
  </mgrwgt>
  </event>
  <event>
  5     66 0.49582427E-03 0.22115343E+02 0.75467711E-02 0.12319005E+00
       -2 -1    0    0    0  501 0.00000000E+00 0.00000000E+00 0.17201866E+03 0.17201895E+03 0.32000000E+00 0.0000E+00 0.9000E+01
        1 -1    0    0  502    0 0.00000000E+00 0.00000000E+00 -.97350688E+02 0.97351214E+02 0.32000000E+00 0.0000E+00 0.9000E+01
       25  1    1    2    0    0 -.41770330E+02 -.43749729E+02 0.15205060E+02 0.13969607E+03 0.12500000E+03 0.0000E+00 0.9000E+01
      -24  1    1    2    0    0 0.41652731E+02 0.21645729E+02 0.47667768E+02 0.10460841E+03 0.80419002E+02 0.0000E+00 0.9000E+01
       21  1    1    2  502  501 0.11759915E+00 0.22104000E+02 0.11795141E+02 0.25065683E+02 0.75000000E+00 0.0000E+00 0.9000E+01
#aMCatNLO 1  0  0  5  1 0.10719720D+02 0.00000000D+00  -5  6  0 0.00000000D+00 0.00000000D+00 0.00000000D+00 0.00000000D+00 0.00000000D+00
  <mgrwgt>
 0.6886087064D+00   14    2    0
 0.129407285281416D+03 0.000000000000000D+00 0.000000000000000D+00 0.129407285281416D+03
 0.129407285281416D+03 -.000000000000000D+00 -.000000000000000D+00 -.129407285281416D+03
 0.141009152463733D+03 -.417703650628928D+02 -.437563159019704D+02 -.244786131089953D+02
 0.951214292342919D+02 0.416527072252929D+02 0.216412854553244D+02 0.194313429759517D+02
 0.226839888648081D+02 0.117657837599817D+00 0.221150304466459D+02 0.504727013304355D+01
 0.000000000000000D+00 0.000000000000000D+00 0.000000000000000D+00 -.000000000000000D+00
 0.129407285281416D+03 0.000000000000000D+00 0.000000000000000D+00 0.129407285281416D+03
 0.129407285281416D+03 -.000000000000000D+00 -.000000000000000D+00 -.129407285281416D+03
 0.138509626027422D+03 -.417295439782778D+02 -.360835628789658D+02 -.227274756975112D+02
 0.967172469723482D+02 0.416807234568897D+02 0.269072314169489D+02 0.206331795204887D+02
 0.111731766104521D+02 -.105380462585510D+02 0.270801354296130D+01 0.254088946476062D+01
 0.124145209526106D+02 0.105868667799391D+02 0.646831791905559D+01 -.446593287738171D+00
0.687477455777D-03 0.000000000000D+00 0.000000000000D+00 0.468698661377D-04 0.000000000000D+00  6 -2 1 25 -24 21 21 2 0.26464472D-01 0.14977092D-01 0.16141590D+05 0.16141590D+05 0.16141590D+05 0.12442073D+01  1  2  2  3  6  5       21 0.426013939074D+00 0.100000000000D+01
0.134421251278D-03 0.362791820556D-04 -.264009444716D-05 0.468698661377D-04 0.000000000000D+00  6 -2 1 25 -24 21 21 4 0.26464472D-01 0.14977092D-01 0.16141590D+05 0.16141590D+05 0.16141590D+05 0.12442073D+01  1  2  3  3  6  5       21 0.128949234883D+00 0.100000000000D+01
0.170678416820D-04 0.000000000000D+00 0.000000000000D+00 0.468698661377D-04 0.000000000000D+00  6 -2 1 25 -24 21 21 4 0.26464472D-01 0.14977092D-01 0.16141590D+05 0.16141590D+05 0.16141590D+05 0.12442073D+01  1  2 15  3  6  5       21 0.163730444782D-01 0.100000000000D+01
0.166897311411D-03 0.000000000000D+00 0.000000000000D+00 0.468608300380D-04 0.000000000000D+00  6 -2 1 25 -24 21 21 4 0.26464472D-01 0.14977092D-01 0.16181102D+05 0.16181102D+05 0.16181102D+05 0.12440874D+01  1  2 12  3  6  5       21 0.160054623274D+00 0.100000000000D+01
0.174933299249D-03 0.000000000000D+00 0.000000000000D+00 0.468608300380D-04 0.000000000000D+00  6 -2 1 25 -24 21 21 4 0.26464472D-01 0.14977092D-01 0.16181102D+05 0.16181102D+05 0.16181102D+05 0.12440874D+01  1  2 12  3  6  5       21 0.167761140504D+00 0.100000000000D+01
-.275721121425D-03 0.000000000000D+00 0.000000000000D+00 0.468698661377D-04 0.000000000000D+00  6 -2 1 25 -24 21 21 4 0.26464472D-01 0.14977092D-01 0.16141590D+05 0.16141590D+05 0.16141590D+05 0.12442073D+01  1  2  4  3  6  5       21 -.264497074018D+00 0.100000000000D+01
0.687038698788D-05 0.000000000000D+00 0.000000000000D+00 0.468608300380D-04 0.000000000000D+00  6 -2 1 25 -24 1 -1 4 0.26464472D-01 0.14977092D-01 0.16181102D+05 0.16181102D+05 0.16181102D+05 0.12440874D+01  1  2 12  6  6  5       21 0.658870530505D-02 0.100000000000D+01
0.719472353674D-05 0.000000000000D+00 0.000000000000D+00 0.468608300380D-04 0.000000000000D+00  6 -2 1 25 -24 1 -1 4 0.26464472D-01 0.14977092D-01 0.16181102D+05 0.16181102D+05 0.16181102D+05 0.12440874D+01  1  2 12  6  6  5       21 0.689974425291D-02 0.100000000000D+01
0.687038698788D-05 0.000000000000D+00 0.000000000000D+00 0.468608300380D-04 0.000000000000D+00  6 -2 1 25 -24 2 -2 4 0.26464472D-01 0.14977092D-01 0.16181102D+05 0.16181102D+05 0.16181102D+05 0.12440874D+01  1  2 12  7  6  5       21 0.658870530505D-02 0.100000000000D+01
0.719472353674D-05 0.000000000000D+00 0.000000000000D+00 0.468608300380D-04 0.000000000000D+00  6 -2 1 25 -24 2 -2 4 0.26464472D-01 0.14977092D-01 0.16181102D+05 0.16181102D+05 0.16181102D+05 0.12440874D+01  1  2 12  7  6  5       21 0.689974425291D-02 0.100000000000D+01
0.687038698788D-05 0.000000000000D+00 0.000000000000D+00 0.468608300380D-04 0.000000000000D+00  6 -2 1 25 -24 3 -3 4 0.26464472D-01 0.14977092D-01 0.16181102D+05 0.16181102D+05 0.16181102D+05 0.12440874D+01  1  2 12  8  6  5       21 0.658870530505D-02 0.100000000000D+01
0.687038698788D-05 0.000000000000D+00 0.000000000000D+00 0.468608300380D-04 0.000000000000D+00  6 -2 1 25 -24 4 -4 4 0.26464472D-01 0.14977092D-01 0.16181102D+05 0.16181102D+05 0.16181102D+05 0.12440874D+01  1  2 12  8  6  5       21 0.658870530505D-02 0.100000000000D+01
0.719472353674D-05 0.000000000000D+00 0.000000000000D+00 0.468608300380D-04 0.000000000000D+00  6 -2 1 25 -24 3 -3 4 0.26464472D-01 0.14977092D-01 0.16181102D+05 0.16181102D+05 0.16181102D+05 0.12440874D+01  1  2 12  8  6  5       21 0.689974425291D-02 0.100000000000D+01
0.719472353674D-05 0.000000000000D+00 0.000000000000D+00 0.468608300380D-04 0.000000000000D+00  6 -2 1 25 -24 4 -4 4 0.26464472D-01 0.14977092D-01 0.16181102D+05 0.16181102D+05 0.16181102D+05 0.12440874D+01  1  2 12  8  6  5       21 0.689974425291D-02 0.100000000000D+01
  </mgrwgt>
  </event>
  <event>
  6     66 0.49582427E-03 0.56952218E+02 0.75467711E-02 0.11086604E+00
       21 -1    0    0  503  501 0.00000000E+00 0.00000000E+00 0.72899905E+02 0.72903763E+02 0.75000000E+00 0.0000E+00 0.9000E+01
        1 -1    0    0  502    0 0.00000000E+00 0.00000000E+00 -.28957187E+04 0.28957187E+04 0.32000000E+00 0.0000E+00 0.9000E+01
       25  1    1    2    0    0 0.43306338E+02 0.81127083E+02 -.20514195E+04 0.20572808E+04 0.12500000E+03 0.0000E+00 0.9000E+01
      -24  1    1    2    0    0 -.96088847E+02 -.13938684E+03 -.59344831E+03 0.62234225E+03 0.80419002E+02 0.0000E+00 0.9000E+01
        2  1    1    2  503    0 -.42458941E+02 0.64170010E+02 -.17762088E+03 0.19357126E+03 0.32000000E+00 0.0000E+00 0.9000E+01
       21  1    1    2  502  501 0.95241450E+02 -.59102497E+01 -.33003086E+00 0.95428173E+02 0.75000000E+00 0.0000E+00 0.9000E+01
#aMCatNLO 2  0  0  1  2 0.76945123D+02 0.00000000D+00  -5  6  0 0.00000000D+00 0.00000000D+00 0.00000000D+00 0.00000000D+00 0.00000000D+00
  <mgrwgt>
 0.1626715977D-01    1    2    0
 0.417707052405828D+03 0.000000000000000D+00 0.000000000000000D+00 0.417707052405828D+03
 0.417707052405828D+03 0.000000000000000D+00 0.000000000000000D+00 -.417707052405828D+03
 0.342364660397684D+03 0.260810924109887D+02 0.107160167815397D+03 -.299040190846727D+03
 0.182399106049269D+03 -.105467082917764D+03 -.125213203294732D+03 -.752379353643803D+00
 0.000000000000000D+00 -.000000000000000D+00 0.000000000000000D+00 0.000000000000000D+00
 0.310650338364703D+03 0.793859905067749D+02 0.180530354793349D+02 0.299792570200371D+03
 0.471000440896683D+03 0.000000000000000D+00 0.000000000000000D+00 0.471000440896683D+03
 0.448201434301811D+03 0.000000000000000D+00 0.000000000000000D+00 -.448201434301811D+03
 0.336908094560008D+03 0.433062587344489D+02 0.811270386050996D+02 -.299040190846727D+03
 0.187428797452609D+03 -.960888955808179D+02 -.139386858173673D+03 -.752379353643803D+00
 0.802517703306578D+02 -.424589412533918D+02 0.641700104965916D+02 0.227990065948715D+02
 0.314613212855218D+03 0.952415780997608D+02 -.591019092801815D+01 0.299792570200371D+03
0.133137251826D-03 0.000000000000D+00 0.000000000000D+00 0.372660731183D-05 0.127071867386D-08  6 21 1 25 -24 2 21 4 0.11215660D-01 0.44549516D+00 0.66301369D+05 0.66301369D+05 0.66301369D+05 0.11803320D+01  1  2  1  4  5  1       -2 0.162671597667D-01 0.100000000000D+01
  </mgrwgt>
  </event>
  <event>
  5     66 0.49582427E-03 0.23329299E+02 0.75467711E-02 0.11183336E+00
       -2 -1    0    0    0  501 0.00000000E+00 0.00000000E+00 0.10655049E+03 0.10655097E+03 0.32000000E+00 0.0000E+00 0.9000E+01
        1 -1    0    0  502    0 0.00000000E+00 0.00000000E+00 -.39454495E+03 0.39454508E+03 0.32000000E+00 0.0000E+00 0.9000E+01
       25  1    1    2    0    0 0.54001119E+02 0.15315809E+03 -.80159587E+02 0.22005472E+03 0.12500000E+03 0.0000E+00 0.9000E+01
      -24  1    1    2    0    0 -.58755312E+02 -.13032990E+03 -.19346259E+03 0.25363963E+03 0.80419002E+02 0.0000E+00 0.9000E+01
       21  1    1    2  502  501 0.47541928E+01 -.22828188E+02 -.14372278E+02 0.27401704E+02 0.75000000E+00 0.0000E+00 0.9000E+01
#aMCatNLO 1  0  0  1  5 0.84252477D+02 0.00000000D+00  -5  6  0 0.00000000D+00 0.00000000D+00 0.00000000D+00 0.00000000D+00 0.00000000D+00
  <mgrwgt>
 0.3366206910D+00    7    4    0
 0.205034416281644D+03 0.000000000000000D+00 0.000000000000000D+00 0.205034416281644D+03
 0.205034416281644D+03 0.000000000000000D+00 0.000000000000000D+00 -.205034416281644D+03
 0.212609803068957D+03 0.539998511655692D+02 0.153164178374291D+03 0.565922158785591D+02
 0.174069131831108D+03 -.587563502707667D+02 -.130324916427518D+03 -.582748158562898D+02
 0.233898976632241D+02 0.475649910519748D+01 -.228392619467726D+02 0.168259997773068D+01
 0.000000000000000D+00 -.000000000000000D+00 -.000000000000000D+00 0.000000000000000D+00
 0.262562840361646D+03 0.000000000000000D+00 0.000000000000000D+00 0.262562840361646D+03
 0.242646286471810D+03 0.000000000000000D+00 0.000000000000000D+00 -.242646286471810D+03
 0.250211590688842D+03 0.744823023289050D+02 0.195526335455817D+03 0.565922158785591D+02
 0.148343761132386D+03 -.444877654049373D+02 -.100814384284796D+03 -.582748158562898D+02
 0.200792468924226D+02 0.668025337084180D+01 -.188605203529266D+02 0.168259997773068D+01
 0.865745281198065D+02 -.366747902948095D+02 -.758514308180945D+02 0.199165538898359D+02
 0.205034416281644D+03 0.000000000000000D+00 0.000000000000000D+00 0.205034416281644D+03
 0.205034416281644D+03 0.000000000000000D+00 0.000000000000000D+00 -.205034416281644D+03
 0.212609803068957D+03 0.539998511655692D+02 0.153164178374291D+03 0.565922158785591D+02
 0.174069131831108D+03 -.587563502707667D+02 -.130324916427518D+03 -.582748158562898D+02
 0.000000000000000D+00 -.000000000000000D+00 -.000000000000000D+00 0.000000000000000D+00
 0.233898976632241D+02 0.475649910519748D+01 -.228392619467726D+02 0.168259997773068D+01
 0.262562840361646D+03 0.000000000000000D+00 0.000000000000000D+00 0.262562840361646D+03
 0.242646286471810D+03 0.000000000000000D+00 0.000000000000000D+00 -.242646286471810D+03
 0.250211590688842D+03 0.744823023289050D+02 0.195526335455817D+03 0.565922158785591D+02
 0.148343761132386D+03 -.444877654049373D+02 -.100814384284796D+03 -.582748158562898D+02
 0.865745281198065D+02 -.366747902948095D+02 -.758514308180945D+02 0.199165538898359D+02
 0.200792468924226D+02 0.668025337084180D+01 -.188605203529266D+02 0.168259997773068D+01
0.633920002929D-03 0.000000000000D+00 0.000000000000D+00 0.284939823705D-04 0.000000000000D+00  6 -2 1 25 -24 21 21 2 0.16392430D-01 0.60699270D-01 0.38473575D+05 0.38473575D+05 0.38473575D+05 0.12037200D+01  1  2  2  1  6  1       -2 0.145650231736D+00 0.100000000000D+01
0.209348939712D-03 0.334528776205D-04 -.243441972622D-05 0.284939823705D-04 0.000000000000D+00  6 -2 1 25 -24 21 21 4 0.16392430D-01 0.60699270D-01 0.38473575D+05 0.38473575D+05 0.38473575D+05 0.12037200D+01  1  2  3  1  6  1       -2 0.696944873820D-01 0.100000000000D+01
0.725140871138D-05 0.000000000000D+00 0.000000000000D+00 0.284939823705D-04 0.000000000000D+00  6 -2 1 25 -24 21 21 4 0.16392430D-01 0.60699270D-01 0.38473575D+05 0.38473575D+05 0.38473575D+05 0.12037200D+01  1  2 15  1  6  1       -2 0.241407104155D-02 0.100000000000D+01
-.209376709597D-04 0.000000000000D+00 0.000000000000D+00 0.284939823705D-04 0.000000000000D+00  6 -2 1 25 -24 21 21 4 0.16392430D-01 0.60699270D-01 0.38473575D+05 0.38473575D+05 0.38473575D+05 0.12037200D+01  1  2  4  1  6  1       -2 -.697037322719D-02 0.100000000000D+01
-.900486263492D-03 0.000000000000D+00 -.417936950044D-03 0.284939823705D-04 0.000000000000D+00  6 -2 1 25 -24 21 21 4 0.24665505D-01 0.60699270D-01 0.38473575D+05 0.38473575D+05 0.38473575D+05 0.12037200D+01  1  2  5  1  6  1       -2 -.149175608626D+00 0.100000000000D+01
0.101772374938D-02 0.000000000000D+00 0.385323547256D-03 0.284939823705D-04 0.000000000000D+00  6 -2 1 25 -24 21 21 4 0.16392430D-01 0.60699270D-01 0.38473575D+05 0.38473575D+05 0.38473575D+05 0.12037200D+01  1  2  6  1  6  1       -2 0.338811054438D+00 0.100000000000D+01
-.288588009517D-04 0.000000000000D+00 -.202069471357D-04 0.284939823705D-04 0.000000000000D+00  6 21 1 25 -24 2 21 4 0.24665505D-01 0.60699270D-01 0.38473575D+05 0.38473575D+05 0.38473575D+05 0.12037200D+01  3  4  5  4  5  1       -2 -.638031717171D-01 0.100000000000D+01
  </mgrwgt>
  </event>
  <event>
  6     66 0.49582427E-03 0.37275754E+02 0.75467711E-02 0.11948905E+00
       21 -1    0    0  503  501 0.00000000E+00 0.00000000E+00 0.11369694E+04 0.11369696E+04 0.75000000E+00 0.0000E+00 0.9000E+01
        3 -1    0    0  502    0 0.00000000E+00 0.00000000E+00 -.67153806E+02 0.67155667E+02 0.50000000E+00 0.0000E+00 0.9000E+01
       25  1    1    2    0    0 0.70195577E+02 -.48857409E+02 0.86850983E+02 0.17459255E+03 0.12500000E+03 0.0000E+00 0.9000E+01
      -24  1    1    2    0    0 -.53791445E+01 0.28844206E+02 0.81803644E+02 0.11840598E+03 0.80419002E+02 0.0000E+00 0.9000E+01
        4  1    1    2  503    0 -.48820384E+02 0.31026790E+01 0.87391075E+03 0.87528022E+03 0.15500000E+01 0.0000E+00 0.9000E+01
       21  1    1    2  502  501 -.15996048E+02 0.16910524E+02 0.27250199E+02 0.35846551E+02 0.75000000E+00 0.0000E+00 0.9000E+01
#aMCatNLO 2  0  0  1  2 0.48918877D+02 0.00000000D+00  -5  6  0 0.00000000D+00 0.00000000D+00 0.00000000D+00 0.00000000D+00 0.00000000D+00
  <mgrwgt>
 0.3450560847D-01    1    2    0
 0.129776084830376D+03 0.000000000000000D+00 0.000000000000000D+00 0.129776084830376D+03
 0.129776084830376D+03 0.000000000000000D+00 0.000000000000000D+00 -.129776084830376D+03
 0.141865411745090D+03 0.427145608795837D+02 -.471140143692492D+02 -.213665857937651D+02
 0.896282894933031D+02 -.218194808124370D+02 0.298870761303737D+02 0.140245235419161D+02
 0.000000000000000D+00 -.000000000000000D+00 0.000000000000000D+00 0.000000000000000D+00
 0.280584684223592D+02 -.208950800671467D+02 0.172269382388755D+02 0.734206225184896D+01
 0.572264568101673D+03 0.000000000000000D+00 0.000000000000000D+00 0.572264568101673D+03
 0.133420019186703D+03 0.000000000000000D+00 0.000000000000000D+00 -.133420019186703D+03
 0.152960713225915D+03 0.702002150349458D+02 -.488608085396232D+02 -.213665857937651D+02
 0.867449111752496D+02 -.537679685311400D+01 0.288420951987540D+02 0.140245235419161D+02
 0.441562673536522D+03 -.488203843815424D+02 0.310267903216190D+01 0.438844548914969D+03
 0.244162893506895D+02 -.160030338002894D+02 0.169160343087073D+02 0.734206225184896D+01
0.222876951664D-03 0.000000000000D+00 0.000000000000D+00 0.323254293093D-04 0.611558681031D-07  6 21 3 25 -24 4 21 4 0.17491676D+00 0.10331413D-01 0.23911962D+05 0.23911962D+05 0.23911962D+05 0.12253749D+01  1  2  1  4  5  1       -4 0.345056084663D-01 0.100000000000D+01
  </mgrwgt>
  </event>
  <event>
  5     66 0.49582427E-03 0.22448787E+02 0.75467711E-02 0.11763735E+00
       -2 -1    0    0    0  501 0.00000000E+00 0.00000000E+00 0.24190560E+02 0.24192676E+02 0.32000000E+00 0.0000E+00 0.9000E+01
        1 -1    0    0  502    0 0.00000000E+00 0.00000000E+00 -.10824521E+04 0.10824521E+04 0.32000000E+00 0.0000E+00 0.9000E+01
       25  1    1    2    0    0 -.45514505E+02 -.23809567E+02 -.26909086E+03 0.30112017E+03 0.12500000E+03 0.0000E+00 0.9000E+01
      -24  1    1    2    0    0 0.67543622E+02 0.19514452E+02 -.76542326E+03 0.77284082E+03 0.80419002E+02 0.0000E+00 0.9000E+01
       21  1    1    2  502  501 -.22029117E+02 0.42951144E+01 -.23747403E+02 0.32683814E+02 0.75000000E+00 0.0000E+00 0.9000E+01
#aMCatNLO 1  0  0  2  1 0.69734036D+02 0.00000000D+00  -5  6  0 0.00000000D+00 0.00000000D+00 0.00000000D+00 0.00000000D+00 0.00000000D+00
  <mgrwgt>
 0.1831495098D+00    4    2    0
 0.161821873737253D+03 0.000000000000000D+00 0.000000000000000D+00 0.161821873737253D+03
 0.161821873737253D+03 0.000000000000000D+00 0.000000000000000D+00 -.161821873737253D+03
 0.149744744018331D+03 -.455120400047586D+02 -.238100472937049D+02 0.644998001825752D+02
 0.139793206131889D+03 0.675459236738411D+02 0.195140034796120D+02 -.901758082276368D+02
 0.341057973242870D+02 -.220338836690825D+02 0.429604381409289D+01 0.256760080450617D+02
 0.000000000000000D+00 -.000000000000000D+00 -.000000000000000D+00 0.000000000000000D+00
 0.284519395808404D+03 0.000000000000000D+00 0.000000000000000D+00 0.284519395808404D+03
 0.175753009560142D+03 0.000000000000000D+00 0.000000000000000D+00 -.175753009560142D+03
 0.143068443816993D+03 -.143875531045618D+02 -.218255288203403D+02 0.644998001825752D+02
 0.157793229041366D+03 0.991777814180191D+02 0.215308722633916D+02 -.901758082276368D+02
 0.302094842334426D+02 -.151975107819030D+02 0.473193560337508D+01 0.256760080450617D+02
 0.129201248276744D+03 -.695927175315543D+02 -.443727904642644D+01 0.108766386248263D+03
0.254617376437D-03 0.000000000000D+00 0.000000000000D+00 0.298716198740D-04 0.000000000000D+00  6 -2 1 25 -24 21 21 2 0.37217910D-02 0.16653126D+00 0.17478189D+05 0.17478189D+05 0.17478189D+05 0.12403226D+01  1  2  2  2  6  2        1 0.143832257788D+00 0.100000000000D+01
0.354643132582D-04 0.134365281023D-04 -.977797767813D-06 0.298716198740D-04 0.000000000000D+00  6 -2 1 25 -24 21 21 4 0.37217910D-02 0.16653126D+00 0.17478189D+05 0.17478189D+05 0.17478189D+05 0.12403226D+01  1  2  3  2  6  2        1 0.308197511312D-01 0.100000000000D+01
0.115242492582D-04 0.000000000000D+00 0.000000000000D+00 0.298716198740D-04 0.000000000000D+00  6 -2 1 25 -24 21 21 4 0.37217910D-02 0.16653126D+00 0.17478189D+05 0.17478189D+05 0.17478189D+05 0.12403226D+01  1  2 15  2  6  2        1 0.100149829922D-01 0.100000000000D+01
-.174616794224D-05 0.000000000000D+00 0.000000000000D+00 0.298716198740D-04 0.000000000000D+00  6 -2 1 25 -24 21 21 4 0.37217910D-02 0.16653126D+00 0.17478189D+05 0.17478189D+05 0.17478189D+05 0.12403226D+01  1  2  4  2  6  2        1 -.151748212411D-02 0.100000000000D+01
  </mgrwgt>
  </event>
  <event>
  5     66 0.49582427E-03 0.15408153E+03 0.75467711E-02 0.10934110E+00
       -4 -1    0    0    0  501 0.00000000E+00 0.00000000E+00 0.18417571E+03 0.18418223E+03 0.15500000E+01 0.0000E+00 0.9000E+01
        3 -1    0    0  502    0 -.00000000E+00 -.00000000E+00 -.60598052E+03 0.60598073E+03 0.50000000E+00 0.0000E+00 0.9000E+01
       25  1    1    2    0    0 0.25551981E+03 -.43462084E+02 -.28148085E+03 0.40253670E+03 0.12500000E+03 0.0000E+00 0.9000E+01
      -24  1    1    2    0    0 -.10231718E+03 0.27038824E+02 0.50652646E+02 0.14224208E+03 0.80419002E+02 0.0000E+00 0.9000E+01
       21  1    1    2  502  501 -.15320264E+03 0.16423260E+02 -.19097660E+03 0.24538418E+03 0.75000000E+00 0.0000E+00 0.9000E+01
#aMCatNLO 1  0  0  5  2 0.25924836D+02 0.00000000D+00  -5  6  0 0.00000000D+00 0.00000000D+00 0.00000000D+00 0.00000000D+00 0.00000000D+00
  <mgrwgt>
 0.2473266907D-02   20    2    0
 0.334080158683308D+03 0.000000000000000D+00 0.000000000000000D+00 0.334080158683308D+03
 0.334080158683308D+03 -.000000000000000D+00 -.000000000000000D+00 -.334080158683308D+03
 0.298341499282613D+03 0.255520479684669D+03 -.434621559454258D+02 -.787589719110749D+02
 0.200191323077761D+03 -.102316726729703D+03 0.270387759773730D+02 0.149698169348255D+03
 0.169627495006242D+03 -.153203752954966D+03 0.164233799680529D+02 -.709391974371799D+02
 0.000000000000000D+00 0.000000000000000D+00 0.000000000000000D+00 -.000000000000000D+00
 0.334080158683308D+03 0.000000000000000D+00 0.000000000000000D+00 0.334080158683308D+03
 0.334080158683308D+03 -.000000000000000D+00 -.000000000000000D+00 -.334080158683308D+03
 0.295161463714436D+03 0.251252267915312D+03 -.430046053807678D+02 -.807353172131326D+02
 0.200733086114237D+03 -.105199998404194D+03 0.273478615274849D+02 0.148363104282049D+03
 0.467323708459790D+02 -.432775251945538D+02 0.170658216260653D+02 0.444162471942353D+01
 0.125533396691964D+03 -.102774744316563D+03 -.140907777278240D+01 -.720694117883401D+02
0.667825376035D-03 0.000000000000D+00 0.000000000000D+00 0.573725423966D-06 0.000000000000D+00  6 -4 3 25 -24 21 21 2 0.28335243D-01 0.93228290D-01 0.82586373D+05 0.82586373D+05 0.82586373D+05 0.11712827D+01  1  2  2  3  6  5       21 0.247336655805D-02 0.100000000000D+01
-.457696661501D-04 0.352421133158D-04 -.256462528644D-05 0.573725423966D-06 0.000000000000D+00  6 -4 3 25 -24 21 21 4 0.28335243D-01 0.93228290D-01 0.82586373D+05 0.82586373D+05 0.82586373D+05 0.11712827D+01  1  2  3  3  6  5       21 -.232555583870D-03 0.100000000000D+01
0.348891151598D-04 0.000000000000D+00 0.000000000000D+00 0.573725423966D-06 0.000000000000D+00  6 -4 3 25 -24 21 21 4 0.28335243D-01 0.93228290D-01 0.82586373D+05 0.82586373D+05 0.82586373D+05 0.11712827D+01  1  2 15  3  6  5       21 0.177271525645D-03 0.100000000000D+01
0.162076456677D-03 0.000000000000D+00 0.000000000000D+00 0.574610993462D-06 0.000000000000D+00  6 -4 3 25 -24 21 21 4 0.28335243D-01 0.93228290D-01 0.80775850D+05 0.80775850D+05 0.80775850D+05 0.11721863D+01  1  2 12  3  6  5       21 0.825441615409D-03 0.100000000000D+01
0.152239987728D-03 0.000000000000D+00 0.000000000000D+00 0.574610993462D-06 0.000000000000D+00  6 -4 3 25 -24 21 21 4 0.28335243D-01 0.93228290D-01 0.80775850D+05 0.80775850D+05 0.80775850D+05 0.11721863D+01  1  2 12  3  6  5       21 0.775345315272D-03 0.100000000000D+01
-.110619334215D-02 0.000000000000D+00 0.000000000000D+00 0.573725423966D-06 0.000000000000D+00  6 -4 3 25 -24 21 21 4 0.28335243D-01 0.93228290D-01 0.82586373D+05 0.82586373D+05 0.82586373D+05 0.11712827D+01  1  2  4  3  6  5       21 -.562056620021D-02 0.100000000000D+01
-.276767546240D-03 0.000000000000D+00 0.000000000000D+00 0.573725423966D-06 0.000000000000D+00  6 -4 3 25 -24 21 21 4 0.28335243D-01 0.93228290D-01 0.82586373D+05 0.82586373D+05 0.82586373D+05 0.11712827D+01  1  2  5  3  6  5       21 -.140625535920D-02 0.100000000000D+01
0.102481453213D-02 0.000000000000D+00 -.000000000000D+00 0.573725423966D-06 0.000000000000D+00  6 -4 3 25 -24 21 21 4 0.28335243D-01 0.93228290D-01 0.82586373D+05 0.82586373D+05 0.82586373D+05 0.11712827D+01  1  2  6  3  6  5       21 0.520708062622D-02 0.100000000000D+01
0.210758414756D-04 0.000000000000D+00 0.000000000000D+00 0.574610993462D-06 0.000000000000D+00  6 -4 3 25 -24 3 -3 4 0.28335243D-01 0.93228290D-01 0.80775850D+05 0.80775850D+05 0.80775850D+05 0.11721863D+01  1  2 12  6  6  5       21 0.107337468936D-03 0.100000000000D+01
0.201203136223D-04 0.000000000000D+00 0.000000000000D+00 0.574610993462D-06 0.000000000000D+00  6 -4 3 25 -24 3 -3 4 0.28335243D-01 0.93228290D-01 0.80775850D+05 0.80775850D+05 0.80775850D+05 0.11721863D+01  1  2 12  6  6  5       21 0.102471046810D-03 0.100000000000D+01
-.278043628782D-04 0.000000000000D+00 0.000000000000D+00 0.573725423966D-06 0.000000000000D+00  6 -4 3 25 -24 3 -3 4 0.28335243D-01 0.93228290D-01 0.82586373D+05 0.82586373D+05 0.82586373D+05 0.11712827D+01  1  2  5  6  6  5       21 -.141273913209D-03 0.100000000000D+01
0.210758414756D-04 0.000000000000D+00 0.000000000000D+00 0.574610993462D-06 0.000000000000D+00  6 -4 3 25 -24 4 -4 4 0.28335243D-01 0.93228290D-01 0.80775850D+05 0.80775850D+05 0.80775850D+05 0.11721863D+01  1  2 12  7  6  5       21 0.107337468936D-03 0.100000000000D+01
0.201203136223D-04 0.000000000000D+00 0.000000000000D+00 0.574610993462D-06 0.000000000000D+00  6 -4 3 25 -24 4 -4 4 0.28335243D-01 0.93228290D-01 0.80775850D+05 0.80775850D+05 0.80775850D+05 0.11721863D+01  1  2 12  7  6  5       21 0.102471046810D-03 0.100000000000D+01
-.278043628782D-04 0.000000000000D+00 0.000000000000D+00 0.573725423966D-06 0.000000000000D+00  6 -4 3 25 -24 4 -4 4 0.28335243D-01 0.93228290D-01 0.82586373D+05 0.82586373D+05 0.82586373D+05 0.11712827D+01  1  2  5  7  6  5       21 -.141273913209D-03 0.100000000000D+01
0.210758414756D-04 0.000000000000D+00 0.000000000000D+00 0.574610993462D-06 0.000000000000D+00  6 -4 3 25 -24 1 -1 4 0.28335243D-01 0.93228290D-01 0.80775850D+05 0.80775850D+05 0.80775850D+05 0.11721863D+01  1  2 12  8  6  5       21 0.107337468936D-03 0.100000000000D+01
0.210758414756D-04 0.000000000000D+00 0.000000000000D+00 0.574610993462D-06 0.000000000000D+00  6 -4 3 25 -24 2 -2 4 0.28335243D-01 0.93228290D-01 0.80775850D+05 0.80775850D+05 0.80775850D+05 0.11721863D+01  1  2 12  8  6  5       21 0.107337468936D-03 0.100000000000D+01
0.201203136223D-04 0.000000000000D+00 0.000000000000D+00 0.574610993462D-06 0.000000000000D+00  6 -4 3 25 -24 1 -1 4 0.28335243D-01 0.93228290D-01 0.80775850D+05 0.80775850D+05 0.80775850D+05 0.11721863D+01  1  2 12  8  6  5       21 0.102471046810D-03 0.100000000000D+01
0.201203136223D-04 0.000000000000D+00 0.000000000000D+00 0.574610993462D-06 0.000000000000D+00  6 -4 3 25 -24 2 -2 4 0.28335243D-01 0.93228290D-01 0.80775850D+05 0.80775850D+05 0.80775850D+05 0.11721863D+01  1  2 12  8  6  5       21 0.102471046810D-03 0.100000000000D+01
-.278043628782D-04 0.000000000000D+00 0.000000000000D+00 0.573725423966D-06 0.000000000000D+00  6 -4 3 25 -24 1 -1 4 0.28335243D-01 0.93228290D-01 0.82586373D+05 0.82586373D+05 0.82586373D+05 0.11712827D+01  1  2  5  8  6  5       21 -.141273913209D-03 0.100000000000D+01
-.278043628782D-04 0.000000000000D+00 0.000000000000D+00 0.573725423966D-06 0.000000000000D+00  6 -4 3 25 -24 2 -2 4 0.28335243D-01 0.93228290D-01 0.82586373D+05 0.82586373D+05 0.82586373D+05 0.11712827D+01  1  2  5  8  6  5       21 -.141273913209D-03 0.100000000000D+01
  </mgrwgt>
  </event>
  <event>
  5     66 0.49582427E-03 0.59653715E+02 0.75467711E-02 0.11003974E+00
       -2 -1    0    0    0  501 0.00000000E+00 0.00000000E+00 0.21821200E+03 0.21821223E+03 0.32000000E+00 0.0000E+00 0.9000E+01
        1 -1    0    0  502    0 0.00000000E+00 0.00000000E+00 -.10289252E+04 0.10289252E+04 0.32000000E+00 0.0000E+00 0.9000E+01
       25  1    1    2    0    0 0.60759710E+02 -.25013945E+02 -.56838350E+03 0.58566393E+03 0.12500000E+03 0.0000E+00 0.9000E+01
      -24  1    1    2    0    0 -.81037270E+02 0.81115464E+02 -.43646218E+03 0.45838107E+03 0.80419002E+02 0.0000E+00 0.9000E+01
       21  1    1    2  502  501 0.20277560E+02 -.56101519E+02 0.19413249E+03 0.20309246E+03 0.75000000E+00 0.0000E+00 0.9000E+01
#aMCatNLO 1  0  0  1  5 0.95872030D+02 0.00000000D+00  -5  6  0 0.00000000D+00 0.00000000D+00 0.00000000D+00 0.00000000D+00 0.00000000D+00
  <mgrwgt>
 0.5884222505D-01    7    4    0
 0.473839631082232D+03 0.000000000000000D+00 0.000000000000000D+00 0.473839631082232D+03
 0.473839631082232D+03 0.000000000000000D+00 0.000000000000000D+00 -.473839631082232D+03
 0.284492442631259D+03 0.607597007395892D+02 -.250139194765168D+02 -.246968646821328D+03
 0.229844315365416D+03 -.810372769955154D+02 0.811154842083528D+02 -.182248268332577D+03
 0.433342504167788D+03 0.202775762559262D+02 -.561015647318360D+02 0.429216915153905D+03
 0.000000000000000D+00 -.000000000000000D+00 0.000000000000000D+00 0.000000000000000D+00
 0.552852523761891D+03 0.000000000000000D+00 0.000000000000000D+00 0.552852523761891D+03
 0.546277860181922D+03 0.000000000000000D+00 0.000000000000000D+00 -.546277860181922D+03
 0.294653100971952D+03 0.779599413167509D+02 -.642198174204669D+02 -.246968646821328D+03
 0.216487523523546D+03 -.677815158298957D+02 0.509005568590971D+02 -.182248268332577D+03
 0.446953332968756D+03 0.464217818792993D+02 -.115694164782826D+03 0.429216915153905D+03
 0.141036426479558D+03 -.566002073661545D+02 0.129013425344196D+03 0.657466357996878D+01
 0.473839631082232D+03 0.000000000000000D+00 0.000000000000000D+00 0.473839631082232D+03
 0.473839631082232D+03 0.000000000000000D+00 0.000000000000000D+00 -.473839631082232D+03
 0.284492442631259D+03 0.607597007395892D+02 -.250139194765168D+02 -.246968646821328D+03
 0.229844315365416D+03 -.810372769955154D+02 0.811154842083528D+02 -.182248268332577D+03
 0.000000000000000D+00 -.000000000000000D+00 0.000000000000000D+00 0.000000000000000D+00
 0.433342504167788D+03 0.202775762559262D+02 -.561015647318360D+02 0.429216915153905D+03
 0.552852523761891D+03 0.000000000000000D+00 0.000000000000000D+00 0.552852523761891D+03
 0.546277860181922D+03 0.000000000000000D+00 0.000000000000000D+00 -.546277860181922D+03
 0.294653100971952D+03 0.779599413167509D+02 -.642198174204669D+02 -.246968646821328D+03
 0.216487523523546D+03 -.677815158298957D+02 0.509005568590971D+02 -.182248268332577D+03
 0.141036426479558D+03 -.566002073661545D+02 0.129013425344196D+03 0.657466357996878D+01
 0.446953332968756D+03 0.464217818792993D+02 -.115694164782826D+03 0.429216915153905D+03
0.273699936782D-02 0.000000000000D+00 0.000000000000D+00 0.326107784056D-04 0.000000000000D+00  6 -2 1 25 -24 21 21 2 0.33571098D-01 0.15829620D+00 0.29056837D+05 0.29056837D+05 0.29056837D+05 0.12163571D+01  1  2  2  1  6  1       -2 0.465875184497D-01 0.100000000000D+01
0.393378259127D-03 0.144435424779D-03 -.105107982409D-04 0.326107784056D-04 0.000000000000D+00  6 -2 1 25 -24 21 21 4 0.33571098D-01 0.15829620D+00 0.29056837D+05 0.29056837D+05 0.29056837D+05 0.12163571D+01  1  2  3  1  6  1       -2 0.990666398237D-02 0.100000000000D+01
0.161635719494D-03 0.000000000000D+00 0.000000000000D+00 0.326107784056D-04 0.000000000000D+00  6 -2 1 25 -24 21 21 4 0.33571098D-01 0.15829620D+00 0.29056837D+05 0.29056837D+05 0.29056837D+05 0.12163571D+01  1  2 15  1  6  1       -2 0.407056242540D-02 0.100000000000D+01
-.131827427656D-02 0.000000000000D+00 0.000000000000D+00 0.326107784056D-04 0.000000000000D+00  6 -2 1 25 -24 21 21 4 0.33571098D-01 0.15829620D+00 0.29056837D+05 0.29056837D+05 0.29056837D+05 0.12163571D+01  1  2  4  1  6  1       -2 -.331988359587D-01 0.100000000000D+01
-.160504665166D-02 0.000000000000D+00 -.225312386197D-02 0.326107784056D-04 0.000000000000D+00  6 -2 1 25 -24 21 21 4 0.44991975D-01 0.15829620D+00 0.29056837D+05 0.29056837D+05 0.29056837D+05 0.12163571D+01  1  2  5  1  6  1       -2 -.232313427538D-01 0.100000000000D+01
0.226045965776D-02 0.000000000000D+00 0.215986402277D-02 0.326107784056D-04 0.000000000000D+00  6 -2 1 25 -24 21 21 4 0.33571098D-01 0.15829620D+00 0.29056837D+05 0.29056837D+05 0.29056837D+05 0.12163571D+01  1  2  6  1  6  1       -2 0.569264156205D-01 0.100000000000D+01
-.123183053120D-04 0.000000000000D+00 -.855822938647D-04 0.326107784056D-04 0.000000000000D+00  6 21 1 25 -24 2 21 4 0.44991975D-01 0.15829620D+00 0.29056837D+05 0.29056837D+05 0.29056837D+05 0.12163571D+01  3  4  5  4  5  1       -2 -.221875671556D-02 0.100000000000D+01
  </mgrwgt>
  </event>
  <event>
  5     66 -.49582427E-03 0.22615003E+02 0.75467711E-02 0.12009687E+00
       -2 -1    0    0    0  501 0.00000000E+00 0.00000000E+00 0.38220732E+02 0.38222072E+02 0.32000000E+00 0.0000E+00 0.9000E+01
        1 -1    0    0  502    0 -.00000000E+00 -.00000000E+00 -.11565522E+04 0.11565523E+04 0.32000000E+00 0.0000E+00 0.9000E+01
       25  1    1    2    0    0 -.86514396E+02 -.26793998E+02 -.79196078E+03 0.80686401E+03 0.12500000E+03 0.0000E+00 0.9000E+01
      -24  1    1    2    0    0 0.91905051E+02 0.48312497E+01 -.34013461E+03 0.36142586E+03 0.80419002E+02 0.0000E+00 0.9000E+01
       21  1    1    2  502  501 -.53906551E+01 0.21962748E+02 0.13763879E+02 0.26484492E+02 0.75000000E+00 0.0000E+00 0.9000E+01
#aMCatNLO 1  0  0  5  1 0.38157777D+01 0.00000000D+00  -5  6  0 0.00000000D+00 0.00000000D+00 0.00000000D+00 0.00000000D+00 0.00000000D+00
  <mgrwgt>
 -.7101459590D+00   20    2    0
 0.210250090960429D+03 0.000000000000000D+00 0.000000000000000D+00 0.210250090960429D+03
 0.210250090960429D+03 -.000000000000000D+00 -.000000000000000D+00 -.210250090960429D+03
 0.186316207154081D+03 -.865143424249841D+02 -.267942166982271D+02 -.104336319441428D+03
 0.122328397130124D+03 0.919050864381142D+02 0.483110606838476D+01 -.520925052320257D+01
 0.111855577636654D+03 -.539074401313015D+01 0.219631106298423D+02 0.109545569964630D+03
 0.000000000000000D+00 0.000000000000000D+00 0.000000000000000D+00 0.000000000000000D+00
 0.210250090960429D+03 0.000000000000000D+00 0.000000000000000D+00 0.210250090960429D+03
 0.210250090960429D+03 -.000000000000000D+00 -.000000000000000D+00 -.210250090960429D+03
 0.186239506173444D+03 -.865210144328727D+02 -.267670334287146D+02 -.104200737246244D+03
 0.122322052549645D+03 0.919007050538760D+02 0.484895681894926D+01 -.512021620207011D+01
 0.787162097912388D+02 -.633785446365362D+01 0.181955341439347D+02 0.763216602408043D+02
 0.332224134065318D+02 0.958163842650326D+00 0.372254246583065D+01 0.329992932075102D+02
0.343056867116D-04 0.000000000000D+00 0.000000000000D+00 0.466536644704D-04 0.000000000000D+00  6 -2 1 25 -24 21 21 2 0.58802191D-02 0.17793122D+00 0.22379344D+05 0.22379344D+05 0.22379344D+05 0.12284876D+01  1  2  2  3  6  5       21 0.852012613912D-02 0.100000000000D+01
0.687804289625D-05 0.181036082463D-05 -.131742869867D-06 0.466536644704D-04 0.000000000000D+00  6 -2 1 25 -24 21 21 4 0.58802191D-02 0.17793122D+00 0.22379344D+05 0.22379344D+05 0.22379344D+05 0.12284876D+01  1  2  3  3  6  5       21 0.257802039798D-02 0.100000000000D+01
0.162879089106D-05 0.000000000000D+00 0.000000000000D+00 0.466536644704D-04 0.000000000000D+00  6 -2 1 25 -24 21 21 4 0.58802191D-02 0.17793122D+00 0.22379344D+05 0.22379344D+05 0.22379344D+05 0.12284876D+01  1  2 15  3  6  5       21 0.610501592464D-03 0.100000000000D+01
0.787614889190D-04 0.000000000000D+00 0.000000000000D+00 0.466418678303D-04 0.000000000000D+00  6 -2 1 25 -24 21 21 4 0.58802191D-02 0.17793122D+00 0.22453164D+05 0.22453164D+05 0.22453164D+05 0.12283323D+01  1  2 12  3  6  5       21 0.295067390651D-01 0.100000000000D+01
0.885970827614D-04 0.000000000000D+00 0.000000000000D+00 0.466418678303D-04 0.000000000000D+00  6 -2 1 25 -24 21 21 4 0.58802191D-02 0.17793122D+00 0.22453164D+05 0.22453164D+05 0.22453164D+05 0.12283323D+01  1  2 12  3  6  5       21 0.331914878559D-01 0.100000000000D+01
-.262452974466D-02 0.000000000000D+00 0.000000000000D+00 0.466536644704D-04 0.000000000000D+00  6 -2 1 25 -24 21 21 4 0.58802191D-02 0.17793122D+00 0.22379344D+05 0.22379344D+05 0.22379344D+05 0.12284876D+01  1  2  4  3  6  5       21 -.983723323465D+00 0.100000000000D+01
-.231222022950D-02 0.000000000000D+00 0.000000000000D+00 0.466536644704D-04 0.000000000000D+00  6 -2 1 25 -24 21 21 4 0.58802191D-02 0.17793122D+00 0.22379344D+05 0.22379344D+05 0.22379344D+05 0.12284876D+01  1  2  5  3  6  5       21 -.866663817916D+00 0.100000000000D+01
0.295171181948D-02 0.000000000000D+00 -.000000000000D+00 0.466536644704D-04 0.000000000000D+00  6 -2 1 25 -24 21 21 4 0.58802191D-02 0.17793122D+00 0.22379344D+05 0.22379344D+05 0.22379344D+05 0.12284876D+01  1  2  6  3  6  5       21 0.110635734530D+01 0.100000000000D+01
0.999826451370D-06 0.000000000000D+00 0.000000000000D+00 0.466418678303D-04 0.000000000000D+00  6 -2 1 25 -24 1 -1 4 0.58802191D-02 0.17793122D+00 0.22453164D+05 0.22453164D+05 0.22453164D+05 0.12283323D+01  1  2 12  6  6  5       21 0.374569077043D-03 0.100000000000D+01
0.112698410521D-05 0.000000000000D+00 0.000000000000D+00 0.466418678303D-04 0.000000000000D+00  6 -2 1 25 -24 1 -1 4 0.58802191D-02 0.17793122D+00 0.22453164D+05 0.22453164D+05 0.22453164D+05 0.12283323D+01  1  2 12  6  6  5       21 0.422206669518D-03 0.100000000000D+01
-.291541743158D-04 0.000000000000D+00 0.000000000000D+00 0.466536644704D-04 0.000000000000D+00  6 -2 1 25 -24 1 -1 4 0.58802191D-02 0.17793122D+00 0.22379344D+05 0.22379344D+05 0.22379344D+05 0.12284876D+01  1  2  5  6  6  5       21 -.109275352315D-01 0.100000000000D+01
0.999826451370D-06 0.000000000000D+00 0.000000000000D+00 0.466418678303D-04 0.000000000000D+00  6 -2 1 25 -24 2 -2 4 0.58802191D-02 0.17793122D+00 0.22453164D+05 0.22453164D+05 0.22453164D+05 0.12283323D+01  1  2 12  7  6  5       21 0.374569077043D-03 0.100000000000D+01
0.112698410521D-05 0.000000000000D+00 0.000000000000D+00 0.466418678303D-04 0.000000000000D+00  6 -2 1 25 -24 2 -2 4 0.58802191D-02 0.17793122D+00 0.22453164D+05 0.22453164D+05 0.22453164D+05 0.12283323D+01  1  2 12  7  6  5       21 0.422206669518D-03 0.100000000000D+01
-.291541743158D-04 0.000000000000D+00 0.000000000000D+00 0.466536644704D-04 0.000000000000D+00  6 -2 1 25 -24 2 -2 4 0.58802191D-02 0.17793122D+00 0.22379344D+05 0.22379344D+05 0.22379344D+05 0.12284876D+01  1  2  5  7  6  5       21 -.109275352315D-01 0.100000000000D+01
0.999826451370D-06 0.000000000000D+00 0.000000000000D+00 0.466418678303D-04 0.000000000000D+00  6 -2 1 25 -24 3 -3 4 0.58802191D-02 0.17793122D+00 0.22453164D+05 0.22453164D+05 0.22453164D+05 0.12283323D+01  1  2 12  8  6  5       21 0.374569077043D-03 0.100000000000D+01
0.999826451370D-06 0.000000000000D+00 0.000000000000D+00 0.466418678303D-04 0.000000000000D+00  6 -2 1 25 -24 4 -4 4 0.58802191D-02 0.17793122D+00 0.22453164D+05 0.22453164D+05 0.22453164D+05 0.12283323D+01  1  2 12  8  6  5       21 0.374569077043D-03 0.100000000000D+01
0.112698410521D-05 0.000000000000D+00 0.000000000000D+00 0.466418678303D-04 0.000000000000D+00  6 -2 1 25 -24 3 -3 4 0.58802191D-02 0.17793122D+00 0.22453164D+05 0.22453164D+05 0.22453164D+05 0.12283323D+01  1  2 12  8  6  5       21 0.422206669518D-03 0.100000000000D+01
0.112698410521D-05 0.000000000000D+00 0.000000000000D+00 0.466418678303D-04 0.000000000000D+00  6 -2 1 25 -24 4 -4 4 0.58802191D-02 0.17793122D+00 0.22453164D+05 0.22453164D+05 0.22453164D+05 0.12283323D+01  1  2 12  8  6  5       21 0.422206669518D-03 0.100000000000D+01
-.291541743158D-04 0.000000000000D+00 0.000000000000D+00 0.466536644704D-04 0.000000000000D+00  6 -2 1 25 -24 3 -3 4 0.58802191D-02 0.17793122D+00 0.22379344D+05 0.22379344D+05 0.22379344D+05 0.12284876D+01  1  2  5  8  6  5       21 -.109275352315D-01 0.100000000000D+01
-.291541743158D-04 0.000000000000D+00 0.000000000000D+00 0.466536644704D-04 0.000000000000D+00  6 -2 1 25 -24 4 -4 4 0.58802191D-02 0.17793122D+00 0.22379344D+05 0.22379344D+05 0.22379344D+05 0.12284876D+01  1  2  5  8  6  5       21 -.109275352315D-01 0.100000000000D+01
  </mgrwgt>
  </event>
  <event>
  5     66 0.49582427E-03 0.25667971E+02 0.75467711E-02 0.12376735E+00
       -2 -1    0    0    0  501 0.00000000E+00 0.00000000E+00 0.42329298E+02 0.42330507E+02 0.32000000E+00 0.0000E+00 0.9000E+01
        1 -1    0    0  502    0 -.00000000E+00 -.00000000E+00 -.36995445E+03 0.36995459E+03 0.32000000E+00 0.0000E+00 0.9000E+01
       25  1    1    2    0    0 0.26699049E+02 -.44229867E+02 -.16586913E+03 0.21402497E+03 0.12500000E+03 0.0000E+00 0.9000E+01
      -24  1    1    2    0    0 -.58717776E+01 0.29242136E+02 -.14189285E+03 0.16580222E+03 0.80419002E+02 0.0000E+00 0.9000E+01
       21  1    1    2  502  501 -.20827271E+02 0.14987732E+02 -.19863177E+02 0.32457906E+02 0.75000000E+00 0.0000E+00 0.9000E+01
#aMCatNLO 1  0  0  5  1 0.10499526D+02 0.00000000D+00  -5  6  0 0.00000000D+00 0.00000000D+00 0.00000000D+00 0.00000000D+00 0.00000000D+00
  <mgrwgt>
 0.1652663616D+01   14    2    0
 0.125140681178227D+03 0.000000000000000D+00 0.000000000000000D+00 0.125140681178227D+03
 0.125140681178227D+03 -.000000000000000D+00 -.000000000000000D+00 -.125140681178227D+03
 0.135434921907828D+03 0.267032531616847D+02 -.442328925417075D+02 0.692860448835643D+01
 0.873815385735279D+02 -.586906500341965D+01 0.292401835524668D+02 -.166997925409299D+02
 0.274649018750988D+02 -.208341881582651D+02 0.149927089892407D+02 0.977118805257343D+01
 0.000000000000000D+00 0.000000000000000D+00 0.000000000000000D+00 -.000000000000000D+00
 0.125140681178227D+03 0.000000000000000D+00 0.000000000000000D+00 0.125140681178227D+03
 0.125140681178227D+03 -.000000000000000D+00 -.000000000000000D+00 -.125140681178227D+03
 0.132201992074192D+03 0.175654847134662D+02 -.376571670027761D+02 0.112141976302708D+02
 0.890417202715683D+02 -.118925797130344D+02 0.335748282454897D+02 -.138747774974836D+02
 0.120388705433703D+02 0.113075116243346D+02 0.331736836549961D+01 0.246366636400932D+01
 0.169987794673235D+02 -.169804166247664D+02 0.764970391786794D+00 0.196913503203485D+00
0.605619510442D-03 0.000000000000D+00 0.000000000000D+00 0.379361879240D-04 0.000000000000D+00  6 -2 1 25 -24 21 21 2 0.65123033D-02 0.56916174D-01 0.15214787D+05 0.15214787D+05 0.15214787D+05 0.12471192D+01  1  2  2  3  6  5       21 0.684713742761D+00 0.100000000000D+01
0.826592478810D-04 0.319594196015D-04 -.232573838338D-05 0.379361879240D-04 0.000000000000D+00  6 -2 1 25 -24 21 21 4 0.65123033D-02 0.56916174D-01 0.15214787D+05 0.15214787D+05 0.15214787D+05 0.12471192D+01  1  2  3  3  6  5       21 0.145350520797D+00 0.100000000000D+01
0.253094607915D-04 0.000000000000D+00 0.000000000000D+00 0.379361879240D-04 0.000000000000D+00  6 -2 1 25 -24 21 21 4 0.65123033D-02 0.56916174D-01 0.15214787D+05 0.15214787D+05 0.15214787D+05 0.12471192D+01  1  2 15  3  6  5       21 0.445049211242D-01 0.100000000000D+01
0.226838635154D-03 0.000000000000D+00 0.000000000000D+00 0.378933694265D-04 0.000000000000D+00  6 -2 1 25 -24 21 21 4 0.65123033D-02 0.56916174D-01 0.15433255D+05 0.15433255D+05 0.15433255D+05 0.12464152D+01  1  2 12  3  6  5       21 0.398177735367D+00 0.100000000000D+01
0.305613392702D-03 0.000000000000D+00 0.000000000000D+00 0.378933694265D-04 0.000000000000D+00  6 -2 1 25 -24 21 21 4 0.65123033D-02 0.56916174D-01 0.15433255D+05 0.15433255D+05 0.15433255D+05 0.12464152D+01  1  2 12  3  6  5       21 0.536453803477D+00 0.100000000000D+01
-.174520303871D-03 0.000000000000D+00 0.000000000000D+00 0.379361879240D-04 0.000000000000D+00  6 -2 1 25 -24 21 21 4 0.65123033D-02 0.56916174D-01 0.15214787D+05 0.15214787D+05 0.15214787D+05 0.12471192D+01  1  2  4  3  6  5       21 -.306881779202D+00 0.100000000000D+01
0.969211470385D-05 0.000000000000D+00 0.000000000000D+00 0.378933694265D-04 0.000000000000D+00  6 -2 1 25 -24 1 -1 4 0.65123033D-02 0.56916174D-01 0.15433255D+05 0.15433255D+05 0.15433255D+05 0.12464152D+01  1  2 12  6  6  5       21 0.170129055885D-01 0.100000000000D+01
0.117204211192D-04 0.000000000000D+00 0.000000000000D+00 0.378933694265D-04 0.000000000000D+00  6 -2 1 25 -24 1 -1 4 0.65123033D-02 0.56916174D-01 0.15433255D+05 0.15433255D+05 0.15433255D+05 0.12464152D+01  1  2 12  6  6  5       21 0.205732622911D-01 0.100000000000D+01
0.969211470385D-05 0.000000000000D+00 0.000000000000D+00 0.378933694265D-04 0.000000000000D+00  6 -2 1 25 -24 2 -2 4 0.65123033D-02 0.56916174D-01 0.15433255D+05 0.15433255D+05 0.15433255D+05 0.12464152D+01  1  2 12  7  6  5       21 0.170129055885D-01 0.100000000000D+01
0.117204211192D-04 0.000000000000D+00 0.000000000000D+00 0.378933694265D-04 0.000000000000D+00  6 -2 1 25 -24 2 -2 4 0.65123033D-02 0.56916174D-01 0.15433255D+05 0.15433255D+05 0.15433255D+05 0.12464152D+01  1  2 12  7  6  5       21 0.205732622911D-01 0.100000000000D+01
0.969211470385D-05 0.000000000000D+00 0.000000000000D+00 0.378933694265D-04 0.000000000000D+00  6 -2 1 25 -24 3 -3 4 0.65123033D-02 0.56916174D-01 0.15433255D+05 0.15433255D+05 0.15433255D+05 0.12464152D+01  1  2 12  8  6  5       21 0.170129055885D-01 0.100000000000D+01
0.969211470385D-05 0.000000000000D+00 0.000000000000D+00 0.378933694265D-04 0.000000000000D+00  6 -2 1 25 -24 4 -4 4 0.65123033D-02 0.56916174D-01 0.15433255D+05 0.15433255D+05 0.15433255D+05 0.12464152D+01  1  2 12  8  6  5       21 0.170129055885D-01 0.100000000000D+01
0.117204211192D-04 0.000000000000D+00 0.000000000000D+00 0.378933694265D-04 0.000000000000D+00  6 -2 1 25 -24 3 -3 4 0.65123033D-02 0.56916174D-01 0.15433255D+05 0.15433255D+05 0.15433255D+05 0.12464152D+01  1  2 12  8  6  5       21 0.205732622911D-01 0.100000000000D+01
0.117204211192D-04 0.000000000000D+00 0.000000000000D+00 0.378933694265D-04 0.000000000000D+00  6 -2 1 25 -24 4 -4 4 0.65123033D-02 0.56916174D-01 0.15433255D+05 0.15433255D+05 0.15433255D+05 0.12464152D+01  1  2 12  8  6  5       21 0.205732622911D-01 0.100000000000D+01
  </mgrwgt>
  </event>
  <event>
  6     66 0.49582427E-03 0.24540097E+02 0.75467711E-02 0.12044047E+00
       -2 -1    0    0    0  501 0.00000000E+00 0.00000000E+00 0.49122183E+02 0.49123225E+02 0.32000000E+00 0.0000E+00 0.9000E+01
        1 -1    0    0  502    0 -.00000000E+00 -.00000000E+00 -.52946053E+03 0.52946062E+03 0.32000000E+00 0.0000E+00 0.9000E+01
       25  1    1    2    0    0 0.31606509E+02 0.28139693E+02 -.28925281E+03 0.31793553E+03 0.12500000E+03 0.0000E+00 0.9000E+01
      -24  1    1    2    0    0 -.12050098E+02 -.15349173E+02 -.13529225E+03 0.15859386E+03 0.80419002E+02 0.0000E+00 0.9000E+01
        2  1    1    2  502    0 0.89319557E+00 -.42895237E+02 -.48825410E+02 0.64998633E+02 0.32000000E+00 0.0000E+00 0.9000E+01
       -2  1    1    2    0  501 -.20449606E+02 0.30104717E+02 -.69678654E+01 0.37055822E+02 0.32000000E+00 0.0000E+00 0.9000E+01
#aMCatNLO 2  0  0  5  1 0.40011130D+02 0.00000000D+00  -5  6  0 0.00000000D+00 0.00000000D+00 0.00000000D+00 0.00000000D+00 0.00000000D+00
  <mgrwgt>
 0.8483766426D-03    1    2    0
 0.161271777297097D+03 0.000000000000000D+00 0.000000000000000D+00 0.161271777297097D+03
 0.161271777297097D+03 -.000000000000000D+00 -.000000000000000D+00 -.161271777297097D+03
 0.149414329635317D+03 0.387084842037620D+02 0.327846127893271D+02 -.642375615607590D+02
 0.836240298723911D+02 -.795481558087473D+01 -.126707266066715D+02 -.173763061109457D+02
 0.895051950864849D+02 -.307536686228873D+02 -.201138861826556D+02 0.816138676717047D+02
 0.000000000000000D+00 0.000000000000000D+00 0.000000000000000D+00 0.000000000000000D+00
 0.161271777297097D+03 0.000000000000000D+00 0.000000000000000D+00 0.161271777297097D+03
 0.161271777297097D+03 -.000000000000000D+00 -.000000000000000D+00 -.161271777297097D+03
 0.139577569016714D+03 0.316235036523034D+02 0.281508081474864D+02 -.454354904233657D+02
 0.830077047413240D+02 -.120399909940980D+02 -.153425624225977D+02 -.653509657334999D+01
 0.435838948078206D+02 0.102606567282781D+01 -.426690149715746D+02 0.882373147878828D+01
 0.563743860283348D+02 -.206095783310332D+02 0.298607692466859D+02 0.431468555179273D+02
0.100228680819D-05 0.000000000000D+00 0.000000000000D+00 0.238135998636D-04 0.350017389595D-08  6 -2 1 25 -24 2 -2 4 0.75573465D-02 0.81455553D-01 0.21563357D+05 0.21563357D+05 0.21563357D+05 0.12302437D+01  1  2  1  7  6  5       21 0.848376642598D-03 0.100000000000D+01
  </mgrwgt>
  </event>
  <event>
  5     66 0.49582427E-03 0.25670480E+02 0.75467711E-02 0.11857444E+00
       -4 -1    0    0    0  501 0.00000000E+00 0.00000000E+00 0.35837067E+03 0.35837402E+03 0.15500000E+01 0.0000E+00 0.9000E+01
        3 -1    0    0  502    0 0.00000000E+00 0.00000000E+00 -.83361939E+02 0.83363439E+02 0.50000000E+00 0.0000E+00 0.9000E+01
       25  1    1    2    0    0 -.11205738E+03 -.16034345E+02 0.79880687E+02 0.18660086E+03 0.12500000E+03 0.0000E+00 0.9000E+01
      -24  1    1    2    0    0 0.10519901E+03 -.86979808E+01 0.13285111E+03 0.18777412E+03 0.80419002E+02 0.0000E+00 0.9000E+01
       21  1    1    2  502  501 0.68583703E+01 0.24732326E+02 0.62276940E+02 0.67362489E+02 0.75000000E+00 0.0000E+00 0.9000E+01
#aMCatNLO 1  0  0  5  5 0.25454625D+01 0.00000000D+00  -5  6  0 0.00000000D+00 0.00000000D+00 0.00000000D+00 0.00000000D+00 0.00000000D+00
  <mgrwgt>
 0.4319730905D-01    9    2    0
 0.172845439204307D+03 0.000000000000000D+00 0.000000000000000D+00 0.172845439204307D+03
 0.172845439204307D+03 -.000000000000000D+00 -.000000000000000D+00 -.172845439204307D+03
 0.174899619472721D+03 -.112058109877820D+03 -.160369827098367D+02 -.463753392211584D+02
 0.134257024882286D+03 0.105198446796446D+03 -.870000538364677D+01 0.203796337997500D+02
 0.365342340536071D+02 0.685966308137329D+01 0.247369880934835D+02 0.259957054214084D+02
 0.000000000000000D+00 0.000000000000000D+00 0.000000000000000D+00 -.000000000000000D+00
 0.172845439204307D+03 0.000000000000000D+00 0.000000000000000D+00 0.172845439204307D+03
 0.172845439204307D+03 -.000000000000000D+00 -.000000000000000D+00 -.172845439204307D+03
 0.173441655721997D+03 -.111299828245450D+03 -.133025038456513D+02 -.435017190873816D+02
 0.134950860717988D+03 0.105784468062017D+03 -.658672359458948D+01 0.226004478557358D+02
 0.329716578881205D+02 0.398767072433938D+01 0.216492602496382D+02 0.245466542878849D+02
 0.432670408050932D+01 0.152768945909367D+01 -.176003280939743D+01 -.364538305623904D+01
0.443790912307D-03 0.000000000000D+00 0.000000000000D+00 0.281351722534D-04 0.000000000000D+00  6 -4 3 25 -24 21 21 2 0.55134323D-01 0.12825287D-01 0.26734048D+05 0.26734048D+05 0.26734048D+05 0.12201874D+01  1  2  2  3  6  5       21 0.205526464975D-01 0.100000000000D+01
0.800665621860D-04 0.234194898566D-04 -.170427395609D-05 0.281351722534D-04 0.000000000000D+00  6 -4 3 25 -24 21 21 4 0.55134323D-01 0.12825287D-01 0.26734048D+05 0.26734048D+05 0.26734048D+05 0.12201874D+01  1  2  3  3  6  5       21 0.552069285513D-02 0.100000000000D+01
0.108063295548D-04 0.000000000000D+00 0.000000000000D+00 0.281351722534D-04 0.000000000000D+00  6 -4 3 25 -24 21 21 4 0.55134323D-01 0.12825287D-01 0.26734048D+05 0.26734048D+05 0.26734048D+05 0.12201874D+01  1  2 15  3  6  5       21 0.745110377348D-03 0.100000000000D+01
-.724248774594D-03 0.000000000000D+00 0.000000000000D+00 0.281351722534D-04 0.000000000000D+00  6 -4 3 25 -24 21 21 4 0.55134323D-01 0.12825287D-01 0.26734048D+05 0.26734048D+05 0.26734048D+05 0.12201874D+01  1  2  4  3  6  5       21 -.499378882528D-01 0.100000000000D+01
0.947523989523D-03 0.000000000000D+00 0.000000000000D+00 0.281351722534D-04 0.248996319844D-04  6 -4 3 25 -24 21 21 4 0.55134323D-01 0.12825287D-01 0.26452838D+05 0.26452838D+05 0.26452838D+05 0.12206762D+01  1  2 11  3  6  5       21 0.653876943852D-01 0.100000000000D+01
0.337518078563D-05 0.000000000000D+00 0.000000000000D+00 0.281577188610D-04 0.388016428223D-07  6 -4 3 25 -24 3 -3 4 0.55134323D-01 0.12825287D-01 0.26452838D+05 0.26452838D+05 0.26452838D+05 0.12206762D+01  1  2 11  6  6  5       21 0.232917891416D-03 0.100000000000D+01
0.331856440298D-05 0.000000000000D+00 0.000000000000D+00 0.281577188610D-04 0.411745786254D-07  6 -4 3 25 -24 4 -4 4 0.55134323D-01 0.12825287D-01 0.26452838D+05 0.26452838D+05 0.26452838D+05 0.12206762D+01  1  2 11  7  6  5       21 0.229010850784D-03 0.100000000000D+01
0.338451772819D-05 0.000000000000D+00 0.000000000000D+00 0.281577188610D-04 0.387411950319D-07  6 -4 3 25 -24 1 -1 4 0.55134323D-01 0.12825287D-01 0.26452838D+05 0.26452838D+05 0.26452838D+05 0.12206762D+01  1  2 11  8  6  5       21 0.233562224597D-03 0.100000000000D+01
0.338451772819D-05 0.000000000000D+00 0.000000000000D+00 0.281577188610D-04 0.387411950319D-07  6 -4 3 25 -24 2 -2 4 0.55134323D-01 0.12825287D-01 0.26452838D+05 0.26452838D+05 0.26452838D+05 0.12206762D+01  1  2 11  8  6  5       21 0.233562224597D-03 0.100000000000D+01
  </mgrwgt>
  </event>
  <event>
  6     66 -.49582427E-03 0.66295961E+02 0.75467711E-02 0.10669843E+00
       -2 -1    0    0    0  501 0.00000000E+00 0.00000000E+00 0.19590738E+03 0.19590764E+03 0.32000000E+00 0.0000E+00 0.9000E+01
        1 -1    0    0  502    0 -.00000000E+00 -.00000000E+00 -.65367840E+03 0.65367848E+03 0.32000000E+00 0.0000E+00 0.9000E+01
       25  1    1    2    0    0 0.83241774E+02 0.17207557E+03 -.15408352E+03 0.27551030E+03 0.12500000E+03 0.0000E+00 0.9000E+01
      -24  1    1    2    0    0 -.53498042E+02 -.21575884E+03 -.88435050E+02 0.25239234E+03 0.80419002E+02 0.0000E+00 0.9000E+01
       21  1    1    2  503  501 0.46449579E+02 0.10679850E+03 -.45173513E+02 0.12491874E+03 0.75000000E+00 0.0000E+00 0.9000E+01
       21  1    1    2  502  503 -.76193311E+02 -.63115233E+02 -.17007895E+03 0.19676474E+03 0.75000000E+00 0.0000E+00 0.9000E+01
#aMCatNLO 2  0  0  5  1 0.11608695D+03 0.00000000D+00  -5  6  0 0.00000000D+00 0.00000000D+00 0.00000000D+00 0.00000000D+00 0.00000000D+00
  <mgrwgt>
 -.1392529123D-01    2    2    0
 0.357855510658187D+03 0.000000000000000D+00 0.000000000000000D+00 0.357855510658187D+03
 0.357855510658187D+03 -.000000000000000D+00 -.000000000000000D+00 -.357855510658187D+03
 0.216584293117613D+03 0.108079582240350D+03 0.135597409847171D+03 0.348697916647940D+02
 0.292919728762018D+03 -.235884955885247D+02 -.259685634554097D+03 0.106497444221680D+03
 0.206206999436742D+03 -.844910866518249D+02 0.124088224706926D+03 -.141367235886474D+03
 0.000000000000000D+00 0.000000000000000D+00 -.000000000000000D+00 0.000000000000000D+00
 0.357855510658187D+03 0.000000000000000D+00 0.000000000000000D+00 0.357855510658187D+03
 0.357855510658187D+03 -.000000000000000D+00 -.000000000000000D+00 -.357855510658187D+03
 0.228480209408989D+03 0.832575996074999D+02 0.172052329302867D+03 -.666139479618909D+01
 0.243064252583333D+03 -.534812077704960D+02 -.215783564722500D+03 0.564821081457064D+02
 0.118845527440810D+03 0.470945841628100D+02 0.105613818746393D+03 0.274240920546213D+02
 0.125321031883242D+03 -.768709759998139D+02 -.618825833267597D+02 -.772448054041385D+02
-.404311271225D-03 0.000000000000D+00 0.000000000000D+00 0.807667693185D-06 0.000000000000D+00  6 -2 1 25 -24 21 21 4 0.30139623D-01 0.10056593D+00 0.11529971D+06 0.11529971D+06 0.11529971D+06 0.11579344D+01  1  2 13  3  6  5       21 -.202090099885D-01 0.100000000000D+01
0.125715130025D-03 0.000000000000D+00 0.000000000000D+00 0.814793874638D-06 0.332243082630D-09  6 -2 1 25 -24 21 21 4 0.30139623D-01 0.10056593D+00 0.11529971D+06 0.11529971D+06 0.11529971D+06 0.11579344D+01  1  2  1  3  6  5       21 0.628371875630D-02 0.100000000000D+01
  </mgrwgt>
  </event>
  <event>
  6     66 -.49582427E-03 0.31632860E+02 0.75467711E-02 0.12212758E+00
       -2 -1    0    0    0  501 0.00000000E+00 0.00000000E+00 0.21363723E+03 0.21363747E+03 0.32000000E+00 0.0000E+00 0.9000E+01
        1 -1    0    0  502    0 0.00000000E+00 0.00000000E+00 -.10197399E+03 0.10197449E+03 0.32000000E+00 0.0000E+00 0.9000E+01
       25  1    1    2    0    0 -.39803672E+02 -.94428823E+01 0.53510992E+02 0.14199270E+03 0.12500000E+03 0.0000E+00 0.9000E+01
      -24  1    1    2    0    0 0.27828116E+02 0.37649649E+02 -.66772917E+01 0.93293635E+02 0.80419002E+02 0.0000E+00 0.9000E+01
       21  1    1    2  502  503 0.75537921E+01 -.34919888E+02 0.62376480E+02 0.71887733E+02 0.75000000E+00 0.0000E+00 0.9000E+01
       21  1    1    2  503  501 0.44217644E+01 0.67131206E+01 0.24530556E+01 0.84378890E+01 0.75000000E+00 0.0000E+00 0.9000E+01
#aMCatNLO 2  0  0  5  2 0.75580860D+01 0.00000000D+00  -5  6  0 0.00000000D+00 0.00000000D+00 0.00000000D+00 0.00000000D+00 0.00000000D+00
  <mgrwgt>
 -.8321887973D-01    3    2    0
 0.147599312693770D+03 0.000000000000000D+00 0.000000000000000D+00 0.147599312693770D+03
 0.147599312693770D+03 -.000000000000000D+00 -.000000000000000D+00 -.147599312693770D+03
 0.131741187919957D+03 -.411034362412341D+02 -.638146844214096D+01 -.724557966107321D+00
 0.104319288567881D+03 0.268083417473523D+02 0.400515863456359D+02 -.457436471752471D+02
 0.591381488997014D+02 0.142950944938818D+02 -.336701179034950D+02 0.464682051413544D+02
 0.000000000000000D+00 0.000000000000000D+00 0.000000000000000D+00 0.000000000000000D+00
 0.147599312693770D+03 0.000000000000000D+00 0.000000000000000D+00 0.147599312693770D+03
 0.147599312693770D+03 -.000000000000000D+00 -.000000000000000D+00 -.147599312693770D+03
 0.131569287917309D+03 -.397805857175087D+02 -.949725988525450D+01 0.357555278406168D+01
 0.102235931487839D+03 0.278460584586229D+02 0.376073881604570D+02 -.423704037847560D+02
 0.531651613603479D+02 0.741144589082271D+01 -.349602223426617D+02 0.393622624607745D+02
 0.822824462204356D+01 0.452308136806306D+01 0.685009406745915D+01 -.567411460080277D+00
-.206299893310D-03 0.000000000000D+00 0.000000000000D+00 0.188138642082D-04 0.000000000000D+00  6 -2 1 25 -24 21 21 4 0.32867323D-01 0.15688363D-01 0.18024296D+05 0.18024296D+05 0.18024296D+05 0.12388303D+01  1  2 13  3  6  5       21 -.124666015994D+00 0.100000000000D+01
-.549323009179D-04 0.000000000000D+00 0.000000000000D+00 0.188854931264D-04 0.000000000000D+00  6 -2 1 25 -24 21 21 4 0.32867323D-01 0.15688363D-01 0.17170619D+05 0.17170619D+05 0.17170619D+05 0.12411863D+01  1  2  8  3  6  5       21 -.334043222178D-01 0.100000000000D+01
0.123865736597D-03 0.000000000000D+00 0.000000000000D+00 0.188854931264D-04 0.806121854153D-06  6 -2 1 25 -24 21 21 4 0.32867323D-01 0.15688363D-01 0.18024296D+05 0.18024296D+05 0.18024296D+05 0.12388303D+01  1  2  1  3  6  5       21 0.748514584855D-01 0.100000000000D+01
  </mgrwgt>
  </event>
  <event>
  5     66 0.49582427E-03 0.36053780E+02 0.75467711E-02 0.11525589E+00
       -2 -1    0    0    0  501 0.00000000E+00 0.00000000E+00 0.73612749E+02 0.73613445E+02 0.32000000E+00 0.0000E+00 0.9000E+01
        1 -1    0    0  502    0 0.00000000E+00 0.00000000E+00 -.43963431E+03 0.43963443E+03 0.32000000E+00 0.0000E+00 0.9000E+01
       25  1    1    2    0    0 -.43767244E+02 0.10950992E+03 -.20263054E+03 0.26569180E+03 0.12500000E+03 0.0000E+00 0.9000E+01
      -24  1    1    2    0    0 0.77649745E+01 -.11134399E+03 -.86158908E+02 0.16232176E+03 0.80419002E+02 0.0000E+00 0.9000E+01
       21  1    1    2  502  501 0.36002269E+02 0.18340696E+01 -.77232114E+02 0.85234319E+02 0.75000000E+00 0.0000E+00 0.9000E+01
#aMCatNLO 1  0  0  2  1 0.45243389D+02 0.00000000D+00  -5  6  0 0.00000000D+00 0.00000000D+00 0.00000000D+00 0.00000000D+00 0.00000000D+00
  <mgrwgt>
 0.1603421388D+00    7    4    0
 0.179896911272081D+03 0.000000000000000D+00 0.000000000000000D+00 0.179896911272081D+03
 0.179896911272081D+03 0.000000000000000D+00 0.000000000000000D+00 -.179896911272081D+03
 0.172873297387078D+03 -.437698732222134D+02 0.109509789097241D+03 -.187611630628317D+02
 0.143903020003039D+03 0.776278556055631D+01 -.111344104129340D+03 0.422266840706220D+02
 0.430175051540450D+02 0.360070876616571D+02 0.183431503209870D+01 -.234655210077903D+02
 0.000000000000000D+00 0.000000000000000D+00 0.000000000000000D+00 -.000000000000000D+00
 0.197387857089376D+03 0.000000000000000D+00 0.000000000000000D+00 0.197387857089376D+03
 0.213149812779297D+03 0.000000000000000D+00 0.000000000000000D+00 -.213149812779297D+03
 0.167553742922887D+03 -.578795861739429D+02 0.935266220513272D+02 -.187611630628317D+02
 0.154886730595193D+03 -.462118255790247D+01 -.125372386051569D+03 0.422266840706220D+02
 0.401868268831401D+02 0.325585095454295D+02 -.207215707623659D+01 -.234655210077903D+02
 0.479103694674523D+02 0.299422591864158D+02 0.339179210764789D+02 -.157619556899211D+02
 0.179896911272081D+03 0.000000000000000D+00 0.000000000000000D+00 0.179896911272081D+03
 0.179896911272081D+03 0.000000000000000D+00 0.000000000000000D+00 -.179896911272081D+03
 0.172873297387078D+03 -.437698732222134D+02 0.109509789097241D+03 -.187611630628317D+02
 0.143903020003039D+03 0.776278556055631D+01 -.111344104129340D+03 0.422266840706220D+02
 0.000000000000000D+00 0.000000000000000D+00 0.000000000000000D+00 -.000000000000000D+00
 0.430175051540450D+02 0.360070876616571D+02 0.183431503209870D+01 -.234655210077903D+02
 0.197387857089376D+03 0.000000000000000D+00 0.000000000000000D+00 0.197387857089376D+03
 0.213149812779297D+03 0.000000000000000D+00 0.000000000000000D+00 -.213149812779297D+03
 0.167553742922887D+03 -.578795861739429D+02 0.935266220513272D+02 -.187611630628317D+02
 0.154886730595193D+03 -.462118255790247D+01 -.125372386051569D+03 0.422266840706220D+02
 0.479103694674523D+02 0.299422591864158D+02 0.339179210764789D+02 -.157619556899211D+02
 0.401868268831401D+02 0.325585095454295D+02 -.207215707623659D+01 -.234655210077903D+02
0.164031889120D-03 0.000000000000D+00 0.000000000000D+00 0.141007608334D-04 0.000000000000D+00  6 -2 1 25 -24 21 21 2 0.11325101D-01 0.67636110D-01 0.29838096D+05 0.29838096D+05 0.29838096D+05 0.12151451D+01  1  2  2  2  6  2        1 0.608613274087D-01 0.100000000000D+01
0.199595017996D-04 0.865620060455D-05 -.629925644809D-06 0.141007608334D-04 0.000000000000D+00  6 -2 1 25 -24 21 21 4 0.11325101D-01 0.67636110D-01 0.29838096D+05 0.29838096D+05 0.29838096D+05 0.12151451D+01  1  2  3  2  6  2        1 0.109350087119D-01 0.100000000000D+01
0.702487379328D-05 0.000000000000D+00 0.000000000000D+00 0.141007608334D-04 0.000000000000D+00  6 -2 1 25 -24 21 21 4 0.11325101D-01 0.67636110D-01 0.29838096D+05 0.29838096D+05 0.29838096D+05 0.12151451D+01  1  2 15  2  6  2        1 0.384864596824D-02 0.100000000000D+01
-.415234608364D-04 0.000000000000D+00 0.000000000000D+00 0.141007608334D-04 0.000000000000D+00  6 -2 1 25 -24 21 21 4 0.11325101D-01 0.67636110D-01 0.29838096D+05 0.29838096D+05 0.29838096D+05 0.12151451D+01  1  2  4  2  6  2        1 -.227490350486D-01 0.100000000000D+01
-.734228585382D-03 0.000000000000D+00 -.214390128063D-03 0.141007608334D-04 0.000000000000D+00  6 -2 1 25 -24 21 21 4 0.11325101D-01 0.86379235D-01 0.29838096D+05 0.29838096D+05 0.29838096D+05 0.12151451D+01  1  2  5  2  6  2        1 -.291612928560D+00 0.100000000000D+01
0.769783328373D-03 0.000000000000D+00 0.208132553558D-03 0.141007608334D-04 0.000000000000D+00  6 -2 1 25 -24 21 21 4 0.11325101D-01 0.67636110D-01 0.29838096D+05 0.29838096D+05 0.29838096D+05 0.12151451D+01  1  2  6  2  6  2        1 0.421733342170D+00 0.100000000000D+01
-.209848847655D-04 0.000000000000D+00 -.713963128630D-05 0.141007608334D-04 0.000000000000D+00  6 -2 21 25 -24 -1 21 4 0.11325101D-01 0.86379235D-01 0.29838096D+05 0.29838096D+05 0.29838096D+05 0.12151451D+01  3  4  5  5  5  2        1 -.226742218080D-01 0.100000000000D+01
  </mgrwgt>
  </event>
  <event>
  6     66 0.49582427E-03 0.24288574E+02 0.75467711E-02 0.12451637E+00
       -2 -1    0    0    0  501 0.00000000E+00 0.00000000E+00 0.21820050E+02 0.21822396E+02 0.32000000E+00 0.0000E+00 0.9000E+01
        1 -1    0    0  502    0 -.00000000E+00 -.00000000E+00 -.98909470E+03 0.98909475E+03 0.32000000E+00 0.0000E+00 0.9000E+01
       25  1    1    2    0    0 0.19677269E+02 0.14531214E+02 -.79425819E+03 0.80440626E+03 0.12500000E+03 0.0000E+00 0.9000E+01
      -24  1    1    2    0    0 -.36133026E+00 0.62417649E+01 -.12427535E+03 0.14815758E+03 0.80419002E+02 0.0000E+00 0.9000E+01
       21  1    1    2  502  503 -.16001420E+02 -.20726220E+02 -.48273294E+02 0.54922628E+02 0.75000000E+00 0.0000E+00 0.9000E+01
       21  1    1    2  503  501 -.33145185E+01 -.46759339E-01 -.46781163E+00 0.34306803E+01 0.75000000E+00 0.0000E+00 0.9000E+01
#aMCatNLO 2  0  0  5  1 0.64690751D+01 0.00000000D+00  -5  6  0 0.00000000D+00 0.00000000D+00 0.00000000D+00 0.00000000D+00 0.00000000D+00
  <mgrwgt>
 0.2467005028D+00    4    2    0
 0.146912586370326D+03 0.000000000000000D+00 0.000000000000000D+00 0.146912586370326D+03
 0.146912586370326D+03 -.000000000000000D+00 -.000000000000000D+00 -.146912586370326D+03
 0.153621007221070D+03 0.204597694062516D+02 0.153727404687223D+02 -.855540212143196D+02
 0.100275903593904D+03 0.151563202485855D+00 0.679334692087905D+01 0.595135980546598D+02
 0.399282619256786D+02 -.206113326087374D+02 -.221660873896013D+02 0.260404231596599D+02
 0.000000000000000D+00 0.000000000000000D+00 0.000000000000000D+00 0.000000000000000D+00
 0.146912586370326D+03 0.000000000000000D+00 0.000000000000000D+00 0.146912586370326D+03
 0.146912586370326D+03 -.000000000000000D+00 -.000000000000000D+00 -.146912586370326D+03
 0.152880634085074D+03 0.196696316075387D+02 0.145230009672272D+02 -.845557586068741D+02
 0.100630131601885D+03 -.366357196639113D+00 0.623635873162463D+01 0.601679403338444D+02
 0.297331441594881D+02 -.158433291862414D+02 -.206399442336088D+02 0.143889361642483D+02
 0.105812628942052D+02 -.345994522465818D+01 -.119415465243015D+00 0.999888210878141D+01
-.117592837637D-03 0.000000000000D+00 0.000000000000D+00 0.184798235383D-04 0.000000000000D+00  6 -2 1 25 -24 21 21 4 0.33571153D-02 0.15216860D+00 0.14102948D+05 0.14102948D+05 0.14102948D+05 0.12508872D+01  1  2 13  3  6  5       21 -.143095046741D+00 0.100000000000D+01
-.128898411420D-03 0.000000000000D+00 0.000000000000D+00 0.184798235383D-04 0.000000000000D+00  6 -2 1 25 -24 21 21 4 0.33571153D-02 0.15216860D+00 0.14102948D+05 0.14102948D+05 0.14102948D+05 0.12508872D+01  1  2 13  3  6  5       21 -.156852445928D+00 0.100000000000D+01
-.388371713693D-04 0.000000000000D+00 0.000000000000D+00 0.184667687366D-04 0.000000000000D+00  6 -2 1 25 -24 21 21 4 0.33571153D-02 0.15216860D+00 0.14228499D+05 0.14228499D+05 0.14228499D+05 0.12504453D+01  1  2  8  3  6  5       21 -.472020996892D-01 0.100000000000D+01
0.488014920225D-03 0.000000000000D+00 0.000000000000D+00 0.184667687366D-04 0.120487973072D-04  6 -2 1 25 -24 21 21 4 0.33571153D-02 0.15216860D+00 0.14102948D+05 0.14102948D+05 0.14102948D+05 0.12508872D+01  1  2  1  3  6  5       21 0.593850095150D+00 0.100000000000D+01
  </mgrwgt>
  </event>
  <event>
  5     66 -.49582427E-03 0.21962087E+02 0.75467711E-02 0.12134122E+00
       -2 -1    0    0    0  501 0.00000000E+00 0.00000000E+00 0.15160272E+02 0.15163649E+02 0.32000000E+00 0.0000E+00 0.9000E+01
        1 -1    0    0  502    0 0.00000000E+00 0.00000000E+00 -.21677315E+04 0.21677315E+04 0.32000000E+00 0.0000E+00 0.9000E+01
       25  1    1    2    0    0 -.29159902E+02 0.70399292E+02 -.12806778E+04 0.12890179E+04 0.12500000E+03 0.0000E+00 0.9000E+01
      -24  1    1    2    0    0 0.81298220E+01 -.64070994E+02 -.86459066E+03 0.87072120E+03 0.80419002E+02 0.0000E+00 0.9000E+01
       21  1    1    2  502  501 0.21030080E+02 -.63282987E+01 -.73027067E+01 0.23156072E+02 0.75000000E+00 0.0000E+00 0.9000E+01
#aMCatNLO 1  0  0  1  2 0.94769450D+01 0.00000000D+00  -5  6  0 0.00000000D+00 0.00000000D+00 0.00000000D+00 0.00000000D+00 0.00000000D+00
  <mgrwgt>
 -.9205920110D+00    9    4    0
 0.181292887459028D+03 0.000000000000000D+00 0.000000000000000D+00 0.181292887459028D+03
 0.181292887459028D+03 0.000000000000000D+00 0.000000000000000D+00 -.181292887459028D+03
 0.157316788701629D+03 -.291601804869083D+02 0.703993760876802D+02 -.575949974201692D+02
 0.109216129694777D+03 0.812962892975613D+01 -.640709355857899D+02 -.359133871663727D+02
 0.960528565216497D+02 0.210305515571522D+02 -.632844050189031D+01 0.935083845865418D+02
 0.000000000000000D+00 0.000000000000000D+00 -.000000000000000D+00 0.000000000000000D+00
 0.236559532784122D+03 0.000000000000000D+00 0.000000000000000D+00 0.236559532784122D+03
 0.181761526473476D+03 0.000000000000000D+00 0.000000000000000D+00 -.181761526473476D+03
 0.159356665808704D+03 -.310228584863156D+02 0.740941661750487D+02 -.575949974201692D+02
 0.107662423605002D+03 0.685394603300233D+01 -.615405033140547D+02 -.359133871663727D+02
 0.956905143464501D+02 0.199027141796857D+02 -.409127317412191D+01 0.935083845865418D+02
 0.556114554974417D+02 0.426619827362759D+01 -.846238968687212D+01 0.547980063106457D+02
 0.181292887459028D+03 0.000000000000000D+00 0.000000000000000D+00 0.181292887459028D+03
 0.181292887459028D+03 0.000000000000000D+00 0.000000000000000D+00 -.181292887459028D+03
 0.157316788701629D+03 -.291601804869083D+02 0.703993760876802D+02 -.575949974201692D+02
 0.109216129694777D+03 0.812962892975613D+01 -.640709355857899D+02 -.359133871663727D+02
 0.000000000000000D+00 0.000000000000000D+00 -.000000000000000D+00 0.000000000000000D+00
 0.960528565216497D+02 0.210305515571522D+02 -.632844050189031D+01 0.935083845865418D+02
 0.236559532784122D+03 0.000000000000000D+00 0.000000000000000D+00 0.236559532784122D+03
 0.181761526473476D+03 0.000000000000000D+00 0.000000000000000D+00 -.181761526473476D+03
 0.159356665808704D+03 -.310228584863156D+02 0.740941661750487D+02 -.575949974201692D+02
 0.107662423605002D+03 0.685394603300233D+01 -.615405033140547D+02 -.359133871663727D+02
 0.556114554974417D+02 0.426619827362759D+01 -.846238968687212D+01 0.547980063106457D+02
 0.956905143464501D+02 0.199027141796857D+02 -.409127317412191D+01 0.935083845865418D+02
0.690971462008D-04 0.000000000000D+00 0.000000000000D+00 0.590983718734D-04 0.000000000000D+00  6 -2 1 25 -24 21 21 2 0.23326112D-02 0.33349741D+00 0.18427967D+05 0.18427967D+05 0.18427967D+05 0.12377594D+01  1  2  2  1  6  1       -2 0.151749027292D-01 0.100000000000D+01
0.125713978221D-04 0.364635658301D-05 -.265351235108D-06 0.590983718734D-04 0.000000000000D+00  6 -2 1 25 -24 21 21 4 0.23326112D-02 0.33349741D+00 0.18427967D+05 0.18427967D+05 0.18427967D+05 0.12377594D+01  1  2  3  1  6  1       -2 0.422981940935D-02 0.100000000000D+01
0.346820790224D-05 0.000000000000D+00 0.000000000000D+00 0.590983718734D-04 0.000000000000D+00  6 -2 1 25 -24 21 21 4 0.23326112D-02 0.33349741D+00 0.18427967D+05 0.18427967D+05 0.18427967D+05 0.12377594D+01  1  2 15  1  6  1       -2 0.116692616908D-02 0.100000000000D+01
-.221994436613D-02 0.000000000000D+00 0.000000000000D+00 0.590983718734D-04 0.000000000000D+00  6 -2 1 25 -24 21 21 4 0.23326112D-02 0.33349741D+00 0.18427967D+05 0.18427967D+05 0.18427967D+05 0.12377594D+01  1  2  4  1  6  1       -2 -.746930763024D+00 0.100000000000D+01
-.339506918022D-02 0.000000000000D+00 -.629149541759D-04 0.590983718734D-04 0.000000000000D+00  6 -2 1 25 -24 21 21 4 0.30505030D-02 0.33349741D+00 0.18427967D+05 0.18427967D+05 0.18427967D+05 0.12377594D+01  1  2  5  1  6  1       -2 -.771227136756D+00 0.100000000000D+01
0.329483079429D-02 0.000000000000D+00 0.607161896172D-04 0.590983718734D-04 0.000000000000D+00  6 -2 1 25 -24 21 21 4 0.23326112D-02 0.33349741D+00 0.18427967D+05 0.18427967D+05 0.18427967D+05 0.12377594D+01  1  2  6  1  6  1       -2 0.110859106055D+01 0.100000000000D+01
0.175300271280D-07 0.000000000000D+00 0.000000000000D+00 0.590983718734D-04 0.641675654926D-05  6 -2 1 25 -24 21 21 4 0.30437014D-02 0.33435950D+00 0.19582684D+05 0.19582684D+05 0.19582684D+05 0.12348355D+01  1  2 11  1  6  1       -2 0.392273915850D-05 0.100000000000D+01
-.119838547042D-03 0.000000000000D+00 -.224267611779D-05 0.590983718734D-04 0.000000000000D+00  6 21 1 25 -24 2 21 4 0.30505030D-02 0.33349741D+00 0.18427967D+05 0.18427967D+05 0.18427967D+05 0.12377594D+01  3  4  5  4  5  1       -2 -.531602992201D+00 0.100000000000D+01
0.515031439166D-09 0.000000000000D+00 0.000000000000D+00 0.590983718734D-04 0.376978811864D-06  6 21 1 25 -24 2 21 4 0.30437014D-02 0.33435950D+00 0.19582684D+05 0.19582684D+05 0.19582684D+05 0.12348355D+01  3  4 11  4  5  1       -2 0.224941840739D-05 0.100000000000D+01
  </mgrwgt>
  </event>
  <event>
  5     66 0.49582427E-03 0.95215461E+02 0.75467711E-02 0.11156474E+00
       -2 -1    0    0    0  501 0.00000000E+00 0.00000000E+00 0.63665889E+02 0.63666694E+02 0.32000000E+00 0.0000E+00 0.9000E+01
        1 -1    0    0  502    0 -.00000000E+00 -.00000000E+00 -.18414590E+04 0.18414591E+04 0.32000000E+00 0.0000E+00 0.9000E+01
       25  1    1    2    0    0 -.41309743E+01 0.30326322E+02 -.72340181E+02 0.14763080E+03 0.12500000E+03 0.0000E+00 0.9000E+01
      -24  1    1    2    0    0 -.15615376E+03 -.54105716E+02 -.37933413E+03 0.42151278E+03 0.80419002E+02 0.0000E+00 0.9000E+01
       21  1    1    2  502  501 0.16028473E+03 0.23779394E+02 -.13261188E+04 0.13359822E+04 0.75000000E+00 0.0000E+00 0.9000E+01
#aMCatNLO 1  0  0  5  1 0.44843359D+02 0.00000000D+00  -5  6  0 0.00000000D+00 0.00000000D+00 0.00000000D+00 0.00000000D+00 0.00000000D+00
  <mgrwgt>
 0.3937209109D-02   13    2    0
 0.342401694305858D+03 0.000000000000000D+00 0.000000000000000D+00 0.342401694305858D+03
 0.342401694305858D+03 -.000000000000000D+00 -.000000000000000D+00 -.342401694305858D+03
 0.222909979693606D+03 -.413116970523371D+01 0.303262934418185D+02 0.182008539387445D+03
 0.187874899665795D+03 -.156153924461346D+03 -.541057409091149D+02 0.389651465550712D+02
 0.274018509252315D+03 0.160285094166580D+03 0.237794474672963D+02 -.220973685942517D+03
 0.000000000000000D+00 0.000000000000000D+00 0.000000000000000D+00 0.000000000000000D+00
 0.342401694305858D+03 0.000000000000000D+00 0.000000000000000D+00 0.342401694305858D+03
 0.342401694305858D+03 -.000000000000000D+00 -.000000000000000D+00 -.342401694305858D+03
 0.219439197980485D+03 -.101057201315154D+01 0.307892565718044D+02 0.177706392778314D+03
 0.184854726659428D+03 -.153524465042438D+03 -.537156416772155D+02 0.353400974333581D+02
 0.994973697858202D+02 0.405116167739171D+02 0.509127664381163D+02 -.752756648212245D+02
 0.181012094185984D+03 0.114023420281673D+03 -.279863813327051D+02 -.137770825390447D+03
0.405577406914D-03 0.000000000000D+00 0.000000000000D+00 0.148801798257D-05 0.000000000000D+00  6 -2 1 25 -24 21 21 2 0.97948162D-02 0.28330146D+00 0.56292710D+05 0.56292710D+05 0.56292710D+05 0.11872166D+01  1  2  2  3  6  5       21 0.148698128924D-01 0.100000000000D+01
-.303410574311D-04 0.214029077745D-04 -.155752403353D-05 0.148801798257D-05 0.000000000000D+00  6 -2 1 25 -24 21 21 4 0.97948162D-02 0.28330146D+00 0.56292710D+05 0.56292710D+05 0.56292710D+05 0.11872166D+01  1  2  3  3  6  5       21 -.156791448087D-02 0.100000000000D+01
0.187372574783D-04 0.000000000000D+00 0.000000000000D+00 0.148801798257D-05 0.000000000000D+00  6 -2 1 25 -24 21 21 4 0.97948162D-02 0.28330146D+00 0.56292710D+05 0.56292710D+05 0.56292710D+05 0.11872166D+01  1  2 15  3  6  5       21 0.968272691177D-03 0.100000000000D+01
0.178592225567D-03 0.000000000000D+00 0.000000000000D+00 0.148007966240D-05 0.000000000000D+00  6 -2 1 25 -24 21 21 4 0.97948162D-02 0.28330146D+00 0.60677674D+05 0.60677674D+05 0.60677674D+05 0.11840456D+01  1  2 12  3  6  5       21 0.911336694250D-02 0.100000000000D+01
-.298463374170D-03 0.000000000000D+00 0.000000000000D+00 0.148801798257D-05 0.000000000000D+00  6 -2 1 25 -24 21 21 4 0.97948162D-02 0.28330146D+00 0.56292710D+05 0.56292710D+05 0.56292710D+05 0.11872166D+01  1  2  5  3  6  5       21 -.154234916641D-01 0.100000000000D+01
0.135931756456D-04 0.000000000000D+00 0.000000000000D+00 0.148007966240D-05 0.000000000000D+00  6 -2 1 25 -24 1 -1 4 0.97948162D-02 0.28330146D+00 0.60677674D+05 0.60677674D+05 0.60677674D+05 0.11840456D+01  1  2 12  6  6  5       21 0.693644962309D-03 0.100000000000D+01
-.328845778522D-04 0.000000000000D+00 0.000000000000D+00 0.148801798257D-05 0.000000000000D+00  6 -2 1 25 -24 1 -1 4 0.97948162D-02 0.28330146D+00 0.56292710D+05 0.56292710D+05 0.56292710D+05 0.11872166D+01  1  2  5  6  6  5       21 -.169935428021D-02 0.100000000000D+01
0.135931756456D-04 0.000000000000D+00 0.000000000000D+00 0.148007966240D-05 0.000000000000D+00  6 -2 1 25 -24 2 -2 4 0.97948162D-02 0.28330146D+00 0.60677674D+05 0.60677674D+05 0.60677674D+05 0.11840456D+01  1  2 12  7  6  5       21 0.693644962309D-03 0.100000000000D+01
-.328845778522D-04 0.000000000000D+00 0.000000000000D+00 0.148801798257D-05 0.000000000000D+00  6 -2 1 25 -24 2 -2 4 0.97948162D-02 0.28330146D+00 0.56292710D+05 0.56292710D+05 0.56292710D+05 0.11872166D+01  1  2  5  7  6  5       21 -.169935428021D-02 0.100000000000D+01
0.135931756456D-04 0.000000000000D+00 0.000000000000D+00 0.148007966240D-05 0.000000000000D+00  6 -2 1 25 -24 3 -3 4 0.97948162D-02 0.28330146D+00 0.60677674D+05 0.60677674D+05 0.60677674D+05 0.11840456D+01  1  2 12  8  6  5       21 0.693644962309D-03 0.100000000000D+01
0.135931756456D-04 0.000000000000D+00 0.000000000000D+00 0.148007966240D-05 0.000000000000D+00  6 -2 1 25 -24 4 -4 4 0.97948162D-02 0.28330146D+00 0.60677674D+05 0.60677674D+05 0.60677674D+05 0.11840456D+01  1  2 12  8  6  5       21 0.693644962309D-03 0.100000000000D+01
-.328845778522D-04 0.000000000000D+00 0.000000000000D+00 0.148801798257D-05 0.000000000000D+00  6 -2 1 25 -24 3 -3 4 0.97948162D-02 0.28330146D+00 0.56292710D+05 0.56292710D+05 0.56292710D+05 0.11872166D+01  1  2  5  8  6  5       21 -.169935428021D-02 0.100000000000D+01
-.328845778522D-04 0.000000000000D+00 0.000000000000D+00 0.148801798257D-05 0.000000000000D+00  6 -2 1 25 -24 4 -4 4 0.97948162D-02 0.28330146D+00 0.56292710D+05 0.56292710D+05 0.56292710D+05 0.11872166D+01  1  2  5  8  6  5       21 -.169935428021D-02 0.100000000000D+01
  </mgrwgt>
  </event>
  <event>
  5     66 0.49582427E-03 0.70959864E+02 0.75467711E-02 0.11510686E+00
       -2 -1    0    0    0  501 0.00000000E+00 0.00000000E+00 0.56098744E+02 0.56099657E+02 0.32000000E+00 0.0000E+00 0.9000E+01
        1 -1    0    0  502    0 0.00000000E+00 0.00000000E+00 -.68461549E+03 0.68461557E+03 0.32000000E+00 0.0000E+00 0.9000E+01
       25  1    1    2    0    0 0.19927979E+02 0.19772144E+02 -.26283886E+03 0.29239926E+03 0.12500000E+03 0.0000E+00 0.9000E+01
      -24  1    1    2    0    0 -.91619037E+01 0.50365095E+02 -.22595072E+02 0.97971100E+02 0.80419002E+02 0.0000E+00 0.9000E+01
       21  1    1    2  502  501 -.10766075E+02 -.70137239E+02 -.34308282E+03 0.35034487E+03 0.75000000E+00 0.0000E+00 0.9000E+01
#aMCatNLO 1  0  0  2  5 0.84839918D+02 0.00000000D+00  -5  6  0 0.00000000D+00 0.00000000D+00 0.00000000D+00 0.00000000D+00 0.00000000D+00
  <mgrwgt>
 0.4096079303D-01    4    2    0
 0.195975598743536D+03 0.000000000000000D+00 0.000000000000000D+00 0.195975598743536D+03
 0.195975598743536D+03 0.000000000000000D+00 0.000000000000000D+00 -.195975598743536D+03
 0.131102906245150D+03 0.199280600453975D+02 0.197726710721177D+02 -.278367729348330D+02
 0.148915488692651D+03 -.916181189946257D+01 0.503656931975660D+02 0.114402644067557D+03
 0.111932802549271D+03 -.107662481459349D+02 -.701383642696836D+02 -.865658711327237D+02
 0.000000000000000D+00 -.000000000000000D+00 0.000000000000000D+00 0.000000000000000D+00
 0.317294528825185D+03 0.000000000000000D+00 0.000000000000000D+00 0.317294528825185D+03
 0.218113147291101D+03 0.000000000000000D+00 0.000000000000000D+00 -.218113147291101D+03
 0.130417580129826D+03 0.227785714365861D+02 -.948662019912885D+01 -.278367729348330D+02
 0.141110638575799D+03 -.600059577073581D+01 0.179171494844292D+02 0.114402644067557D+03
 0.130455347849827D+03 -.812427468764493D+01 -.972571020463373D+02 -.865658711327237D+02
 0.133424109560834D+03 -.865370097820535D+01 0.888265727610369D+02 0.991813815340836D+02
0.163937401865D-03 0.000000000000D+00 0.000000000000D+00 0.399307437652D-05 0.000000000000D+00  6 -2 1 25 -24 21 21 2 0.86306520D-02 0.10532554D+00 0.21668383D+05 0.21668383D+05 0.21668383D+05 0.12300135D+01  1  2  2  2  6  2        1 0.524920321312D-01 0.100000000000D+01
-.865347583790D-05 0.865121437513D-05 -.629562788873D-06 0.399307437652D-05 0.000000000000D+00  6 -2 1 25 -24 21 21 4 0.86306520D-02 0.10532554D+00 0.21668383D+05 0.21668383D+05 0.21668383D+05 0.12300135D+01  1  2  3  2  6  2        1 -.419204286180D-02 0.100000000000D+01
0.611605395024D-05 0.000000000000D+00 0.000000000000D+00 0.399307437652D-05 0.000000000000D+00  6 -2 1 25 -24 21 21 4 0.86306520D-02 0.10532554D+00 0.21668383D+05 0.21668383D+05 0.21668383D+05 0.12300135D+01  1  2 15  2  6  2        1 0.296282797627D-02 0.100000000000D+01
-.212660797100D-04 0.000000000000D+00 0.000000000000D+00 0.399307437652D-05 0.000000000000D+00  6 -2 1 25 -24 21 21 4 0.86306520D-02 0.10532554D+00 0.21668383D+05 0.21668383D+05 0.21668383D+05 0.12300135D+01  1  2  4  2  6  2        1 -.103020242174D-01 0.100000000000D+01
  </mgrwgt>
  </event>
  <event>
  5     66 0.49582427E-03 0.26214391E+02 0.75467711E-02 0.11809386E+00
       -2 -1    0    0    0  501 0.00000000E+00 0.00000000E+00 0.42125696E+02 0.42126912E+02 0.32000000E+00 0.0000E+00 0.9000E+01
        1 -1    0    0  502    0 0.00000000E+00 0.00000000E+00 -.55024286E+03 0.55024295E+03 0.32000000E+00 0.0000E+00 0.9000E+01
       25  1    1    2    0    0 0.39301516E+02 0.31625637E+02 -.12404347E+03 0.18318453E+03 0.12500000E+03 0.0000E+00 0.9000E+01
      -24  1    1    2    0    0 -.38698994E+02 -.57830042E+02 -.23662937E+03 0.25942745E+03 0.80419002E+02 0.0000E+00 0.9000E+01
       21  1    1    2  502  501 -.60252185E+00 0.26204406E+02 -.14744432E+03 0.14975788E+03 0.75000000E+00 0.0000E+00 0.9000E+01
#aMCatNLO 1  0  0  2  5 0.16718311D+03 0.00000000D+00  -5  6  0 0.00000000D+00 0.00000000D+00 0.00000000D+00 0.00000000D+00 0.00000000D+00
  <mgrwgt>
 0.1412485208D+00    3    2    0
 0.152248978004827D+03 0.000000000000000D+00 0.000000000000000D+00 0.152248978004827D+03
 0.152248978004827D+03 0.000000000000000D+00 0.000000000000000D+00 -.152248978004827D+03
 0.149375699057626D+03 0.393015561508683D+02 0.316238743719307D+02 0.643693849806179D+02
 0.109825445451495D+03 -.386989639807219D+02 -.578313380718664D+02 -.274287994247856D+02
 0.452968115005321D+02 -.602592170146369D+00 0.262074636999358D+02 -.369405855558323D+02
 0.000000000000000D+00 -.000000000000000D+00 -.000000000000000D+00 0.000000000000000D+00
 0.403110630023794D+03 0.000000000000000D+00 0.000000000000000D+00 0.403110630023794D+03
 0.158281678390104D+03 0.000000000000000D+00 0.000000000000000D+00 -.158281678390104D+03
 0.159538989451172D+03 0.459226742779346D+02 0.597944764964197D+02 0.643693849806179D+02
 0.994555329959298D+02 -.342133434142886D+02 -.387465506034380D+02 -.274287994247856D+02
 0.508949330972065D+02 0.145913207775089D+01 0.349793980414334D+02 -.369405855558323D+02
 0.251502852869590D+03 -.131684629413969D+02 -.560273239344151D+02 0.244828951633690D+03
0.170758554743D-03 0.000000000000D+00 0.000000000000D+00 0.300947692683D-04 0.000000000000D+00  6 -2 1 25 -24 21 21 2 0.64809770D-02 0.84652849D-01 0.17869607D+05 0.17869607D+05 0.17869607D+05 0.12392478D+01  1  2  2  2  6  2        1 0.116006551921D+00 0.100000000000D+01
0.179309502029D-04 0.901117650189D-05 -.655757811974D-06 0.300947692683D-04 0.000000000000D+00  6 -2 1 25 -24 21 21 4 0.64809770D-02 0.84652849D-01 0.17869607D+05 0.17869607D+05 0.17869607D+05 0.12392478D+01  1  2  3  2  6  2        1 0.187076679672D-01 0.100000000000D+01
0.626300533448D-05 0.000000000000D+00 0.000000000000D+00 0.300947692683D-04 0.000000000000D+00  6 -2 1 25 -24 21 21 4 0.64809770D-02 0.84652849D-01 0.17869607D+05 0.17869607D+05 0.17869607D+05 0.12392478D+01  1  2 15  2  6  2        1 0.653430091259D-02 0.100000000000D+01
  </mgrwgt>
  </event>
  <event>
  5     66 0.49582427E-03 0.71240057E+02 0.75467711E-02 0.10379242E+00
       -2 -1    0    0    0  501 0.00000000E+00 0.00000000E+00 0.21250034E+02 0.21252444E+02 0.32000000E+00 0.0000E+00 0.9000E+01
        1 -1    0    0  502    0 0.00000000E+00 0.00000000E+00 -.17548704E+04 0.17548704E+04 0.32000000E+00 0.0000E+00 0.9000E+01
       25  1    1    2    0    0 0.50109201E+02 0.17704722E+02 -.41595621E+03 0.43757166E+03 0.12500000E+03 0.0000E+00 0.9000E+01
      -24  1    1    2    0    0 -.60673899E+02 -.88155721E+02 -.49414820E+03 0.51195938E+03 0.80419002E+02 0.0000E+00 0.9000E+01
       21  1    1    2  502  501 0.10564697E+02 0.70450999E+02 -.82351594E+03 0.82659181E+03 0.75000000E+00 0.0000E+00 0.9000E+01
#aMCatNLO 1  0  0  1  2 0.36890120D+03 0.00000000D+00  -5  6  0 0.00000000D+00 0.00000000D+00 0.00000000D+00 0.00000000D+00 0.00000000D+00
  <mgrwgt>
 0.1443835513D+00    3    2    0
 0.193114529024768D+03 0.000000000000000D+00 0.000000000000000D+00 0.193114529024768D+03
 0.193114529024768D+03 0.000000000000000D+00 0.000000000000000D+00 -.193114529024768D+03
 0.145175333824113D+03 0.501090995220974D+02 0.177040429574740D+02 0.512496103300993D+02
 0.136286009845377D+03 -.606739941109530D+02 -.881563577238632D+02 0.255691915533125D+02
 0.104767714380046D+03 0.105648945888556D+02 0.704523147663892D+02 -.768188018834119D+02
 0.000000000000000D+00 -.000000000000000D+00 0.000000000000000D+00 -.000000000000000D+00
 0.444883307217037D+03 0.000000000000000D+00 0.000000000000000D+00 0.444883307217037D+03
 0.458362341992693D+03 0.000000000000000D+00 0.000000000000000D+00 -.458362341992693D+03
 0.189455246926775D+03 0.655142846971280D+02 -.115540670457298D+03 0.512496103300993D+02
 0.265451911332332D+03 -.421794289887603D+02 -.248122174521162D+03 0.255691915533125D+02
 0.791911263901566D+02 0.190336962156819D+02 -.279724587907576D+01 -.768188018834119D+02
 0.369147364560466D+03 -.423685519240497D+02 0.366460090857536D+03 -.134790347756565D+02
0.599099966988D-03 0.000000000000D+00 0.000000000000D+00 0.500988962093D-05 0.000000000000D+00  6 -2 1 25 -24 21 21 2 0.32694236D-02 0.26998025D+00 0.29059068D+05 0.29059068D+05 0.29059068D+05 0.12163536D+01  1  2  2  1  6  1       -2 0.141698895116D+00 0.100000000000D+01
-.159176818705D-04 0.316153738413D-04 -.230070161988D-05 0.500988962093D-05 0.000000000000D+00  6 -2 1 25 -24 21 21 4 0.32694236D-02 0.26998025D+00 0.29059068D+05 0.29059068D+05 0.29059068D+05 0.12163536D+01  1  2  3  1  6  1       -2 -.557014728002D-02 0.100000000000D+01
0.235895622505D-04 0.000000000000D+00 0.000000000000D+00 0.500988962093D-05 0.000000000000D+00  6 -2 1 25 -24 21 21 4 0.32694236D-02 0.26998025D+00 0.29059068D+05 0.29059068D+05 0.29059068D+05 0.12163536D+01  1  2 15  1  6  1       -2 0.825480349938D-02 0.100000000000D+01
  </mgrwgt>
  </event>
  <event>
  6     66 -.49582427E-03 0.23620585E+02 0.75467711E-02 0.11617395E+00
       -2 -1    0    0    0  501 0.00000000E+00 0.00000000E+00 0.15972208E+03 0.15972240E+03 0.32000000E+00 0.0000E+00 0.9000E+01
        1 -1    0    0  502    0 -.00000000E+00 -.00000000E+00 -.33906080E+03 0.33906095E+03 0.32000000E+00 0.0000E+00 0.9000E+01
       25  1    1    2    0    0 0.42500728E+02 -.14425266E+03 -.10031572E+03 0.21978031E+03 0.12500000E+03 0.0000E+00 0.9000E+01
      -24  1    1    2    0    0 -.45654176E+02 0.11477943E+03 -.14408237E+03 0.20612027E+03 0.80419002E+02 0.0000E+00 0.9000E+01
        3  1    1    2  502    0 -.41688181E+01 0.18586708E+02 0.45461215E+02 0.49293173E+02 0.50000000E+00 0.0000E+00 0.9000E+01
       -3  1    1    2    0  501 0.73222668E+01 0.10886517E+02 0.19598149E+02 0.23589601E+02 0.50000000E+00 0.0000E+00 0.9000E+01
#aMCatNLO 2  0  0  5  1 0.65914010D+01 0.00000000D+00  -5  6  0 0.00000000D+00 0.00000000D+00 0.00000000D+00 0.00000000D+00 0.00000000D+00
  <mgrwgt>
 -.1087550876D-01    2    2    0
 0.232713587191311D+03 0.000000000000000D+00 0.000000000000000D+00 0.232713587191311D+03
 0.232713587191311D+03 -.000000000000000D+00 -.000000000000000D+00 -.232713587191311D+03
 0.197008705361243D+03 0.424879635143073D+02 -.144371954001364D+03 -.232151209849897D+02
 0.165459082923453D+03 -.456648973711236D+02 0.114679228075514D+03 -.753185499302038D+02
 0.102959386097927D+03 0.317693385681628D+01 0.296927259258509D+02 0.985336709151935D+02
 0.000000000000000D+00 0.000000000000000D+00 0.000000000000000D+00 0.000000000000000D+00
 0.232713587191311D+03 0.000000000000000D+00 0.000000000000000D+00 0.232713587191311D+03
 0.232713587191311D+03 -.000000000000000D+00 -.000000000000000D+00 -.232713587191311D+03
 0.196878195700355D+03 0.425006864876394D+02 -.144253040678916D+03 -.228205136925910D+02
 0.165374825469067D+03 -.456542110777168D+02 0.114779105880841D+03 -.749871109499468D+02
 0.700616414593307D+02 -.420032585235086D+01 0.184992704889418D+02 0.674445539542434D+02
 0.331125117538692D+02 0.735385044242826D+01 0.109746643091330D+02 0.303630706882944D+02
-.250418571853D-04 0.000000000000D+00 0.000000000000D+00 0.225042447771D-04 0.000000000000D+00  6 -2 1 25 -24 3 -3 4 0.24572664D-01 0.52163237D-01 0.35180364D+05 0.35180364D+05 0.35180364D+05 0.12077042D+01  1  2 13  8  6  5       21 -.512350179455D-02 0.100000000000D+01
-.281137672565D-04 0.000000000000D+00 0.000000000000D+00 0.225042447771D-04 0.000000000000D+00  6 -2 1 25 -24 3 -3 4 0.24572664D-01 0.52163237D-01 0.35180364D+05 0.35180364D+05 0.35180364D+05 0.12077042D+01  1  2 13  8  6  5       21 -.575200696674D-02 0.100000000000D+01
  </mgrwgt>
  </event>
  <event>
  5     66 -.49582427E-03 0.26879475E+02 0.75467711E-02 0.11439298E+00
       -2 -1    0    0    0  501 0.00000000E+00 0.00000000E+00 0.10628112E+03 0.10628160E+03 0.32000000E+00 0.0000E+00 0.9000E+01
        1 -1    0    0  502    0 -.00000000E+00 -.00000000E+00 -.61155276E+03 0.61155284E+03 0.32000000E+00 0.0000E+00 0.9000E+01
       25  1    1    2    0    0 0.58506493E+02 0.14115526E+03 -.45008411E+03 0.49147586E+03 0.12500000E+03 0.0000E+00 0.9000E+01
      -24  1    1    2    0    0 -.83854366E+02 -.15007040E+03 -.35601272E+02 0.19309932E+03 0.80419002E+02 0.0000E+00 0.9000E+01
       21  1    1    2  502  501 0.25347873E+02 0.89151448E+01 -.19586264E+02 0.33259265E+02 0.75000000E+00 0.0000E+00 0.9000E+01
#aMCatNLO 1  0  0  5  1 0.65106791D+01 0.00000000D+00  -5  6  0 0.00000000D+00 0.00000000D+00 0.00000000D+00 0.00000000D+00 0.00000000D+00
  <mgrwgt>
 -.5972716481D+00   20    2    0
 0.254944531019251D+03 0.000000000000000D+00 0.000000000000000D+00 0.254944531019251D+03
 0.254944531019251D+03 -.000000000000000D+00 -.000000000000000D+00 -.254944531019251D+03
 0.245902181903714D+03 0.585019152021556D+02 0.141153648794214D+03 -.146615334855420D+03
 0.236573110716937D+03 -.838587695404666D+02 -.150071952377050D+03 0.141229375983954D+03
 0.274137694178504D+02 0.253568543383111D+02 0.891830358283602D+01 0.538595887146556D+01
 0.000000000000000D+00 0.000000000000000D+00 0.000000000000000D+00 0.000000000000000D+00
 0.254944531019251D+03 0.000000000000000D+00 0.000000000000000D+00 0.254944531019251D+03
 0.254944531019251D+03 -.000000000000000D+00 -.000000000000000D+00 -.254944531019251D+03
 0.246365236945150D+03 0.599657268728910D+02 0.141668488556810D+03 -.146304411846242D+03
 0.235943765818934D+03 -.824536882939561D+02 -.149577768794665D+03 0.141527824273470D+03
 0.136484878695779D+02 0.127058211744546D+02 0.310281163922397D+01 -.390075497055256D+01
 0.139315714048404D+02 0.978214024661053D+01 0.480646859863072D+01 0.867734254332436D+01
0.941088114932D-03 0.000000000000D+00 0.000000000000D+00 0.144953536775D-04 0.000000000000D+00  6 -2 1 25 -24 21 21 2 0.16350985D-01 0.94085084D-01 0.42866506D+05 0.42866506D+05 0.42866506D+05 0.11989598D+01  1  2  2  3  6  5       21 0.120755648710D+00 0.100000000000D+01
0.270926632961D-03 0.496625842274D-04 -.361402615553D-05 0.144953536775D-04 0.000000000000D+00  6 -2 1 25 -24 21 21 4 0.16350985D-01 0.94085084D-01 0.42866506D+05 0.42866506D+05 0.42866506D+05 0.11989598D+01  1  2  3  3  6  5       21 0.499733085480D-01 0.100000000000D+01
0.112344846742D-04 0.000000000000D+00 0.000000000000D+00 0.144953536775D-04 0.000000000000D+00  6 -2 1 25 -24 21 21 4 0.16350985D-01 0.94085084D-01 0.42866506D+05 0.42866506D+05 0.42866506D+05 0.11989598D+01  1  2 15  3  6  5       21 0.207223764922D-02 0.100000000000D+01
0.237118726692D-03 0.000000000000D+00 0.000000000000D+00 0.145112898258D-04 0.000000000000D+00  6 -2 1 25 -24 21 21 4 0.16350985D-01 0.94085084D-01 0.42226431D+05 0.42226431D+05 0.42226431D+05 0.11996187D+01  1  2 12  3  6  5       21 0.438326535241D-01 0.100000000000D+01
0.238328530653D-03 0.000000000000D+00 0.000000000000D+00 0.145112898258D-04 0.000000000000D+00  6 -2 1 25 -24 21 21 4 0.16350985D-01 0.94085084D-01 0.42226431D+05 0.42226431D+05 0.42226431D+05 0.11996187D+01  1  2 12  3  6  5       21 0.440562921991D-01 0.100000000000D+01
-.642321964640D-02 0.000000000000D+00 0.000000000000D+00 0.144953536775D-04 0.000000000000D+00  6 -2 1 25 -24 21 21 4 0.16350985D-01 0.94085084D-01 0.42866506D+05 0.42866506D+05 0.42866506D+05 0.11989598D+01  1  2  4  3  6  5       21 -.118478399024D+01 0.100000000000D+01
-.861620335884D-03 0.000000000000D+00 0.000000000000D+00 0.144953536775D-04 0.000000000000D+00  6 -2 1 25 -24 21 21 4 0.16350985D-01 0.94085084D-01 0.42866506D+05 0.42866506D+05 0.42866506D+05 0.11989598D+01  1  2  5  3  6  5       21 -.158928704889D+00 0.100000000000D+01
0.252394723245D-02 0.000000000000D+00 -.000000000000D+00 0.144953536775D-04 0.000000000000D+00  6 -2 1 25 -24 21 21 4 0.16350985D-01 0.94085084D-01 0.42866506D+05 0.42866506D+05 0.42866506D+05 0.11989598D+01  1  2  6  3  6  5       21 0.465550368480D+00 0.100000000000D+01
0.151478458917D-04 0.000000000000D+00 0.000000000000D+00 0.145112898258D-04 0.000000000000D+00  6 -2 1 25 -24 1 -1 4 0.16350985D-01 0.94085084D-01 0.42226431D+05 0.42226431D+05 0.42226431D+05 0.11996187D+01  1  2 12  6  6  5       21 0.280015960726D-02 0.100000000000D+01
0.152251180970D-04 0.000000000000D+00 0.000000000000D+00 0.145112898258D-04 0.000000000000D+00  6 -2 1 25 -24 1 -1 4 0.16350985D-01 0.94085084D-01 0.42226431D+05 0.42226431D+05 0.42226431D+05 0.11996187D+01  1  2 12  6  6  5       21 0.281444378400D-02 0.100000000000D+01
-.306022691319D-05 0.000000000000D+00 0.000000000000D+00 0.144953536775D-04 0.000000000000D+00  6 -2 1 25 -24 1 -1 4 0.16350985D-01 0.94085084D-01 0.42866506D+05 0.42866506D+05 0.42866506D+05 0.11989598D+01  1  2  5  6  6  5       21 -.564468919457D-03 0.100000000000D+01
0.151478458917D-04 0.000000000000D+00 0.000000000000D+00 0.145112898258D-04 0.000000000000D+00  6 -2 1 25 -24 2 -2 4 0.16350985D-01 0.94085084D-01 0.42226431D+05 0.42226431D+05 0.42226431D+05 0.11996187D+01  1  2 12  7  6  5       21 0.280015960726D-02 0.100000000000D+01
0.152251180970D-04 0.000000000000D+00 0.000000000000D+00 0.145112898258D-04 0.000000000000D+00  6 -2 1 25 -24 2 -2 4 0.16350985D-01 0.94085084D-01 0.42226431D+05 0.42226431D+05 0.42226431D+05 0.11996187D+01  1  2 12  7  6  5       21 0.281444378400D-02 0.100000000000D+01
-.306022691319D-05 0.000000000000D+00 0.000000000000D+00 0.144953536775D-04 0.000000000000D+00  6 -2 1 25 -24 2 -2 4 0.16350985D-01 0.94085084D-01 0.42866506D+05 0.42866506D+05 0.42866506D+05 0.11989598D+01  1  2  5  7  6  5       21 -.564468919457D-03 0.100000000000D+01
0.151478458917D-04 0.000000000000D+00 0.000000000000D+00 0.145112898258D-04 0.000000000000D+00  6 -2 1 25 -24 3 -3 4 0.16350985D-01 0.94085084D-01 0.42226431D+05 0.42226431D+05 0.42226431D+05 0.11996187D+01  1  2 12  8  6  5       21 0.280015960726D-02 0.100000000000D+01
0.151478458917D-04 0.000000000000D+00 0.000000000000D+00 0.145112898258D-04 0.000000000000D+00  6 -2 1 25 -24 4 -4 4 0.16350985D-01 0.94085084D-01 0.42226431D+05 0.42226431D+05 0.42226431D+05 0.11996187D+01  1  2 12  8  6  5       21 0.280015960726D-02 0.100000000000D+01
0.152251180970D-04 0.000000000000D+00 0.000000000000D+00 0.145112898258D-04 0.000000000000D+00  6 -2 1 25 -24 3 -3 4 0.16350985D-01 0.94085084D-01 0.42226431D+05 0.42226431D+05 0.42226431D+05 0.11996187D+01  1  2 12  8  6  5       21 0.281444378400D-02 0.100000000000D+01
0.152251180970D-04 0.000000000000D+00 0.000000000000D+00 0.145112898258D-04 0.000000000000D+00  6 -2 1 25 -24 4 -4 4 0.16350985D-01 0.94085084D-01 0.42226431D+05 0.42226431D+05 0.42226431D+05 0.11996187D+01  1  2 12  8  6  5       21 0.281444378400D-02 0.100000000000D+01
-.306022691319D-05 0.000000000000D+00 0.000000000000D+00 0.144953536775D-04 0.000000000000D+00  6 -2 1 25 -24 3 -3 4 0.16350985D-01 0.94085084D-01 0.42866506D+05 0.42866506D+05 0.42866506D+05 0.11989598D+01  1  2  5  8  6  5       21 -.564468919457D-03 0.100000000000D+01
-.306022691319D-05 0.000000000000D+00 0.000000000000D+00 0.144953536775D-04 0.000000000000D+00  6 -2 1 25 -24 4 -4 4 0.16350985D-01 0.94085084D-01 0.42866506D+05 0.42866506D+05 0.42866506D+05 0.11989598D+01  1  2  5  8  6  5       21 -.564468919457D-03 0.100000000000D+01
  </mgrwgt>
  </event>
  <event>
  5     66 0.49582427E-03 0.26019463E+02 0.75467711E-02 0.11174504E+00
       -4 -1    0    0    0  501 0.00000000E+00 0.00000000E+00 0.22186225E+03 0.22186766E+03 0.15500000E+01 0.0000E+00 0.9000E+01
        3 -1    0    0  502    0 0.00000000E+00 0.00000000E+00 -.15655358E+03 0.15655438E+03 0.50000000E+00 0.0000E+00 0.9000E+01
       25  1    1    2    0    0 -.11199289E+03 0.97109544E+01 0.48653891E+02 0.17501117E+03 0.12500000E+03 0.0000E+00 0.9000E+01
      -24  1    1    2    0    0 0.93590324E+02 0.86819041E+01 0.71375232E+02 0.14281514E+03 0.80419002E+02 0.0000E+00 0.9000E+01
       21  1    1    2  502  501 0.18402561E+02 -.18392859E+02 -.54720454E+02 0.60595727E+02 0.75000000E+00 0.0000E+00 0.9000E+01
#aMCatNLO 1  0  0  1  1 0.14494662D+03 0.00000000D+00  -5  6  0 0.00000000D+00 0.00000000D+00 0.00000000D+00 0.00000000D+00 0.00000000D+00
  <mgrwgt>
 0.8801191180D-02    5    4    0
 0.186371950293428D+03 0.000000000000000D+00 0.000000000000000D+00 0.186371950293428D+03
 0.186371950293428D+03 0.000000000000000D+00 0.000000000000000D+00 -.186371950293428D+03
 0.169153020036948D+03 -.111993349580718D+03 0.971141875308646D+01 0.187329171010137D+02
 0.132485231376431D+03 0.935899598605935D+02 0.868226782935988D+01 0.474411026129007D+02
 0.711056491734770D+02 0.184033897201249D+02 -.183936865824463D+02 -.661740197139144D+02
 0.000000000000000D+00 0.000000000000000D+00 0.000000000000000D+00 0.000000000000000D+00
 0.334665627005928D+03 0.000000000000000D+00 0.000000000000000D+00 0.334665627005928D+03
 0.238960843471483D+03 0.000000000000000D+00 0.000000000000000D+00 -.238960843471483D+03
 0.223387147852219D+03 -.184118323169601D+03 -.513212584124450D+01 0.187329171010137D+02
 0.105822373808869D+03 0.498035371297802D+02 -.329114582171991D+00 0.474411026129007D+02
 0.707248965360322D+02 -.765642581009975D+01 -.237568779251265D+02 -.661740197139144D+02
 0.173692052280291D+03 0.141971211849920D+03 0.292181183485430D+02 0.957047835344455D+02
 0.186371950293428D+03 0.000000000000000D+00 0.000000000000000D+00 0.186371950293428D+03
 0.186371950293428D+03 0.000000000000000D+00 0.000000000000000D+00 -.186371950293428D+03
 0.169153020036948D+03 -.111993349580718D+03 0.971141875308646D+01 0.187329171010137D+02
 0.132485231376431D+03 0.935899598605935D+02 0.868226782935988D+01 0.474411026129007D+02
 0.000000000000000D+00 0.000000000000000D+00 0.000000000000000D+00 0.000000000000000D+00
 0.711056491734770D+02 0.184033897201249D+02 -.183936865824463D+02 -.661740197139144D+02
 0.334665627005928D+03 0.000000000000000D+00 0.000000000000000D+00 0.334665627005928D+03
 0.238960843471483D+03 0.000000000000000D+00 0.000000000000000D+00 -.238960843471483D+03
 0.223387147852219D+03 -.184118323169601D+03 -.513212584124450D+01 0.187329171010137D+02
 0.105822373808869D+03 0.498035371297802D+02 -.329114582171991D+00 0.474411026129007D+02
 0.173692052280291D+03 0.141971211849920D+03 0.292181183485430D+02 0.957047835344455D+02
 0.707248965360322D+02 -.765642581009975D+01 -.237568779251265D+02 -.661740197139144D+02
0.198904968594D-03 0.000000000000D+00 0.000000000000D+00 0.314790502300D-04 0.000000000000D+00  6 -4 3 25 -24 21 21 2 0.34133131D-01 0.24085644D-01 0.25254286D+05 0.25254286D+05 0.25254286D+05 0.12228267D+01  1  2  2  1  6  1       -4 0.800570204289D-02 0.100000000000D+01
0.292046872959D-04 0.104965035679D-04 -.763847452283D-06 0.314790502300D-04 0.000000000000D+00  6 -4 3 25 -24 21 21 4 0.34133131D-01 0.24085644D-01 0.25254286D+05 0.25254286D+05 0.25254286D+05 0.12228267D+01  1  2  3  1  6  1       -4 0.175766533565D-02 0.100000000000D+01
0.646980907532D-05 0.000000000000D+00 0.000000000000D+00 0.314790502300D-04 0.000000000000D+00  6 -4 3 25 -24 21 21 4 0.34133131D-01 0.24085644D-01 0.25254286D+05 0.25254286D+05 0.25254286D+05 0.12228267D+01  1  2 15  1  6  1       -4 0.389381301186D-03 0.100000000000D+01
-.853290417631D-04 0.000000000000D+00 -.968073249645D-04 0.314790502300D-04 0.000000000000D+00  6 -4 3 25 -24 21 21 4 0.75503074D-01 0.24085644D-01 0.25254286D+05 0.25254286D+05 0.25254286D+05 0.12228267D+01  1  2  5  1  6  1       -4 -.100605521375D-02 0.100000000000D+01
-.124100844442D-05 0.000000000000D+00 -.833374921433D-05 0.314790502300D-04 0.000000000000D+00  6 21 3 25 -24 4 21 4 0.75503074D-01 0.24085644D-01 0.25254286D+05 0.25254286D+05 0.25254286D+05 0.12228267D+01  3  4  5  4  5  1       -4 -.345502285915D-03 0.100000000000D+01
  </mgrwgt>
  </event>
  <event>
  5     66 -.49582427E-03 0.20469632E+02 0.75467711E-02 0.11527893E+00
       -2 -1    0    0    0  501 0.00000000E+00 0.00000000E+00 0.44651270E+02 0.44652417E+02 0.32000000E+00 0.0000E+00 0.9000E+01
        1 -1    0    0  502    0 -.00000000E+00 -.00000000E+00 -.10635569E+04 0.10635569E+04 0.32000000E+00 0.0000E+00 0.9000E+01
       25  1    1    2    0    0 -.13265552E+03 -.56432193E+02 -.71474473E+03 0.73977504E+03 0.12500000E+03 0.0000E+00 0.9000E+01
      -24  1    1    2    0    0 0.14606259E+03 0.71894187E+02 -.29405179E+03 0.34559619E+03 0.80419002E+02 0.0000E+00 0.9000E+01
       21  1    1    2  502  501 -.13407069E+02 -.15461995E+02 -.10109061E+02 0.22838091E+02 0.75000000E+00 0.0000E+00 0.9000E+01
#aMCatNLO 1  0  0  5  2 0.26911774D+01 0.00000000D+00  -5  6  0 0.00000000D+00 0.00000000D+00 0.00000000D+00 0.00000000D+00 0.00000000D+00
  <mgrwgt>
 -.3283337146D-01    1    2    0
 0.217921605530635D+03 0.000000000000000D+00 0.000000000000000D+00 0.217921605530635D+03
 0.217921605530635D+03 -.000000000000000D+00 -.000000000000000D+00 -.217921605530635D+03
 0.210094229022087D+03 -.132653983266598D+03 -.564304244332616D+02 -.879381202333342D+02
 0.191312458333641D+03 0.146063981759446D+03 0.718957975734517D+02 0.602457324890666D+02
 0.344365237055423D+02 -.134099984928482D+02 -.154653731401902D+02 0.276923877442677D+02
 0.000000000000000D+00 0.000000000000000D+00 0.000000000000000D+00 0.000000000000000D+00
 0.217921605530635D+03 0.000000000000000D+00 0.000000000000000D+00 0.217921605530635D+03
 0.217921605530635D+03 -.000000000000000D+00 -.000000000000000D+00 -.217921605530635D+03
 0.210235075364999D+03 -.134075492527108D+03 -.580698109811240D+02 -.850026250768570D+02
 0.190633985731481D+03 0.144772279273822D+03 0.704061135189049D+02 0.629131694840241D+02
 0.252603297897393D+02 -.775871669905389D+01 -.185804258255792D+02 0.152530112571375D+02
 0.971382017505163D+01 -.293807004765938D+01 0.624412328779827D+01 0.683644433569544D+01
-.103466453830D-03 0.000000000000D+00 0.000000000000D+00 0.352806115496D-04 0.000000000000D+00  6 -2 1 25 -24 21 21 4 0.68695180D-02 0.16362422D+00 0.38583441D+05 0.38583441D+05 0.38583441D+05 0.12035937D+01  1  2 14  3  6  5       21 -.328333714578D-01 0.100000000000D+01
  </mgrwgt>
  </event>
  <event>
  5     66 0.49582427E-03 0.24349131E+02 0.75467711E-02 0.12220395E+00
       -2 -1    0    0    0  501 0.00000000E+00 0.00000000E+00 0.12406958E+03 0.12406999E+03 0.32000000E+00 0.0000E+00 0.9000E+01
        1 -1    0    0  502    0 0.00000000E+00 0.00000000E+00 -.14072665E+03 0.14072701E+03 0.32000000E+00 0.0000E+00 0.9000E+01
       25  1    1    2    0    0 0.12307793E+01 0.33275319E+02 -.36762590E+02 0.13448141E+03 0.12500000E+03 0.0000E+00 0.9000E+01
      -24  1    1    2    0    0 0.22857875E+02 -.36802912E+02 -.96586422E+01 0.91855550E+02 0.80419002E+02 0.0000E+00 0.9000E+01
       21  1    1    2  502  501 -.24088654E+02 0.35275937E+01 0.29764165E+02 0.38460047E+02 0.75000000E+00 0.0000E+00 0.9000E+01
#aMCatNLO 1  0  0  1  2 0.22287918D+02 0.00000000D+00  -5  6  0 0.00000000D+00 0.00000000D+00 0.00000000D+00 0.00000000D+00 0.00000000D+00
  <mgrwgt>
 0.5722722306D-01    7    4    0
 0.132136290591582D+03 0.000000000000000D+00 0.000000000000000D+00 0.132136290591582D+03
 0.132136290591582D+03 0.000000000000000D+00 0.000000000000000D+00 -.132136290591582D+03
 0.132431674429181D+03 0.123285862810055D+01 0.332750141221398D+02 -.283619796010616D+02
 0.914295720437016D+02 0.228593105883046D+02 -.368031225786155D+02 -.389008709603208D+01
 0.404113347102807D+02 -.240921692164052D+02 0.352810845647566D+01 0.322520666970937D+02
 0.000000000000000D+00 -.000000000000000D+00 0.000000000000000D+00 0.000000000000000D+00
 0.159603959975127D+03 0.000000000000000D+00 0.000000000000000D+00 0.159603959975127D+03
 0.137205172452345D+03 0.000000000000000D+00 0.000000000000000D+00 -.137205172452345D+03
 0.130529923908803D+03 0.680864138470420D+01 0.237128984150266D+02 -.283619796010616D+02
 0.954065874246548D+02 0.268209454538440D+02 -.435970764730272D+02 -.389008709603208D+01
 0.392742510300280D+02 -.224025327153766D+02 0.630488439508106D+00 0.322520666970937D+02
 0.315983700639860D+02 -.112270541231716D+02 0.192536896184925D+02 0.223987875227820D+02
 0.132136290591582D+03 0.000000000000000D+00 0.000000000000000D+00 0.132136290591582D+03
 0.132136290591582D+03 0.000000000000000D+00 0.000000000000000D+00 -.132136290591582D+03
 0.132431674429181D+03 0.123285862810055D+01 0.332750141221398D+02 -.283619796010616D+02
 0.914295720437016D+02 0.228593105883046D+02 -.368031225786155D+02 -.389008709603208D+01
 0.000000000000000D+00 -.000000000000000D+00 0.000000000000000D+00 0.000000000000000D+00
 0.404113347102807D+02 -.240921692164052D+02 0.352810845647566D+01 0.322520666970937D+02
 0.159603959975127D+03 0.000000000000000D+00 0.000000000000000D+00 0.159603959975127D+03
 0.137205172452345D+03 0.000000000000000D+00 0.000000000000000D+00 -.137205172452345D+03
 0.130529923908803D+03 0.680864138470420D+01 0.237128984150266D+02 -.283619796010616D+02
 0.954065874246548D+02 0.268209454538440D+02 -.435970764730272D+02 -.389008709603208D+01
 0.315983700639860D+02 -.112270541231716D+02 0.192536896184925D+02 0.223987875227820D+02
 0.392742510300280D+02 -.224025327153766D+02 0.630488439508106D+00 0.322520666970937D+02
0.101535944313D-03 0.000000000000D+00 0.000000000000D+00 0.442215746500D-04 0.000000000000D+00  6 -2 1 25 -24 21 21 2 0.19087688D-01 0.21650313D-01 0.15012975D+05 0.15012975D+05 0.15012975D+05 0.12477797D+01  1  2  2  1  6  1       -2 0.691191598633D-01 0.100000000000D+01
0.111247662767D-04 0.535819898961D-05 -.389924761190D-06 0.442215746500D-04 0.000000000000D+00  6 -2 1 25 -24 21 21 4 0.19087688D-01 0.21650313D-01 0.15012975D+05 0.15012975D+05 0.15012975D+05 0.12477797D+01  1  2  3  1  6  1       -2 0.117908573523D-01 0.100000000000D+01
0.526991182767D-05 0.000000000000D+00 0.000000000000D+00 0.442215746500D-04 0.000000000000D+00  6 -2 1 25 -24 21 21 4 0.19087688D-01 0.21650313D-01 0.15012975D+05 0.15012975D+05 0.15012975D+05 0.12477797D+01  1  2 15  1  6  1       -2 0.558544575890D-02 0.100000000000D+01
-.669882611461D-04 0.000000000000D+00 0.000000000000D+00 0.442215746500D-04 0.000000000000D+00  6 -2 1 25 -24 21 21 4 0.19087688D-01 0.21650313D-01 0.15012975D+05 0.15012975D+05 0.15012975D+05 0.12477797D+01  1  2  4  1  6  1       -2 -.709991573578D-01 0.100000000000D+01
-.548014912244D-03 0.000000000000D+00 -.106213345126D-03 0.442215746500D-04 0.000000000000D+00  6 -2 1 25 -24 21 21 4 0.23835146D-01 0.21650313D-01 0.15012975D+05 0.15012975D+05 0.15012975D+05 0.12477797D+01  1  2  5  1  6  1       -2 -.397867910233D+00 0.100000000000D+01
0.560295691525D-03 0.000000000000D+00 0.103646060277D-03 0.442215746500D-04 0.000000000000D+00  6 -2 1 25 -24 21 21 4 0.19087688D-01 0.21650313D-01 0.15012975D+05 0.15012975D+05 0.15012975D+05 0.12477797D+01  1  2  6  1  6  1       -2 0.593843179221D+00 0.100000000000D+01
-.155205857351D-04 0.000000000000D+00 -.329155066158D-05 0.442215746500D-04 0.000000000000D+00  6 21 1 25 -24 2 21 4 0.23835146D-01 0.21650313D-01 0.15012975D+05 0.15012975D+05 0.15012975D+05 0.12477797D+01  3  4  5  4  5  1       -2 -.154244351542D+00 0.100000000000D+01
  </mgrwgt>
  </event>
  <event>
  5     66 -.49582427E-03 0.37054173E+02 0.75467711E-02 0.11386221E+00
       -2 -1    0    0    0  501 0.00000000E+00 0.00000000E+00 0.61012737E+03 0.61012746E+03 0.32000000E+00 0.0000E+00 0.9000E+01
        1 -1    0    0  502    0 0.00000000E+00 0.00000000E+00 -.85470513E+02 0.85471112E+02 0.32000000E+00 0.0000E+00 0.9000E+01
       25  1    1    2    0    0 -.16370438E+03 -.78491676E+02 0.15422014E+03 0.26901472E+03 0.12500000E+03 0.0000E+00 0.9000E+01
      -24  1    1    2    0    0 0.12668532E+03 0.80012847E+02 0.26545551E+03 0.31525398E+03 0.80419002E+02 0.0000E+00 0.9000E+01
       21  1    1    2  502  501 0.37019051E+02 -.15211713E+01 0.10498121E+03 0.11132987E+03 0.75000000E+00 0.0000E+00 0.9000E+01
#aMCatNLO 1  0  0  5  1 0.42773947D+00 0.00000000D+00  -5  6  0 0.00000000D+00 0.00000000D+00 0.00000000D+00 0.00000000D+00 0.00000000D+00
  <mgrwgt>
 -.1421941486D+00   15    2    0
 0.228359665721715D+03 0.000000000000000D+00 0.000000000000000D+00 0.228359665721715D+03
 0.228359665721715D+03 -.000000000000000D+00 -.000000000000000D+00 -.228359665721715D+03
 0.232559834462402D+03 -.163706587390051D+03 -.784915849118914D+02 -.741505289819484D+02
 0.175198337322783D+03 0.126683658408239D+03 0.800129155273067D+02 0.421476628939480D+02
 0.489611596582453D+02 0.370229289818121D+02 -.152133061541534D+01 0.320028660880004D+02
 0.000000000000000D+00 0.000000000000000D+00 0.000000000000000D+00 0.000000000000000D+00
 0.228359665721715D+03 0.000000000000000D+00 0.000000000000000D+00 0.228359665721715D+03
 0.228359665721715D+03 -.000000000000000D+00 -.000000000000000D+00 -.228359665721715D+03
 0.232555431982003D+03 -.163702028390137D+03 -.784917722483970D+02 -.741465881520962D+02
 0.175201470618810D+03 0.126687092982010D+03 0.800127743952469D+02 0.421506317623619D+02
 0.961902885255851D+01 0.753119687311628D+01 -.422610628040783D+00 0.596893541444236D+01
 0.393433999900591D+02 0.294837385350113D+02 -.109839151880907D+01 0.260270209752919D+02
0.684052295054D-04 0.000000000000D+00 0.000000000000D+00 0.112408440857D-04 0.000000000000D+00  6 -2 1 25 -24 21 21 2 0.93865802D-01 0.13149362D-01 0.45695264D+05 0.45695264D+05 0.45695264D+05 0.11961735D+01  1  2  2  3  6  5       21 0.378470142781D-02 0.100000000000D+01
0.109054482192D-04 0.360984313584D-05 -.262694092811D-06 0.112408440857D-04 0.000000000000D+00  6 -2 1 25 -24 21 21 4 0.93865802D-01 0.13149362D-01 0.45695264D+05 0.45695264D+05 0.45695264D+05 0.11961735D+01  1  2  3  3  6  5       21 0.863324697782D-03 0.100000000000D+01
0.803597432483D-06 0.000000000000D+00 0.000000000000D+00 0.112408440857D-04 0.000000000000D+00  6 -2 1 25 -24 21 21 4 0.93865802D-01 0.13149362D-01 0.45695264D+05 0.45695264D+05 0.45695264D+05 0.11961735D+01  1  2 15  3  6  5       21 0.636164141623D-04 0.100000000000D+01
-.335319879381D-01 0.000000000000D+00 0.000000000000D+00 0.112408440857D-04 0.000000000000D+00  6 -2 1 25 -24 21 21 4 0.93865802D-01 0.13149362D-01 0.45695264D+05 0.45695264D+05 0.45695264D+05 0.11961735D+01  1  2  4  3  6  5       21 -.265454411143D+01 0.100000000000D+01
-.369020468676D-02 0.000000000000D+00 0.000000000000D+00 0.112408440857D-04 0.000000000000D+00  6 -2 1 25 -24 21 21 4 0.93865802D-01 0.13149362D-01 0.45695264D+05 0.45695264D+05 0.45695264D+05 0.11961735D+01  1  2  5  3  6  5       21 -.292133324731D+00 0.100000000000D+01
0.318700954063D-01 0.000000000000D+00 -.000000000000D+00 0.112408440857D-04 0.000000000000D+00  6 -2 1 25 -24 21 21 4 0.93865802D-01 0.13149362D-01 0.45695264D+05 0.45695264D+05 0.45695264D+05 0.11961735D+01  1  2  6  3  6  5       21 0.252298116794D+01 0.100000000000D+01
0.357688111647D-02 0.000000000000D+00 0.000000000000D+00 0.112408440857D-04 0.373359792712D-03  6 -2 1 25 -24 21 21 4 0.93865802D-01 0.13149362D-01 0.45693605D+05 0.45693605D+05 0.45693605D+05 0.11961750D+01  1  2 11  3  6  5       21 0.283163543461D+00 0.100000000000D+01
-.523367281303D-03 0.000000000000D+00 0.000000000000D+00 0.112408440857D-04 0.000000000000D+00  6 -2 1 25 -24 1 -1 4 0.93865802D-01 0.13149362D-01 0.45695264D+05 0.45695264D+05 0.45695264D+05 0.11961735D+01  1  2  5  6  6  5       21 -.414321255651D-01 0.100000000000D+01
0.502605243698D-03 0.000000000000D+00 0.000000000000D+00 0.112408440857D-04 0.548972200817D-05  6 -2 1 25 -24 1 -1 4 0.93865802D-01 0.13149362D-01 0.45693605D+05 0.45693605D+05 0.45693605D+05 0.11961750D+01  1  2 11  6  6  5       21 0.397887089711D-01 0.100000000000D+01
-.523367281303D-03 0.000000000000D+00 0.000000000000D+00 0.112408440857D-04 0.000000000000D+00  6 -2 1 25 -24 2 -2 4 0.93865802D-01 0.13149362D-01 0.45695264D+05 0.45695264D+05 0.45695264D+05 0.11961735D+01  1  2  5  7  6  5       21 -.414321255651D-01 0.100000000000D+01
0.503900017889D-03 0.000000000000D+00 0.000000000000D+00 0.112408440857D-04 0.550386726906D-05  6 -2 1 25 -24 2 -2 4 0.93865802D-01 0.13149362D-01 0.45693605D+05 0.45693605D+05 0.45693605D+05 0.11961750D+01  1  2 11  7  6  5       21 0.398912096794D-01 0.100000000000D+01
-.523367281303D-03 0.000000000000D+00 0.000000000000D+00 0.112408440857D-04 0.000000000000D+00  6 -2 1 25 -24 3 -3 4 0.93865802D-01 0.13149362D-01 0.45695264D+05 0.45695264D+05 0.45695264D+05 0.11961735D+01  1  2  5  8  6  5       21 -.414321255651D-01 0.100000000000D+01
-.523367281303D-03 0.000000000000D+00 0.000000000000D+00 0.112408440857D-04 0.000000000000D+00  6 -2 1 25 -24 4 -4 4 0.93865802D-01 0.13149362D-01 0.45695264D+05 0.45695264D+05 0.45695264D+05 0.11961735D+01  1  2  5  8  6  5       21 -.414321255651D-01 0.100000000000D+01
0.503224831473D-03 0.000000000000D+00 0.000000000000D+00 0.112408440857D-04 0.549647805391D-05  6 -2 1 25 -24 3 -3 4 0.93865802D-01 0.13149362D-01 0.45693605D+05 0.45693605D+05 0.45693605D+05 0.11961750D+01  1  2 11  8  6  5       21 0.398377585940D-01 0.100000000000D+01
0.503224831473D-03 0.000000000000D+00 0.000000000000D+00 0.112408440857D-04 0.549647805391D-05  6 -2 1 25 -24 4 -4 4 0.93865802D-01 0.13149362D-01 0.45693605D+05 0.45693605D+05 0.45693605D+05 0.11961750D+01  1  2 11  8  6  5       21 0.398377585940D-01 0.100000000000D+01
  </mgrwgt>
  </event>
  <event>
  5     66 0.49582427E-03 0.10153171E+03 0.75467711E-02 0.11366447E+00
       -2 -1    0    0    0  501 0.00000000E+00 0.00000000E+00 0.38026621E+02 0.38027968E+02 0.32000000E+00 0.0000E+00 0.9000E+01
        1 -1    0    0  502    0 -.00000000E+00 -.00000000E+00 -.15166922E+04 0.15166922E+04 0.32000000E+00 0.0000E+00 0.9000E+01
       25  1    1    2    0    0 -.84289193E+02 -.15230188E+03 -.44694089E+03 0.49566288E+03 0.12500000E+03 0.0000E+00 0.9000E+01
      -24  1    1    2    0    0 0.14152906E+02 0.59609807E+02 -.26607619E+03 0.28463554E+03 0.80419002E+02 0.0000E+00 0.9000E+01
       21  1    1    2  502  501 0.70136287E+02 0.92692069E+02 -.76564851E+03 0.77442180E+03 0.75000000E+00 0.0000E+00 0.9000E+01
#aMCatNLO 1  0  0  5  1 0.87800025D+01 0.00000000D+00  -5  6  0 0.00000000D+00 0.00000000D+00 0.00000000D+00 0.00000000D+00 0.00000000D+00
  <mgrwgt>
 0.2690471519D-01   25    2    0
 0.240157767527384D+03 0.000000000000000D+00 0.000000000000000D+00 0.240157767527384D+03
 0.240157767527384D+03 -.000000000000000D+00 -.000000000000000D+00 -.240157767527384D+03
 0.228477568767974D+03 -.842896125023286D+02 -.152302429433363D+03 0.792226649578693D+02
 0.102205420839424D+03 0.141527190229811D+02 0.596095590515547D+02 0.150044362949409D+02
 0.149632545447371D+03 0.701368934793475D+02 0.926928703818085D+02 -.942271012528102D+02
 0.000000000000000D+00 0.000000000000000D+00 0.000000000000000D+00 -.000000000000000D+00
 0.240157767527384D+03 0.000000000000000D+00 0.000000000000000D+00 0.240157767527384D+03
 0.240157767527384D+03 -.000000000000000D+00 -.000000000000000D+00 -.240157767527384D+03
 0.227724337723705D+03 -.838502005223876D+02 -.151721702861650D+03 0.786323263347623D+02
 0.102346477045042D+03 0.143497426503949D+02 0.598699453425929D+02 0.147397401504647D+02
 0.126253234603544D+03 0.660523529815683D+02 0.727438581045861D+02 -.792798651708982D+02
 0.239914856824765D+02 0.344810489042438D+01 0.191078994144709D+02 -.140922013143287D+02
0.397858921348D-04 0.000000000000D+00 0.000000000000D+00 0.170139629029D-05 0.000000000000D+00  6 -2 1 25 -24 21 21 2 0.58503556D-02 0.23333737D+00 0.46577951D+05 0.46577951D+05 0.46577951D+05 0.11953431D+01  1  2  2  3  6  5       21 0.538847337625D-02 0.100000000000D+01
-.245447521392D-05 0.209955921009D-05 -.152788301664D-06 0.170139629029D-05 0.000000000000D+00  6 -2 1 25 -24 21 21 4 0.58503556D-02 0.23333737D+00 0.46577951D+05 0.46577951D+05 0.46577951D+05 0.11953431D+01  1  2  3  3  6  5       21 -.474985625697D-03 0.100000000000D+01
0.241193946725D-05 0.000000000000D+00 0.000000000000D+00 0.170139629029D-05 0.000000000000D+00  6 -2 1 25 -24 21 21 4 0.58503556D-02 0.23333737D+00 0.46577951D+05 0.46577951D+05 0.46577951D+05 0.11953431D+01  1  2 15  3  6  5       21 0.466754184560D-03 0.100000000000D+01
0.388782631491D-03 0.000000000000D+00 0.000000000000D+00 0.170080642337D-05 0.000000000000D+00  6 -2 1 25 -24 21 21 4 0.58503556D-02 0.23333737D+00 0.46801190D+05 0.46801190D+05 0.46801190D+05 0.11951359D+01  1  2 12  3  6  5       21 0.751813629274D-01 0.100000000000D+01
0.367175400591D-03 0.000000000000D+00 0.000000000000D+00 0.170080642337D-05 0.000000000000D+00  6 -2 1 25 -24 21 21 4 0.58503556D-02 0.23333737D+00 0.46801190D+05 0.46801190D+05 0.46801190D+05 0.11951359D+01  1  2 12  3  6  5       21 0.710030356656D-01 0.100000000000D+01
-.768118371028D-03 0.000000000000D+00 0.000000000000D+00 0.170139629029D-05 0.000000000000D+00  6 -2 1 25 -24 21 21 4 0.58503556D-02 0.23333737D+00 0.46577951D+05 0.46577951D+05 0.46577951D+05 0.11953431D+01  1  2  4  3  6  5       21 -.148644884660D+00 0.100000000000D+01
-.738649686920D-03 0.000000000000D+00 0.000000000000D+00 0.170139629029D-05 0.000000000000D+00  6 -2 1 25 -24 21 21 4 0.58503556D-02 0.23333737D+00 0.46577951D+05 0.46577951D+05 0.46577951D+05 0.11953431D+01  1  2  5  3  6  5       21 -.142942157950D+00 0.100000000000D+01
0.872296637990D-03 0.000000000000D+00 -.000000000000D+00 0.170139629029D-05 0.000000000000D+00  6 -2 1 25 -24 21 21 4 0.58503556D-02 0.23333737D+00 0.46577951D+05 0.46577951D+05 0.46577951D+05 0.11953431D+01  1  2  6  3  6  5       21 0.168805275376D+00 0.100000000000D+01
0.316151960230D-06 0.000000000000D+00 0.000000000000D+00 0.170139629029D-05 0.128792153061D-06  6 -2 1 25 -24 21 21 4 0.58503556D-02 0.23333737D+00 0.46801190D+05 0.46801190D+05 0.46801190D+05 0.11951359D+01  1  2 11  3  6  5       21 0.611363094363D-04 0.100000000000D+01
0.432313575548D-05 0.000000000000D+00 0.000000000000D+00 0.170080642337D-05 0.000000000000D+00  6 -2 1 25 -24 1 -1 4 0.58503556D-02 0.23333737D+00 0.46801190D+05 0.46801190D+05 0.46801190D+05 0.11951359D+01  1  2 12  6  6  5       21 0.835992176326D-03 0.100000000000D+01
0.420102546610D-05 0.000000000000D+00 0.000000000000D+00 0.170080642337D-05 0.000000000000D+00  6 -2 1 25 -24 1 -1 4 0.58503556D-02 0.23333737D+00 0.46801190D+05 0.46801190D+05 0.46801190D+05 0.11951359D+01  1  2 12  6  6  5       21 0.812378935301D-03 0.100000000000D+01
-.110284509736D-04 0.000000000000D+00 0.000000000000D+00 0.170139629029D-05 0.000000000000D+00  6 -2 1 25 -24 1 -1 4 0.58503556D-02 0.23333737D+00 0.46577951D+05 0.46577951D+05 0.46577951D+05 0.11953431D+01  1  2  5  6  6  5       21 -.213420598279D-02 0.100000000000D+01
0.527069490594D-08 0.000000000000D+00 0.000000000000D+00 0.170139629029D-05 0.396291524719D-08  6 -2 1 25 -24 1 -1 4 0.58503556D-02 0.23333737D+00 0.46801190D+05 0.46801190D+05 0.46801190D+05 0.11951359D+01  1  2 11  6  6  5       21 0.101922769822D-05 0.100000000000D+01
0.432313575548D-05 0.000000000000D+00 0.000000000000D+00 0.170080642337D-05 0.000000000000D+00  6 -2 1 25 -24 2 -2 4 0.58503556D-02 0.23333737D+00 0.46801190D+05 0.46801190D+05 0.46801190D+05 0.11951359D+01  1  2 12  7  6  5       21 0.835992176326D-03 0.100000000000D+01
0.420102546610D-05 0.000000000000D+00 0.000000000000D+00 0.170080642337D-05 0.000000000000D+00  6 -2 1 25 -24 2 -2 4 0.58503556D-02 0.23333737D+00 0.46801190D+05 0.46801190D+05 0.46801190D+05 0.11951359D+01  1  2 12  7  6  5       21 0.812378935301D-03 0.100000000000D+01
-.110284509736D-04 0.000000000000D+00 0.000000000000D+00 0.170139629029D-05 0.000000000000D+00  6 -2 1 25 -24 2 -2 4 0.58503556D-02 0.23333737D+00 0.46577951D+05 0.46577951D+05 0.46577951D+05 0.11953431D+01  1  2  5  7  6  5       21 -.213420598279D-02 0.100000000000D+01
0.522379755960D-08 0.000000000000D+00 0.000000000000D+00 0.170139629029D-05 0.393374117401D-08  6 -2 1 25 -24 2 -2 4 0.58503556D-02 0.23333737D+00 0.46801190D+05 0.46801190D+05 0.46801190D+05 0.11951359D+01  1  2 11  7  6  5       21 0.101015886096D-05 0.100000000000D+01
0.432313575548D-05 0.000000000000D+00 0.000000000000D+00 0.170080642337D-05 0.000000000000D+00  6 -2 1 25 -24 3 -3 4 0.58503556D-02 0.23333737D+00 0.46801190D+05 0.46801190D+05 0.46801190D+05 0.11951359D+01  1  2 12  8  6  5       21 0.835992176326D-03 0.100000000000D+01
0.432313575548D-05 0.000000000000D+00 0.000000000000D+00 0.170080642337D-05 0.000000000000D+00  6 -2 1 25 -24 4 -4 4 0.58503556D-02 0.23333737D+00 0.46801190D+05 0.46801190D+05 0.46801190D+05 0.11951359D+01  1  2 12  8  6  5       21 0.835992176326D-03 0.100000000000D+01
0.420102546610D-05 0.000000000000D+00 0.000000000000D+00 0.170080642337D-05 0.000000000000D+00  6 -2 1 25 -24 3 -3 4 0.58503556D-02 0.23333737D+00 0.46801190D+05 0.46801190D+05 0.46801190D+05 0.11951359D+01  1  2 12  8  6  5       21 0.812378935301D-03 0.100000000000D+01
0.420102546610D-05 0.000000000000D+00 0.000000000000D+00 0.170080642337D-05 0.000000000000D+00  6 -2 1 25 -24 4 -4 4 0.58503556D-02 0.23333737D+00 0.46801190D+05 0.46801190D+05 0.46801190D+05 0.11951359D+01  1  2 12  8  6  5       21 0.812378935301D-03 0.100000000000D+01
-.110284509736D-04 0.000000000000D+00 0.000000000000D+00 0.170139629029D-05 0.000000000000D+00  6 -2 1 25 -24 3 -3 4 0.58503556D-02 0.23333737D+00 0.46577951D+05 0.46577951D+05 0.46577951D+05 0.11953431D+01  1  2  5  8  6  5       21 -.213420598279D-02 0.100000000000D+01
-.110284509736D-04 0.000000000000D+00 0.000000000000D+00 0.170139629029D-05 0.000000000000D+00  6 -2 1 25 -24 4 -4 4 0.58503556D-02 0.23333737D+00 0.46577951D+05 0.46577951D+05 0.46577951D+05 0.11953431D+01  1  2  5  8  6  5       21 -.213420598279D-02 0.100000000000D+01
0.521180558356D-08 0.000000000000D+00 0.000000000000D+00 0.170139629029D-05 0.390221699470D-08  6 -2 1 25 -24 3 -3 4 0.58503556D-02 0.23333737D+00 0.46801190D+05 0.46801190D+05 0.46801190D+05 0.11951359D+01  1  2 11  8  6  5       21 0.100783989651D-05 0.100000000000D+01
0.521180558356D-08 0.000000000000D+00 0.000000000000D+00 0.170139629029D-05 0.390221699470D-08  6 -2 1 25 -24 4 -4 4 0.58503556D-02 0.23333737D+00 0.46801190D+05 0.46801190D+05 0.46801190D+05 0.11951359D+01  1  2 11  8  6  5       21 0.100783989651D-05 0.100000000000D+01
  </mgrwgt>
  </event>
  <event>
  6     66 0.49582427E-03 0.70281736E+02 0.75467711E-02 0.11996870E+00
       21 -1    0    0  503  501 0.00000000E+00 0.00000000E+00 0.19345138E+04 0.19345140E+04 0.75000000E+00 0.0000E+00 0.9000E+01
        1 -1    0    0  502    0 0.00000000E+00 0.00000000E+00 -.38507495E+02 0.38508825E+02 0.32000000E+00 0.0000E+00 0.9000E+01
       25  1    1    2    0    0 0.37506008E+02 -.53848085E+01 0.11522129E+03 0.17417418E+03 0.12500000E+03 0.0000E+00 0.9000E+01
      -24  1    1    2    0    0 0.22451938E+02 0.35839488E+02 0.32985975E+03 0.34214504E+03 0.80419002E+02 0.0000E+00 0.9000E+01
        2  1    1    2  503    0 0.48899566E+01 0.40490389E+01 0.32018735E+01 0.71176390E+01 0.32000000E+00 0.0000E+00 0.9000E+01
       21  1    1    2  502  501 -.64847903E+02 -.34503718E+02 0.14477234E+04 0.14495859E+04 0.75000000E+00 0.0000E+00 0.9000E+01
#aMCatNLO 2  0  0  1  1 0.63487315D+01 0.00000000D+00  -5  6  0 0.00000000D+00 0.00000000D+00 0.00000000D+00 0.00000000D+00 0.00000000D+00
  <mgrwgt>
 0.6703645258D-02    1    2    0
 0.265534397689918D+03 0.000000000000000D+00 0.000000000000000D+00 0.265534397689918D+03
 0.265534397689918D+03 0.000000000000000D+00 0.000000000000000D+00 -.265534397689918D+03
 0.234395987233217D+03 0.396628966026511D+02 -.359889269217817D+01 -.194243098810516D+03
 0.913622038474680D+02 0.232909822951786D+02 0.365342209893165D+02 0.161776942894174D+01
 0.000000000000000D+00 0.000000000000000D+00 0.000000000000000D+00 -.000000000000000D+00
 0.205310604299152D+03 -.629538788978297D+02 -.329353282971383D+02 0.192625329381574D+03
 0.266261841794053D+03 0.000000000000000D+00 0.000000000000000D+00 0.266261841794053D+03
 0.279776400215611D+03 0.000000000000000D+00 0.000000000000000D+00 -.279776400215611D+03
 0.234074968261500D+03 0.375061884496225D+02 -.538471532131550D+01 -.194243098810516D+03
 0.908757255360124D+02 0.224520102661073D+02 0.358395255885387D+02 0.161776942894174D+01
 0.149314996145043D+02 0.488995660328115D+01 0.404903887685328D+01 -.135145584215578D+02
 0.206156048597648D+03 -.648481553190110D+02 -.345038491440765D+02 0.192625329381574D+03
0.577905698335D-04 0.000000000000D+00 0.000000000000D+00 0.733323809078D-05 0.707826170931D-08  6 21 1 25 -24 2 21 4 0.29761571D+00 0.59243054D-02 0.22692833D+05 0.22692833D+05 0.22692833D+05 0.12278319D+01  1  2  1  4  5  1       -2 0.670364525819D-02 0.100000000000D+01
  </mgrwgt>
  </event>
  <event>
  6     66 -.49582427E-03 0.77085593E+01 0.75467711E-02 0.12423833E+00
       -2 -1    0    0    0  501 0.00000000E+00 0.00000000E+00 0.15155386E+02 0.15158764E+02 0.32000000E+00 0.0000E+00 0.9000E+01
        1 -1    0    0  502    0 -.00000000E+00 -.00000000E+00 -.13698681E+04 0.13698681E+04 0.32000000E+00 0.0000E+00 0.9000E+01
       25  1    1    2    0    0 0.41649693E+01 0.32977140E+02 -.94129047E+03 0.95013556E+03 0.12500000E+03 0.0000E+00 0.9000E+01
      -24  1    1    2    0    0 -.21845030E+02 -.36755547E+02 -.19394348E+03 0.21426494E+03 0.80419002E+02 0.0000E+00 0.9000E+01
       21  1    1    2  502  503 0.70654439E+01 0.25584937E+01 -.16085788E+03 0.16103505E+03 0.75000000E+00 0.0000E+00 0.9000E+01
       21  1    1    2  503  501 0.10614617E+02 0.12199132E+01 -.58620839E+02 0.59591305E+02 0.75000000E+00 0.0000E+00 0.9000E+01
#aMCatNLO 2  0  0  5  2 0.64970416D+01 0.00000000D+00  -5  6  0 0.00000000D+00 0.00000000D+00 0.00000000D+00 0.00000000D+00 0.00000000D+00
  <mgrwgt>
 -.1249023149D+00    3    2    0
 0.144094565666993D+03 0.000000000000000D+00 0.000000000000000D+00 0.144094565666993D+03
 0.144094565666993D+03 -.000000000000000D+00 -.000000000000000D+00 -.144094565666993D+03
 0.140977563408558D+03 0.302568808503065D+01 0.327336645712506D+02 -.562941009339613D+02
 0.118918649137221D+03 -.228007506071349D+02 -.369597945017867D+02 0.760823798286296D+02
 0.282929187882070D+02 0.197750625221042D+02 0.422612993053610D+01 -.197882788946682D+02
 0.000000000000000D+00 0.000000000000000D+00 0.000000000000000D+00 0.000000000000000D+00
 0.144094565666993D+03 0.000000000000000D+00 0.000000000000000D+00 0.144094565666993D+03
 0.144094565666993D+03 -.000000000000000D+00 -.000000000000000D+00 -.144094565666993D+03
 0.141522743726095D+03 0.416618776340003D+01 0.329774008335829D+02 -.574353628485381D+02
 0.118063954083548D+03 -.218440133012756D+02 -.367553301083401D+02 0.751250031014453D+02
 0.172273699325444D+02 0.654750404068084D+01 0.246792858408770D+01 -.157423566893221D+02
 0.113750635917993D+02 0.111303214971947D+02 0.131000069066949D+01 -.194728356358505D+01
-.518975457384D-04 0.000000000000D+00 0.000000000000D+00 0.415442179308D-04 0.000000000000D+00  6 -2 1 25 -24 21 21 4 0.23318605D-02 0.21074919D+00 0.14235713D+05 0.14235713D+05 0.14235713D+05 0.12504201D+01  1  2 13  3  6  5       21 -.587985204129D-01 0.100000000000D+01
-.480719039807D-04 0.000000000000D+00 0.000000000000D+00 0.415442179308D-04 0.000000000000D+00  6 -2 1 25 -24 21 21 4 0.23318605D-02 0.21074919D+00 0.14235713D+05 0.14235713D+05 0.14235713D+05 0.12504201D+01  1  2 13  3  6  5       21 -.544641714224D-01 0.100000000000D+01
-.103009148111D-04 0.000000000000D+00 0.000000000000D+00 0.414824309196D-04 0.000000000000D+00  6 -2 1 25 -24 21 21 4 0.23318605D-02 0.21074919D+00 0.14504266D+05 0.14504266D+05 0.14504266D+05 0.12494899D+01  1  2  8  3  6  5       21 -.116396231022D-01 0.100000000000D+01
  </mgrwgt>
  </event>
  <event>
  6     66 -.49582427E-03 0.71273763E+02 0.75467711E-02 0.11743800E+00
       -2 -1    0    0    0  501 0.00000000E+00 0.00000000E+00 0.22602534E+03 0.22602557E+03 0.32000000E+00 0.0000E+00 0.9000E+01
        1 -1    0    0  502    0 0.00000000E+00 0.00000000E+00 -.16197195E+03 0.16197226E+03 0.32000000E+00 0.0000E+00 0.9000E+01
       25  1    1    2    0    0 -.44369888E+02 0.18832865E+02 0.47575043E+02 0.14216803E+03 0.12500000E+03 0.0000E+00 0.9000E+01
      -24  1    1    2    0    0 0.11492550E+03 -.91959612E+01 0.64362665E+02 0.15460338E+03 0.80419002E+02 0.0000E+00 0.9000E+01
       21  1    1    2  502  503 -.70993312E+02 -.92179033E+01 -.37541978E+02 0.80839240E+02 0.75000000E+00 0.0000E+00 0.9000E+01
       21  1    1    2  503  501 0.43769659E+00 -.41900039E+00 -.10342337E+02 0.10387183E+02 0.75000000E+00 0.0000E+00 0.9000E+01
#aMCatNLO 2  0  0  5  1 0.94669481D+01 0.00000000D+00  -5  6  0 0.00000000D+00 0.00000000D+00 0.00000000D+00 0.00000000D+00 0.00000000D+00
  <mgrwgt>
 -.1805703510D+00    4    2    0
 0.191337059713425D+03 0.000000000000000D+00 0.000000000000000D+00 0.191337059713425D+03
 0.191337059713425D+03 -.000000000000000D+00 -.000000000000000D+00 -.191337059713425D+03
 0.136007100481754D+03 -.430794281733854D+02 0.190091234434439D+02 0.256075667649203D+02
 0.147408638344711D+03 0.116316472397818D+03 -.900597442014034D+01 0.406381763609371D+02
 0.992583806003853D+02 -.732370442244323D+02 -.100031490233035D+02 -.662457431258573D+02
 0.000000000000000D+00 0.000000000000000D+00 0.000000000000000D+00 -.000000000000000D+00
 0.191337059713425D+03 0.000000000000000D+00 0.000000000000000D+00 0.191337059713425D+03
 0.191337059713425D+03 -.000000000000000D+00 -.000000000000000D+00 -.191337059713425D+03
 0.136183957159300D+03 -.443794916240943D+02 0.188315530816835D+02 0.244316090195605D+02
 0.145970418733765D+03 0.114915208915407D+03 -.919736728127920D+01 0.393706792672128D+02
 0.881582560148666D+02 -.709877935834082D+02 -.921206040065812D+01 -.514562844453117D+02
 0.123614875189182D+02 0.452076292095494D+00 -.422125399746198D+00 -.123460038414616D+02
-.384502993288D-03 0.000000000000D+00 0.000000000000D+00 0.434007342407D-05 0.000000000000D+00  6 -2 1 25 -24 21 21 4 0.34773171D-01 0.24918803D-01 0.30056593D+05 0.30056593D+05 0.30056593D+05 0.12148125D+01  1  2 13  3  6  5       21 -.108445114843D+00 0.100000000000D+01
-.287619880720D-03 0.000000000000D+00 0.000000000000D+00 0.434007342407D-05 0.000000000000D+00  6 -2 1 25 -24 21 21 4 0.34773171D-01 0.24918803D-01 0.30056593D+05 0.30056593D+05 0.30056593D+05 0.12148125D+01  1  2 13  3  6  5       21 -.811202293361D-01 0.100000000000D+01
-.293727613465D-04 0.000000000000D+00 0.000000000000D+00 0.433549073670D-05 0.000000000000D+00  6 -2 1 25 -24 21 21 4 0.34773171D-01 0.24918803D-01 0.30483062D+05 0.30483062D+05 0.30483062D+05 0.12141710D+01  1  2  8  3  6  5       21 -.826855734238D-02 0.100000000000D+01
0.612096437173D-04 0.000000000000D+00 0.000000000000D+00 0.433549073670D-05 0.432391715944D-04  6 -2 1 25 -24 21 21 4 0.34773171D-01 0.24918803D-01 0.30056593D+05 0.30056593D+05 0.30056593D+05 0.12148125D+01  1  2  1  3  6  5       21 0.172635505011D-01 0.100000000000D+01
  </mgrwgt>
  </event>
  <event>
  5     66 0.49582427E-03 0.72579102E+02 0.75467711E-02 0.11557628E+00
       -2 -1    0    0    0  501 0.00000000E+00 0.00000000E+00 0.54716580E+02 0.54717516E+02 0.32000000E+00 0.0000E+00 0.9000E+01
        1 -1    0    0  502    0 -.00000000E+00 -.00000000E+00 -.88515404E+03 0.88515410E+03 0.32000000E+00 0.0000E+00 0.9000E+01
       25  1    1    2    0    0 -.81901593E+02 0.11138170E+03 -.55614236E+03 0.58654333E+03 0.12500000E+03 0.0000E+00 0.9000E+01
      -24  1    1    2    0    0 0.90237476E+02 -.39285910E+02 -.91371313E+02 0.15653152E+03 0.80419002E+02 0.0000E+00 0.9000E+01
       21  1    1    2  502  501 -.83358838E+01 -.72095794E+02 -.18292379E+03 0.19679677E+03 0.75000000E+00 0.0000E+00 0.9000E+01
#aMCatNLO 1  0  0  5  1 0.93487121D+01 0.00000000D+00  -5  6  0 0.00000000D+00 0.00000000D+00 0.00000000D+00 0.00000000D+00 0.00000000D+00
  <mgrwgt>
 0.6655884963D-01   19    2    0
 0.220075144168576D+03 0.000000000000000D+00 0.000000000000000D+00 0.220075144168576D+03
 0.220075144168576D+03 -.000000000000000D+00 -.000000000000000D+00 -.220075144168576D+03
 0.203190294781516D+03 -.819014006417100D+02 0.111383363340843D+03 -.809147875064076D+02
 0.161856913129354D+03 0.902376291825576D+02 -.392845880917058D+02 0.100221433792224D+03
 0.751030804262815D+02 -.833622854084759D+01 -.720987752491375D+02 -.193066462858163D+02
 0.000000000000000D+00 0.000000000000000D+00 0.000000000000000D+00 0.000000000000000D+00
 0.220075144168576D+03 0.000000000000000D+00 0.000000000000000D+00 0.220075144168576D+03
 0.220075144168576D+03 -.000000000000000D+00 -.000000000000000D+00 -.220075144168576D+03
 0.201482830760967D+03 -.824145860814802D+02 0.106944900371429D+03 -.821033213519141D+02
 0.161943353203669D+03 0.898270025024362D+02 -.428360359168584D+02 0.992704253080183D+02
 0.934888444182001D+01 0.916156119367361D+01 -.143589051509543D+01 0.118560331887869D+01
 0.673752199306956D+02 -.165739776146296D+02 -.626729739394753D+02 -.183527072749829D+02
0.328129665140D-03 0.000000000000D+00 0.000000000000D+00 0.263561723858D-05 0.000000000000D+00  6 -2 1 25 -24 21 21 2 0.84180118D-02 0.13617762D+00 0.37260406D+05 0.37260406D+05 0.37260406D+05 0.12051419D+01  1  2  2  3  6  5       21 0.715715637805D-01 0.100000000000D+01
-.248057288684D-05 0.173158781563D-04 -.126010431266D-05 0.263561723858D-05 0.000000000000D+00  6 -2 1 25 -24 21 21 4 0.84180118D-02 0.13617762D+00 0.37260406D+05 0.37260406D+05 0.37260406D+05 0.12051419D+01  1  2  3  3  6  5       21 -.785820513270D-03 0.100000000000D+01
0.132387698210D-04 0.000000000000D+00 0.000000000000D+00 0.263561723858D-05 0.000000000000D+00  6 -2 1 25 -24 21 21 4 0.84180118D-02 0.13617762D+00 0.37260406D+05 0.37260406D+05 0.37260406D+05 0.12051419D+01  1  2 15  3  6  5       21 0.419390897602D-02 0.100000000000D+01
0.122376785830D-04 0.000000000000D+00 0.000000000000D+00 0.263563065778D-05 0.000000000000D+00  6 -2 1 25 -24 21 21 4 0.84180118D-02 0.13617762D+00 0.37257835D+05 0.37257835D+05 0.37257835D+05 0.12051449D+01  1  2 12  3  6  5       21 0.387681164784D-02 0.100000000000D+01
0.104304468029D-04 0.000000000000D+00 0.000000000000D+00 0.263563065778D-05 0.000000000000D+00  6 -2 1 25 -24 21 21 4 0.84180118D-02 0.13617762D+00 0.37257835D+05 0.37257835D+05 0.37257835D+05 0.12051449D+01  1  2 12  3  6  5       21 0.330429316177D-02 0.100000000000D+01
-.852387726493D-04 0.000000000000D+00 0.000000000000D+00 0.263561723858D-05 0.000000000000D+00  6 -2 1 25 -24 21 21 4 0.84180118D-02 0.13617762D+00 0.37260406D+05 0.37260406D+05 0.37260406D+05 0.12051419D+01  1  2  4  3  6  5       21 -.270027848926D-01 0.100000000000D+01
0.301558510412D-09 0.000000000000D+00 0.000000000000D+00 0.263561723858D-05 0.122423329426D-06  6 -2 1 25 -24 21 21 4 0.84180118D-02 0.13617762D+00 0.37257835D+05 0.37257835D+05 0.37257835D+05 0.12051449D+01  1  2 11  3  6  5       21 0.955316433373D-07 0.100000000000D+01
0.460515696909D-05 0.000000000000D+00 0.000000000000D+00 0.263563065778D-05 0.000000000000D+00  6 -2 1 25 -24 1 -1 4 0.84180118D-02 0.13617762D+00 0.37257835D+05 0.37257835D+05 0.37257835D+05 0.12051449D+01  1  2 12  6  6  5       21 0.145888176886D-02 0.100000000000D+01
0.439158528054D-05 0.000000000000D+00 0.000000000000D+00 0.263563065778D-05 0.000000000000D+00  6 -2 1 25 -24 1 -1 4 0.84180118D-02 0.13617762D+00 0.37257835D+05 0.37257835D+05 0.37257835D+05 0.12051449D+01  1  2 12  6  6  5       21 0.139122374007D-02 0.100000000000D+01
0.269420285038D-09 0.000000000000D+00 0.000000000000D+00 0.263563065778D-05 0.289312821485D-08  6 -2 1 25 -24 1 -1 4 0.84180118D-02 0.13617762D+00 0.37257835D+05 0.37257835D+05 0.37257835D+05 0.12051449D+01  1  2 11  6  6  5       21 0.853504765724D-07 0.100000000000D+01
0.460515696909D-05 0.000000000000D+00 0.000000000000D+00 0.263563065778D-05 0.000000000000D+00  6 -2 1 25 -24 2 -2 4 0.84180118D-02 0.13617762D+00 0.37257835D+05 0.37257835D+05 0.37257835D+05 0.12051449D+01  1  2 12  7  6  5       21 0.145888176886D-02 0.100000000000D+01
0.439158528054D-05 0.000000000000D+00 0.000000000000D+00 0.263563065778D-05 0.000000000000D+00  6 -2 1 25 -24 2 -2 4 0.84180118D-02 0.13617762D+00 0.37257835D+05 0.37257835D+05 0.37257835D+05 0.12051449D+01  1  2 12  7  6  5       21 0.139122374007D-02 0.100000000000D+01
0.288579248302D-09 0.000000000000D+00 0.000000000000D+00 0.263563065778D-05 0.266641741963D-08  6 -2 1 25 -24 2 -2 4 0.84180118D-02 0.13617762D+00 0.37257835D+05 0.37257835D+05 0.37257835D+05 0.12051449D+01  1  2 11  7  6  5       21 0.914199031746D-07 0.100000000000D+01
0.460515696909D-05 0.000000000000D+00 0.000000000000D+00 0.263563065778D-05 0.000000000000D+00  6 -2 1 25 -24 3 -3 4 0.84180118D-02 0.13617762D+00 0.37257835D+05 0.37257835D+05 0.37257835D+05 0.12051449D+01  1  2 12  8  6  5       21 0.145888176886D-02 0.100000000000D+01
0.460515696909D-05 0.000000000000D+00 0.000000000000D+00 0.263563065778D-05 0.000000000000D+00  6 -2 1 25 -24 4 -4 4 0.84180118D-02 0.13617762D+00 0.37257835D+05 0.37257835D+05 0.37257835D+05 0.12051449D+01  1  2 12  8  6  5       21 0.145888176886D-02 0.100000000000D+01
0.439158528054D-05 0.000000000000D+00 0.000000000000D+00 0.263563065778D-05 0.000000000000D+00  6 -2 1 25 -24 3 -3 4 0.84180118D-02 0.13617762D+00 0.37257835D+05 0.37257835D+05 0.37257835D+05 0.12051449D+01  1  2 12  8  6  5       21 0.139122374007D-02 0.100000000000D+01
0.439158528054D-05 0.000000000000D+00 0.000000000000D+00 0.263563065778D-05 0.000000000000D+00  6 -2 1 25 -24 4 -4 4 0.84180118D-02 0.13617762D+00 0.37257835D+05 0.37257835D+05 0.37257835D+05 0.12051449D+01  1  2 12  8  6  5       21 0.139122374007D-02 0.100000000000D+01
0.289040518542D-09 0.000000000000D+00 0.000000000000D+00 0.263563065778D-05 0.265118168989D-08  6 -2 1 25 -24 3 -3 4 0.84180118D-02 0.13617762D+00 0.37257835D+05 0.37257835D+05 0.37257835D+05 0.12051449D+01  1  2 11  8  6  5       21 0.915660303856D-07 0.100000000000D+01
0.289040518542D-09 0.000000000000D+00 0.000000000000D+00 0.263563065778D-05 0.265118168989D-08  6 -2 1 25 -24 4 -4 4 0.84180118D-02 0.13617762D+00 0.37257835D+05 0.37257835D+05 0.37257835D+05 0.12051449D+01  1  2 11  8  6  5       21 0.915660303856D-07 0.100000000000D+01
  </mgrwgt>
  </event>
  <event>
  5     66 0.49582427E-03 0.20796415E+02 0.75467711E-02 0.10950049E+00
       -2 -1    0    0    0  501 0.00000000E+00 0.00000000E+00 0.16314326E+03 0.16314357E+03 0.32000000E+00 0.0000E+00 0.9000E+01
        1 -1    0    0  502    0 0.00000000E+00 0.00000000E+00 -.16392313E+03 0.16392344E+03 0.32000000E+00 0.0000E+00 0.9000E+01
       25  1    1    2    0    0 0.64943754E+02 0.20895637E+02 -.82810580E+02 0.16473285E+03 0.12500000E+03 0.0000E+00 0.9000E+01
      -24  1    1    2    0    0 -.81146094E+02 -.33919729E+02 0.67530028E+02 0.13697721E+03 0.80419002E+02 0.0000E+00 0.9000E+01
       21  1    1    2  502  501 0.16202340E+02 0.13024092E+02 0.14500678E+02 0.25356951E+02 0.75000000E+00 0.0000E+00 0.9000E+01
#aMCatNLO 1  0  0  1  1 0.70288663D+02 0.00000000D+00  -5  6  0 0.00000000D+00 0.00000000D+00 0.00000000D+00 0.00000000D+00 0.00000000D+00
  <mgrwgt>
 0.2464223088D+00    5    4    0
 0.163533041177194D+03 0.000000000000000D+00 0.000000000000000D+00 0.163533041177194D+03
 0.163533041177194D+03 0.000000000000000D+00 0.000000000000000D+00 -.163533041177194D+03
 0.164535691487922D+03 0.649401956979625D+02 0.208927769120923D+02 -.824212146781437D+02
 0.137139651568111D+03 -.811490595011377D+02 -.339221131140541D+02 0.678541705557614D+02
 0.253907392983558D+02 0.162088638031752D+02 0.130293362019618D+02 0.145670441223823D+02
 0.000000000000000D+00 -.000000000000000D+00 0.000000000000000D+00 0.000000000000000D+00
 0.301339832726403D+03 0.000000000000000D+00 0.000000000000000D+00 0.301339832726403D+03
 0.298115557946728D+03 0.000000000000000D+00 0.000000000000000D+00 -.298115557946728D+03
 0.203203272925461D+03 0.115229262680153D+03 -.748032788104030D+02 -.824212146781437D+02
 0.158115978027761D+03 -.407722390646597D+02 -.110755959718422D+03 0.678541705557614D+02
 0.276242792419525D+02 0.234587776726194D+02 -.766667646734096D+00 0.145670441223823D+02
 0.210511860477958D+03 -.979158012881126D+02 0.186325906175559D+03 0.322427477967500D+01
 0.163533041177194D+03 0.000000000000000D+00 0.000000000000000D+00 0.163533041177194D+03
 0.163533041177194D+03 0.000000000000000D+00 0.000000000000000D+00 -.163533041177194D+03
 0.164535691487922D+03 0.649401956979625D+02 0.208927769120923D+02 -.824212146781437D+02
 0.137139651568111D+03 -.811490595011377D+02 -.339221131140541D+02 0.678541705557614D+02
 0.000000000000000D+00 -.000000000000000D+00 0.000000000000000D+00 0.000000000000000D+00
 0.253907392983558D+02 0.162088638031752D+02 0.130293362019618D+02 0.145670441223823D+02
 0.301339832726403D+03 0.000000000000000D+00 0.000000000000000D+00 0.301339832726403D+03
 0.298115557946728D+03 0.000000000000000D+00 0.000000000000000D+00 -.298115557946728D+03
 0.203203272925461D+03 0.115229262680153D+03 -.748032788104030D+02 -.824212146781437D+02
 0.158115978027761D+03 -.407722390646597D+02 -.110755959718422D+03 0.678541705557614D+02
 0.210511860477958D+03 -.979158012881126D+02 0.186325906175559D+03 0.322427477967500D+01
 0.276242792419525D+02 0.234587776726194D+02 -.766667646734096D+00 0.145670441223823D+02
0.455327231754D-03 0.000000000000D+00 0.000000000000D+00 0.354962484665D-04 0.000000000000D+00  6 -2 1 25 -24 21 21 2 0.25099011D-01 0.25218991D-01 0.19934134D+05 0.19934134D+05 0.19934134D+05 0.12339838D+01  1  2  2  1  6  1       -2 0.157788619165D+00 0.100000000000D+01
0.965561612939D-04 0.240282781593D-04 -.174857646035D-05 0.354962484665D-04 0.000000000000D+00  6 -2 1 25 -24 21 21 4 0.25099011D-01 0.25218991D-01 0.19934134D+05 0.19934134D+05 0.19934134D+05 0.12339838D+01  1  2  3  1  6  1       -2 0.509507938991D-01 0.100000000000D+01
0.663030503876D-05 0.000000000000D+00 0.000000000000D+00 0.354962484665D-04 0.000000000000D+00  6 -2 1 25 -24 21 21 4 0.25099011D-01 0.25218991D-01 0.19934134D+05 0.19934134D+05 0.19934134D+05 0.12339838D+01  1  2 15  1  6  1       -2 0.349868202082D-02 0.100000000000D+01
0.188272398269D-03 0.000000000000D+00 -.234393164599D-03 0.354962484665D-04 0.000000000000D+00  6 -2 1 25 -24 21 21 4 0.79709568D-01 0.25218991D-01 0.19934134D+05 0.19934134D+05 0.19934134D+05 0.12339838D+01  1  2  5  1  6  1       -2 0.104804661820D-01 0.100000000000D+01
0.353567896644D-04 0.000000000000D+00 -.311490734157D-04 0.354962484665D-04 0.000000000000D+00  6 21 1 25 -24 2 21 4 0.79709568D-01 0.25218991D-01 0.19934134D+05 0.19934134D+05 0.19934134D+05 0.12339838D+01  3  4  5  4  5  1       -2 0.237037475359D-01 0.100000000000D+01
  </mgrwgt>
  </event>
  <event>
  5     66 0.49582427E-03 0.33011315E+02 0.75467711E-02 0.11942526E+00
       -2 -1    0    0    0  501 0.00000000E+00 0.00000000E+00 0.38703139E+03 0.38703152E+03 0.32000000E+00 0.0000E+00 0.9000E+01
        1 -1    0    0  502    0 0.00000000E+00 0.00000000E+00 -.10572842E+03 0.10572891E+03 0.32000000E+00 0.0000E+00 0.9000E+01
       25  1    1    2    0    0 0.40224104E+01 0.68442107E+02 -.59407129E+01 0.14269125E+03 0.12500000E+03 0.0000E+00 0.9000E+01
      -24  1    1    2    0    0 0.12803245E+02 -.96842768E+02 0.10374560E+03 0.16362399E+03 0.80419002E+02 0.0000E+00 0.9000E+01
       21  1    1    2  502  501 -.16825656E+02 0.28400661E+02 0.18349807E+03 0.18644518E+03 0.75000000E+00 0.0000E+00 0.9000E+01
#aMCatNLO 1  0  0  5  2 0.60641149D+01 0.00000000D+00  -5  6  0 0.00000000D+00 0.00000000D+00 0.00000000D+00 0.00000000D+00 0.00000000D+00
  <mgrwgt>
 0.3061204475D-01   20    2    0
 0.202287840422912D+03 0.000000000000000D+00 0.000000000000000D+00 0.202287840422912D+03
 0.202287840422912D+03 -.000000000000000D+00 -.000000000000000D+00 -.202287840422912D+03
 0.177924618692551D+03 0.402262065930294D+01 0.684417517904403D+02 -.106450528752923D+03
 0.127154289915500D+03 0.128033954632238D+02 -.968430212127806D+02 0.125896702314968D+02
 0.994967722377722D+02 -.168260161225268D+02 0.284012694223404D+02 0.938608585214264D+02
 0.000000000000000D+00 0.000000000000000D+00 0.000000000000000D+00 0.000000000000000D+00
 0.202287840422912D+03 0.000000000000000D+00 0.000000000000000D+00 0.202287840422912D+03
 0.202287840422912D+03 -.000000000000000D+00 -.000000000000000D+00 -.202287840422912D+03
 0.176911103536929D+03 0.364462100607013D+01 0.690797917111701D+02 -.104341926709821D+03
 0.126938449518335D+03 0.125327153671177D+02 -.963861300342156D+02 0.140996097216397D+02
 0.945157357934712D+02 -.216119418964406D+02 0.285035849992380D+02 0.874853926220677D+02
 0.621039199708798D+01 0.543460552325280D+01 -.119724667619247D+01 0.275692436611356D+01
0.135250400313D-03 0.000000000000D+00 0.000000000000D+00 0.198249218736D-04 0.000000000000D+00  6 -2 1 25 -24 21 21 2 0.59543338D-01 0.16265959D-01 0.22817338D+05 0.22817338D+05 0.22817338D+05 0.12275743D+01  1  2  2  3  6  5       21 0.158875886102D-01 0.100000000000D+01
0.121951117046D-04 0.713735971238D-05 -.519397149449D-06 0.198249218736D-04 0.000000000000D+00  6 -2 1 25 -24 21 21 4 0.59543338D-01 0.16265959D-01 0.22817338D+05 0.22817338D+05 0.22817338D+05 0.12275743D+01  1  2  3  3  6  5       21 0.215874220670D-02 0.100000000000D+01
0.761008840648D-05 0.000000000000D+00 0.000000000000D+00 0.198249218736D-04 0.000000000000D+00  6 -2 1 25 -24 21 21 4 0.59543338D-01 0.16265959D-01 0.22817338D+05 0.22817338D+05 0.22817338D+05 0.12275743D+01  1  2 15  3  6  5       21 0.134711509313D-02 0.100000000000D+01
0.801828690256D-04 0.000000000000D+00 0.000000000000D+00 0.197434010419D-04 0.000000000000D+00  6 -2 1 25 -24 21 21 4 0.59543338D-01 0.16265959D-01 0.24079752D+05 0.24079752D+05 0.24079752D+05 0.12250478D+01  1  2 12  3  6  5       21 0.140881295401D-01 0.100000000000D+01
-.106906872348D-03 0.000000000000D+00 0.000000000000D+00 0.198249218736D-04 0.000000000000D+00  6 -2 1 25 -24 21 21 4 0.59543338D-01 0.16265959D-01 0.22817338D+05 0.22817338D+05 0.22817338D+05 0.12275743D+01  1  2  4  3  6  5       21 -.189243348576D-01 0.100000000000D+01
-.822569413904D-03 0.000000000000D+00 0.000000000000D+00 0.198249218736D-04 0.000000000000D+00  6 -2 1 25 -24 21 21 4 0.59543338D-01 0.16265959D-01 0.22817338D+05 0.22817338D+05 0.22817338D+05 0.12275743D+01  1  2  5  3  6  5       21 -.145608777905D+00 0.100000000000D+01
0.873550228262D-03 0.000000000000D+00 -.000000000000D+00 0.198249218736D-04 0.000000000000D+00  6 -2 1 25 -24 21 21 4 0.59543338D-01 0.16265959D-01 0.22817338D+05 0.22817338D+05 0.22817338D+05 0.12275743D+01  1  2  6  3  6  5       21 0.154633249214D+00 0.100000000000D+01
0.468946566321D-04 0.000000000000D+00 0.000000000000D+00 0.198249218736D-04 0.148554751822D-05  6 -2 1 25 -24 21 21 4 0.59543338D-01 0.16265959D-01 0.24079752D+05 0.24079752D+05 0.24079752D+05 0.12250478D+01  1  2 11  3  6  5       21 0.823939084995D-02 0.100000000000D+01
0.172821721774D-05 0.000000000000D+00 0.000000000000D+00 0.197434010419D-04 0.000000000000D+00  6 -2 1 25 -24 1 -1 4 0.59543338D-01 0.16265959D-01 0.24079752D+05 0.24079752D+05 0.24079752D+05 0.12250478D+01  1  2 12  6  6  5       21 0.303647753353D-03 0.100000000000D+01
-.397519034044D-05 0.000000000000D+00 0.000000000000D+00 0.198249218736D-04 0.000000000000D+00  6 -2 1 25 -24 1 -1 4 0.59543338D-01 0.16265959D-01 0.22817338D+05 0.22817338D+05 0.22817338D+05 0.12275743D+01  1  2  5  6  6  5       21 -.703676306982D-03 0.100000000000D+01
0.590910859945D-06 0.000000000000D+00 0.000000000000D+00 0.198249218736D-04 0.191434529631D-07  6 -2 1 25 -24 1 -1 4 0.59543338D-01 0.16265959D-01 0.24079752D+05 0.24079752D+05 0.24079752D+05 0.12250478D+01  1  2 11  6  6  5       21 0.103823034056D-03 0.100000000000D+01
0.172821721774D-05 0.000000000000D+00 0.000000000000D+00 0.197434010419D-04 0.000000000000D+00  6 -2 1 25 -24 2 -2 4 0.59543338D-01 0.16265959D-01 0.24079752D+05 0.24079752D+05 0.24079752D+05 0.12250478D+01  1  2 12  7  6  5       21 0.303647753353D-03 0.100000000000D+01
-.397519034044D-05 0.000000000000D+00 0.000000000000D+00 0.198249218736D-04 0.000000000000D+00  6 -2 1 25 -24 2 -2 4 0.59543338D-01 0.16265959D-01 0.22817338D+05 0.22817338D+05 0.22817338D+05 0.12275743D+01  1  2  5  7  6  5       21 -.703676306982D-03 0.100000000000D+01
0.452334803992D-06 0.000000000000D+00 0.000000000000D+00 0.198249218736D-04 0.234204143542D-07  6 -2 1 25 -24 2 -2 4 0.59543338D-01 0.16265959D-01 0.24079752D+05 0.24079752D+05 0.24079752D+05 0.12250478D+01  1  2 11  7  6  5       21 0.794752219718D-04 0.100000000000D+01
0.172821721774D-05 0.000000000000D+00 0.000000000000D+00 0.197434010419D-04 0.000000000000D+00  6 -2 1 25 -24 3 -3 4 0.59543338D-01 0.16265959D-01 0.24079752D+05 0.24079752D+05 0.24079752D+05 0.12250478D+01  1  2 12  8  6  5       21 0.303647753353D-03 0.100000000000D+01
0.172821721774D-05 0.000000000000D+00 0.000000000000D+00 0.197434010419D-04 0.000000000000D+00  6 -2 1 25 -24 4 -4 4 0.59543338D-01 0.16265959D-01 0.24079752D+05 0.24079752D+05 0.24079752D+05 0.12250478D+01  1  2 12  8  6  5       21 0.303647753353D-03 0.100000000000D+01
-.397519034044D-05 0.000000000000D+00 0.000000000000D+00 0.198249218736D-04 0.000000000000D+00  6 -2 1 25 -24 3 -3 4 0.59543338D-01 0.16265959D-01 0.22817338D+05 0.22817338D+05 0.22817338D+05 0.12275743D+01  1  2  5  8  6  5       21 -.703676306982D-03 0.100000000000D+01
-.397519034044D-05 0.000000000000D+00 0.000000000000D+00 0.198249218736D-04 0.000000000000D+00  6 -2 1 25 -24 4 -4 4 0.59543338D-01 0.16265959D-01 0.22817338D+05 0.22817338D+05 0.22817338D+05 0.12275743D+01  1  2  5  8  6  5       21 -.703676306982D-03 0.100000000000D+01
0.591229260193D-06 0.000000000000D+00 0.000000000000D+00 0.198249218736D-04 0.191237402594D-07  6 -2 1 25 -24 3 -3 4 0.59543338D-01 0.16265959D-01 0.24079752D+05 0.24079752D+05 0.24079752D+05 0.12250478D+01  1  2 11  8  6  5       21 0.103878976978D-03 0.100000000000D+01
0.591229260193D-06 0.000000000000D+00 0.000000000000D+00 0.198249218736D-04 0.191237402594D-07  6 -2 1 25 -24 4 -4 4 0.59543338D-01 0.16265959D-01 0.24079752D+05 0.24079752D+05 0.24079752D+05 0.12250478D+01  1  2 11  8  6  5       21 0.103878976978D-03 0.100000000000D+01
  </mgrwgt>
  </event>
  <event>
  5     66 0.49582427E-03 0.23458429E+02 0.75467711E-02 0.11906829E+00
       -2 -1    0    0    0  501 0.00000000E+00 0.00000000E+00 0.76731292E+01 0.76797989E+01 0.32000000E+00 0.0000E+00 0.9000E+01
        1 -1    0    0  502    0 0.00000000E+00 0.00000000E+00 -.24895517E+04 0.24895517E+04 0.32000000E+00 0.0000E+00 0.9000E+01
       25  1    1    2    0    0 -.67659882E+02 0.18593791E+02 -.10913405E+04 0.11007146E+04 0.12500000E+03 0.0000E+00 0.9000E+01
      -24  1    1    2    0    0 0.67351984E+02 0.48516483E+01 -.11852754E+04 0.11899180E+04 0.80419002E+02 0.0000E+00 0.9000E+01
       21  1    1    2  502  501 0.30789805E+00 -.23445440E+02 -.20526269E+03 0.20659893E+03 0.75000000E+00 0.0000E+00 0.9000E+01
#aMCatNLO 1  0  0  2  1 0.57289371D+02 0.00000000D+00  -5  6  0 0.00000000D+00 0.00000000D+00 0.00000000D+00 0.00000000D+00 0.00000000D+00
  <mgrwgt>
 0.1951722098D+00    4    2    0
 0.138242559438231D+03 0.000000000000000D+00 0.000000000000000D+00 0.138242559438231D+03
 0.138242559438231D+03 0.000000000000000D+00 0.000000000000000D+00 -.138242559438231D+03
 0.145269554466105D+03 -.676599648613305D+02 0.186000876927116D+02 0.235458987419819D+02
 0.107749539160622D+03 0.673519227977995D+02 0.485631834427624D+01 -.241429472627969D+02
 0.234660252497339D+02 0.308042063530959D+00 -.234564060369878D+02 0.597048520814967D+00
 0.000000000000000D+00 0.000000000000000D+00 0.000000000000000D+00 0.000000000000000D+00
 0.197853998670748D+03 0.000000000000000D+00 0.000000000000000D+00 0.197853998670748D+03
 0.147254538835811D+03 0.000000000000000D+00 0.000000000000000D+00 -.147254538835811D+03
 0.146622359387011D+03 -.728828616155492D+02 -.260680021766848D+01 0.235458987419819D+02
 0.105829349831472D+03 0.635303010496624D+02 -.106608760140371D+02 -.241429472627969D+02
 0.271467320121858D+02 -.597584961677975D+00 -.271335859078524D+02 0.597048520814967D+00
 0.655100962758905D+02 0.995014552756479D+01 0.404012621395579D+02 0.505994598349375D+02
0.418525102067D-03 0.000000000000D+00 0.000000000000D+00 0.388799568654D-04 0.000000000000D+00  6 -2 1 25 -24 21 21 2 0.11809960D-02 0.38300847D+00 0.18471118D+05 0.18471118D+05 0.18471118D+05 0.12376465D+01  1  2  2  2  6  2        1 0.152467952787D+00 0.100000000000D+01
0.847330996277D-04 0.220861764195D-04 -.160724659213D-05 0.388799568654D-04 0.000000000000D+00  6 -2 1 25 -24 21 21 4 0.11809960D-02 0.38300847D+00 0.18471118D+05 0.18471118D+05 0.18471118D+05 0.12376465D+01  1  2  3  2  6  2        1 0.472828189145D-01 0.100000000000D+01
0.168956652263D-04 0.000000000000D+00 0.000000000000D+00 0.388799568654D-04 0.000000000000D+00  6 -2 1 25 -24 21 21 4 0.11809960D-02 0.38300847D+00 0.18471118D+05 0.18471118D+05 0.18471118D+05 0.12376465D+01  1  2 15  2  6  2        1 0.942813000874D-02 0.100000000000D+01
-.251006697437D-04 0.000000000000D+00 0.000000000000D+00 0.388799568654D-04 0.000000000000D+00  6 -2 1 25 -24 21 21 4 0.11809960D-02 0.38300847D+00 0.18471118D+05 0.18471118D+05 0.18471118D+05 0.12376465D+01  1  2  4  2  6  2        1 -.140066919225D-01 0.100000000000D+01
  </mgrwgt>
  </event>
  <event>
  5     66 0.49582427E-03 0.21023864E+02 0.75467711E-02 0.12327628E+00
       -2 -1    0    0    0  501 0.00000000E+00 0.00000000E+00 0.14399469E+03 0.14399504E+03 0.32000000E+00 0.0000E+00 0.9000E+01
        1 -1    0    0  502    0 0.00000000E+00 0.00000000E+00 -.11261604E+03 0.11261649E+03 0.32000000E+00 0.0000E+00 0.9000E+01
       25  1    1    2    0    0 0.26798639E+02 -.71137199E+01 0.29264776E+02 0.13134001E+03 0.12500000E+03 0.0000E+00 0.9000E+01
      -24  1    1    2    0    0 -.87615088E+01 0.17906219E+02 -.28942956E+02 0.87762790E+02 0.80419002E+02 0.0000E+00 0.9000E+01
       21  1    1    2  502  501 -.18037130E+02 -.10792499E+02 0.31056829E+02 0.37508735E+02 0.75000000E+00 0.0000E+00 0.9000E+01
#aMCatNLO 1  0  0  1  5 0.21037017D+02 0.00000000D+00  -5  6  0 0.00000000D+00 0.00000000D+00 0.00000000D+00 0.00000000D+00 0.00000000D+00
  <mgrwgt>
 0.1820426708D+00    7    4    0
 0.127342905578837D+03 0.000000000000000D+00 0.000000000000000D+00 0.127342905578837D+03
 0.127342905578837D+03 0.000000000000000D+00 0.000000000000000D+00 -.127342905578837D+03
 0.128727573757452D+03 0.268008621963302D+02 -.711238960375869D+01 0.133009753453625D+02
 0.919933625129950D+02 -.875991992157205D+01 0.179071696721974D+02 -.399769917499498D+02
 0.339648748872263D+02 -.180409422747582D+02 -.107947800684387D+02 0.266760164045874D+02
 0.000000000000000D+00 -.000000000000000D+00 -.000000000000000D+00 0.000000000000000D+00
 0.139707012214007D+03 0.000000000000000D+00 0.000000000000000D+00 0.139707012214007D+03
 0.137050262029664D+03 0.000000000000000D+00 0.000000000000000D+00 -.137050262029664D+03
 0.129874101220410D+03 0.325879028535871D+02 0.184250109270543D+01 0.133009753453625D+02
 0.931562174301045D+02 -.461660512325737D+01 0.243185521623867D+02 -.399769917499498D+02
 0.325228430809177D+02 -.165530666563082D+02 -.849243517019688D+01 0.266760164045874D+02
 0.212041125122379D+02 -.114182310740215D+02 -.176686180848953D+02 0.265675018434277D+01
 0.127342905578837D+03 0.000000000000000D+00 0.000000000000000D+00 0.127342905578837D+03
 0.127342905578837D+03 0.000000000000000D+00 0.000000000000000D+00 -.127342905578837D+03
 0.128727573757452D+03 0.268008621963302D+02 -.711238960375869D+01 0.133009753453625D+02
 0.919933625129950D+02 -.875991992157205D+01 0.179071696721974D+02 -.399769917499498D+02
 0.000000000000000D+00 -.000000000000000D+00 -.000000000000000D+00 0.000000000000000D+00
 0.339648748872263D+02 -.180409422747582D+02 -.107947800684387D+02 0.266760164045874D+02
 0.139707012214007D+03 0.000000000000000D+00 0.000000000000000D+00 0.139707012214007D+03
 0.137050262029664D+03 0.000000000000000D+00 0.000000000000000D+00 -.137050262029664D+03
 0.129874101220410D+03 0.325879028535871D+02 0.184250109270543D+01 0.133009753453625D+02
 0.931562174301045D+02 -.461660512325737D+01 0.243185521623867D+02 -.399769917499498D+02
 0.212041125122379D+02 -.114182310740215D+02 -.176686180848953D+02 0.265675018434277D+01
 0.325228430809177D+02 -.165530666563082D+02 -.849243517019688D+01 0.266760164045874D+02
0.195052389761D-03 0.000000000000D+00 0.000000000000D+00 0.563519317157D-04 0.000000000000D+00  6 -2 1 25 -24 21 21 2 0.22153091D-01 0.17325607D-01 0.13446190D+05 0.13446190D+05 0.13446190D+05 0.12532733D+01  1  2  2  1  6  1       -2 0.137589083346D+00 0.100000000000D+01
0.252759014653D-04 0.102931973973D-04 -.749052535157D-06 0.563519317157D-04 0.000000000000D+00  6 -2 1 25 -24 21 21 4 0.22153091D-01 0.17325607D-01 0.13446190D+05 0.13446190D+05 0.13446190D+05 0.12532733D+01  1  2  3  1  6  1       -2 0.280047001683D-01 0.100000000000D+01
0.130482889971D-04 0.000000000000D+00 0.000000000000D+00 0.563519317157D-04 0.000000000000D+00  6 -2 1 25 -24 21 21 4 0.22153091D-01 0.17325607D-01 0.13446190D+05 0.13446190D+05 0.13446190D+05 0.12532733D+01  1  2 15  1  6  1       -2 0.144569886686D-01 0.100000000000D+01
-.488927901288D-04 0.000000000000D+00 0.000000000000D+00 0.563519317157D-04 0.000000000000D+00  6 -2 1 25 -24 21 21 4 0.22153091D-01 0.17325607D-01 0.13446190D+05 0.13446190D+05 0.13446190D+05 0.12532733D+01  1  2  4  1  6  1       -2 -.541712797001D-01 0.100000000000D+01
-.103576596441D-02 0.000000000000D+00 -.267455165202D-03 0.563519317157D-04 0.000000000000D+00  6 -2 1 25 -24 21 21 4 0.26055235D-01 0.17325607D-01 0.13446190D+05 0.13446190D+05 0.13446190D+05 0.12532733D+01  1  2  5  1  6  1       -2 -.866745793238D+00 0.100000000000D+01
0.106854596216D-02 0.000000000000D+00 0.263973337843D-03 0.563519317157D-04 0.000000000000D+00  6 -2 1 25 -24 21 21 4 0.22153091D-01 0.17325607D-01 0.13446190D+05 0.13446190D+05 0.13446190D+05 0.12532733D+01  1  2  6  1  6  1       -2 0.118390670764D+01 0.100000000000D+01
-.230288853935D-04 0.000000000000D+00 -.649798814506D-05 0.563519317157D-04 0.000000000000D+00  6 21 1 25 -24 2 21 4 0.26055235D-01 0.17325607D-01 0.13446190D+05 0.13446190D+05 0.13446190D+05 0.12532733D+01  3  4  5  4  5  1       -2 -.260997736107D+00 0.100000000000D+01
  </mgrwgt>
  </event>
  <event>
  6     66 0.49582427E-03 0.29347438E+02 0.75467711E-02 0.12242184E+00
       -2 -1    0    0    0  501 0.00000000E+00 0.00000000E+00 0.55448050E+03 0.55448059E+03 0.32000000E+00 0.0000E+00 0.9000E+01
        1 -1    0    0  503    0 0.00000000E+00 0.00000000E+00 -.31777145E+03 0.31777161E+03 0.32000000E+00 0.0000E+00 0.9000E+01
       25  1    1    2    0    0 -.47622890E+02 0.14361457E+02 0.24386553E+03 0.27851318E+03 0.12500000E+03 0.0000E+00 0.9000E+01
      -24  1    1    2    0    0 0.25379269E+02 -.41865939E+02 0.16882975E+03 0.19330692E+03 0.80419002E+02 0.0000E+00 0.9000E+01
       21  1    1    2  502  501 0.37214478E+01 0.20566913E+01 0.11132115E+03 0.11140485E+03 0.75000000E+00 0.0000E+00 0.9000E+01
       21  1    1    2  503  502 0.18522174E+02 0.25447791E+02 -.28730738E+03 0.28902726E+03 0.75000000E+00 0.0000E+00 0.9000E+01
#aMCatNLO 2  0  0  2  5 0.13880457D+02 0.00000000D+00  -5  6  0 0.00000000D+00 0.00000000D+00 0.00000000D+00 0.00000000D+00 0.00000000D+00
  <mgrwgt>
 0.9707258470D-01    1    2    0
 0.127050629579863D+03 0.000000000000000D+00 0.000000000000000D+00 0.127050629579863D+03
 0.127050629579863D+03 0.000000000000000D+00 0.000000000000000D+00 -.127050629579863D+03
 0.134315952873465D+03 -.378344459538350D+02 0.278105362761853D+02 -.145225331021890D+02
 0.931779601300123D+02 0.322033345810023D+02 -.324898449194398D+02 -.110576452554059D+02
 0.266073461562488D+02 0.563111137283270D+01 0.467930864325449D+01 0.255801783575949D+02
 0.000000000000000D+00 0.000000000000000D+00 0.000000000000000D+00 -.000000000000000D+00
 0.128220333745809D+03 0.000000000000000D+00 0.000000000000000D+00 0.128220333745809D+03
 0.137418042842717D+04 0.000000000000000D+00 0.000000000000000D+00 -.137418042842717D+04
 0.135315124052206D+03 -.476241315474923D+02 0.143603942810367D+02 -.145225331021890D+02
 0.947964620798725D+02 0.253784147161774D+02 -.418666671277936D+02 -.110576452554059D+02
 0.259315955265127D+02 0.372354297840940D+01 0.205848231282827D+01 0.255801783575949D+02
 0.124635758051439D+04 0.185221738529055D+02 0.254477905339286D+02 -.124596009468136D+04
0.450767088556D-02 0.000000000000D+00 0.000000000000D+00 0.448719654474D-03 0.308939030860D-04  6 -2 1 25 -24 21 21 4 0.85304637D-01 0.48887892D-01 0.17478469D+05 0.17478469D+05 0.17478469D+05 0.12403218D+01  1  2  1  2  6  2        1 0.970725847005D-01 0.100000000000D+01
  </mgrwgt>
  </event>
  <event>
  5     66 0.49582427E-03 0.35009056E+02 0.75467711E-02 0.12387292E+00
       -2 -1    0    0    0  501 0.00000000E+00 0.00000000E+00 0.22664932E+02 0.22667190E+02 0.32000000E+00 0.0000E+00 0.9000E+01
        1 -1    0    0  502    0 -.00000000E+00 -.00000000E+00 -.92190838E+03 0.92190844E+03 0.32000000E+00 0.0000E+00 0.9000E+01
       25  1    1    2    0    0 -.22439975E+02 0.18736829E+02 -.24776314E+03 0.27904515E+03 0.12500000E+03 0.0000E+00 0.9000E+01
      -24  1    1    2    0    0 -.10567418E+02 -.52948342E+01 -.57985900E+03 0.58552830E+03 0.80419002E+02 0.0000E+00 0.9000E+01
       21  1    1    2  502  501 0.33007394E+02 -.13441995E+02 -.71621305E+02 0.80002182E+02 0.75000000E+00 0.0000E+00 0.9000E+01
#aMCatNLO 1  0  0  5  1 0.19266682D+01 0.00000000D+00  -5  6  0 0.00000000D+00 0.00000000D+00 0.00000000D+00 0.00000000D+00 0.00000000D+00
  <mgrwgt>
 0.2124237663D+00   19    2    0
 0.144554776713594D+03 0.000000000000000D+00 0.000000000000000D+00 0.144554776713594D+03
 0.144554776713594D+03 -.000000000000000D+00 -.000000000000000D+00 -.144554776713594D+03
 0.141053411910029D+03 -.224430141335715D+02 0.187380666035391D+02 0.584487894487293D+02
 0.109445032735187D+03 -.105697762082120D+02 -.529387396345972D+01 -.732888392963277D+02
 0.386111087819727D+02 0.330127903417835D+02 -.134441926400794D+02 0.148400498475984D+02
 0.000000000000000D+00 0.000000000000000D+00 0.000000000000000D+00 0.000000000000000D+00
 0.144554776713594D+03 0.000000000000000D+00 0.000000000000000D+00 0.144554776713594D+03
 0.144554776713594D+03 -.000000000000000D+00 -.000000000000000D+00 -.144554776713594D+03
 0.141033815036084D+03 -.215822330816220D+02 0.183875204617702D+02 0.588357314062720D+02
 0.109195406040694D+03 -.990260120377931D+01 -.556557560368390D+01 -.729889279522593D+02
 0.369520943260364D+02 0.317056907803879D+02 -.140889085352514D+02 0.127164894331744D+02
 0.192823802437366D+01 -.220856494986530D+00 0.126696367716507D+01 0.143670711281286D+01
0.160138177054D-03 0.000000000000D+00 0.000000000000D+00 0.136974730301D-04 0.000000000000D+00  6 -2 1 25 -24 21 21 2 0.34870906D-02 0.14183224D+00 0.15043299D+05 0.15043299D+05 0.15043299D+05 0.12476799D+01  1  2  2  3  6  5       21 0.131633780636D+00 0.100000000000D+01
0.676694738491D-05 0.845072377367D-05 -.614972765238D-06 0.136974730301D-04 0.000000000000D+00  6 -2 1 25 -24 21 21 4 0.34870906D-02 0.14183224D+00 0.15043299D+05 0.15043299D+05 0.15043299D+05 0.12476799D+01  1  2  3  3  6  5       21 0.865907691174D-02 0.100000000000D+01
0.865275756992D-05 0.000000000000D+00 0.000000000000D+00 0.136974730301D-04 0.000000000000D+00  6 -2 1 25 -24 21 21 4 0.34870906D-02 0.14183224D+00 0.15043299D+05 0.15043299D+05 0.15043299D+05 0.12476799D+01  1  2 15  3  6  5       21 0.110721849949D-01 0.100000000000D+01
0.159004262728D-07 0.000000000000D+00 0.000000000000D+00 0.136968400205D-04 0.000000000000D+00  6 -2 1 25 -24 21 21 4 0.34870906D-02 0.14183224D+00 0.15052064D+05 0.15052064D+05 0.15052064D+05 0.12476510D+01  1  2 12  3  6  5       21 0.203447929858D-04 0.100000000000D+01
0.195635784457D-07 0.000000000000D+00 0.000000000000D+00 0.136968400205D-04 0.000000000000D+00  6 -2 1 25 -24 21 21 4 0.34870906D-02 0.14183224D+00 0.15052064D+05 0.15052064D+05 0.15052064D+05 0.12476510D+01  1  2 12  3  6  5       21 0.250318417072D-04 0.100000000000D+01
-.604124133858D-03 0.000000000000D+00 0.000000000000D+00 0.136974730301D-04 0.000000000000D+00  6 -2 1 25 -24 21 21 4 0.34870906D-02 0.14183224D+00 0.15043299D+05 0.15043299D+05 0.15043299D+05 0.12476799D+01  1  2  4  3  6  5       21 -.773045369169D+00 0.100000000000D+01
0.637220320167D-03 0.000000000000D+00 0.000000000000D+00 0.136974730301D-04 0.230803519072D-04  6 -2 1 25 -24 21 21 4 0.34870906D-02 0.14183224D+00 0.15052064D+05 0.15052064D+05 0.15052064D+05 0.12476510D+01  1  2 11  3  6  5       21 0.815331317393D+00 0.100000000000D+01
0.195278479300D-08 0.000000000000D+00 0.000000000000D+00 0.136968400205D-04 0.000000000000D+00  6 -2 1 25 -24 1 -1 4 0.34870906D-02 0.14183224D+00 0.15052064D+05 0.15052064D+05 0.15052064D+05 0.12476510D+01  1  2 12  6  6  5       21 0.249861240685D-05 0.100000000000D+01
0.200250141549D-08 0.000000000000D+00 0.000000000000D+00 0.136968400205D-04 0.000000000000D+00  6 -2 1 25 -24 1 -1 4 0.34870906D-02 0.14183224D+00 0.15052064D+05 0.15052064D+05 0.15052064D+05 0.12476510D+01  1  2 12  6  6  5       21 0.256222544308D-05 0.100000000000D+01
0.410574056163D-05 0.000000000000D+00 0.000000000000D+00 0.136968400205D-04 0.134191086173D-06  6 -2 1 25 -24 1 -1 4 0.34870906D-02 0.14183224D+00 0.15052064D+05 0.15052064D+05 0.15052064D+05 0.12476510D+01  1  2 11  6  6  5       21 0.525334606422D-02 0.100000000000D+01
0.195278479300D-08 0.000000000000D+00 0.000000000000D+00 0.136968400205D-04 0.000000000000D+00  6 -2 1 25 -24 2 -2 4 0.34870906D-02 0.14183224D+00 0.15052064D+05 0.15052064D+05 0.15052064D+05 0.12476510D+01  1  2 12  7  6  5       21 0.249861240685D-05 0.100000000000D+01
0.200250141549D-08 0.000000000000D+00 0.000000000000D+00 0.136968400205D-04 0.000000000000D+00  6 -2 1 25 -24 2 -2 4 0.34870906D-02 0.14183224D+00 0.15052064D+05 0.15052064D+05 0.15052064D+05 0.12476510D+01  1  2 12  7  6  5       21 0.256222544308D-05 0.100000000000D+01
0.231618354131D-05 0.000000000000D+00 0.000000000000D+00 0.136968400205D-04 0.162313161984D-06  6 -2 1 25 -24 2 -2 4 0.34870906D-02 0.14183224D+00 0.15052064D+05 0.15052064D+05 0.15052064D+05 0.12476510D+01  1  2 11  7  6  5       21 0.296358562070D-02 0.100000000000D+01
0.195278479300D-08 0.000000000000D+00 0.000000000000D+00 0.136968400205D-04 0.000000000000D+00  6 -2 1 25 -24 3 -3 4 0.34870906D-02 0.14183224D+00 0.15052064D+05 0.15052064D+05 0.15052064D+05 0.12476510D+01  1  2 12  8  6  5       21 0.249861240685D-05 0.100000000000D+01
0.195278479300D-08 0.000000000000D+00 0.000000000000D+00 0.136968400205D-04 0.000000000000D+00  6 -2 1 25 -24 4 -4 4 0.34870906D-02 0.14183224D+00 0.15052064D+05 0.15052064D+05 0.15052064D+05 0.12476510D+01  1  2 12  8  6  5       21 0.249861240685D-05 0.100000000000D+01
0.200250141549D-08 0.000000000000D+00 0.000000000000D+00 0.136968400205D-04 0.000000000000D+00  6 -2 1 25 -24 3 -3 4 0.34870906D-02 0.14183224D+00 0.15052064D+05 0.15052064D+05 0.15052064D+05 0.12476510D+01  1  2 12  8  6  5       21 0.256222544308D-05 0.100000000000D+01
0.200250141549D-08 0.000000000000D+00 0.000000000000D+00 0.136968400205D-04 0.000000000000D+00  6 -2 1 25 -24 4 -4 4 0.34870906D-02 0.14183224D+00 0.15052064D+05 0.15052064D+05 0.15052064D+05 0.12476510D+01  1  2 12  8  6  5       21 0.256222544308D-05 0.100000000000D+01
0.409930517659D-05 0.000000000000D+00 0.000000000000D+00 0.136968400205D-04 0.133829695276D-06  6 -2 1 25 -24 3 -3 4 0.34870906D-02 0.14183224D+00 0.15052064D+05 0.15052064D+05 0.15052064D+05 0.12476510D+01  1  2 11  8  6  5       21 0.524511190910D-02 0.100000000000D+01
0.409930517659D-05 0.000000000000D+00 0.000000000000D+00 0.136968400205D-04 0.133829695276D-06  6 -2 1 25 -24 4 -4 4 0.34870906D-02 0.14183224D+00 0.15052064D+05 0.15052064D+05 0.15052064D+05 0.12476510D+01  1  2 11  8  6  5       21 0.524511190910D-02 0.100000000000D+01
  </mgrwgt>
  </event>
  <event>
  5     66 -.49582427E-03 0.52189839E+02 0.75467711E-02 0.12029377E+00
       -2 -1    0    0    0  501 0.00000000E+00 0.00000000E+00 0.85199831E+01 0.85259903E+01 0.32000000E+00 0.0000E+00 0.9000E+01
        1 -1    0    0  502    0 0.00000000E+00 0.00000000E+00 -.29051551E+04 0.29051551E+04 0.32000000E+00 0.0000E+00 0.9000E+01
       25  1    1    2    0    0 -.27231202E+02 0.56363081E+02 -.10955034E+04 0.11043872E+04 0.12500000E+03 0.0000E+00 0.9000E+01
      -24  1    1    2    0    0 -.66330312E+01 -.16655005E+02 -.15775882E+04 0.15797383E+04 0.80419002E+02 0.0000E+00 0.9000E+01
       21  1    1    2  502  501 0.33864233E+02 -.39708076E+02 -.22354360E+03 0.22955570E+03 0.75000000E+00 0.0000E+00 0.9000E+01
#aMCatNLO 1  0  0  1  2 0.21740365D+02 0.00000000D+00  -5  6  0 0.00000000D+00 0.00000000D+00 0.00000000D+00 0.00000000D+00 0.00000000D+00
  <mgrwgt>
 -.7225560473D-01    7    4    0
 0.157355170810966D+03 0.000000000000000D+00 0.000000000000000D+00 0.157355170810966D+03
 0.157355170810966D+03 0.000000000000000D+00 0.000000000000000D+00 -.157355170810966D+03
 0.141585960880046D+03 -.272321349872050D+02 0.563641747927497D+02 0.224293321857085D+02
 0.105355414750874D+03 -.663372547696320D+01 -.166541908766380D+02 -.656595695652878D+02
 0.677689659910134D+02 0.338658604641682D+02 -.397099839161117D+02 0.432302373795792D+02
 0.000000000000000D+00 -.000000000000000D+00 -.000000000000000D+00 0.000000000000000D+00
 0.172872448622048D+03 0.000000000000000D+00 0.000000000000000D+00 0.172872448622048D+03
 0.165533564208185D+03 0.000000000000000D+00 0.000000000000000D+00 -.165533564208185D+03
 0.145292085947295D+03 -.249986688221345D+02 0.660059228686369D+02 0.224293321857085D+02
 0.104382281512963D+03 -.500082936195636D+01 -.960506999842061D+01 -.656595695652878D+02
 0.657859986741338D+02 0.349056419952253D+02 -.352213054068064D+02 0.432302373795792D+02
 0.229456466958420D+02 -.490614381113441D+01 -.211795474634098D+02 0.733888441386303D+01
 0.157355170810966D+03 0.000000000000000D+00 0.000000000000000D+00 0.157355170810966D+03
 0.157355170810966D+03 0.000000000000000D+00 0.000000000000000D+00 -.157355170810966D+03
 0.141585960880046D+03 -.272321349872050D+02 0.563641747927497D+02 0.224293321857085D+02
 0.105355414750874D+03 -.663372547696320D+01 -.166541908766380D+02 -.656595695652878D+02
 0.000000000000000D+00 -.000000000000000D+00 -.000000000000000D+00 0.000000000000000D+00
 0.677689659910134D+02 0.338658604641682D+02 -.397099839161117D+02 0.432302373795792D+02
 0.172872448622048D+03 0.000000000000000D+00 0.000000000000000D+00 0.172872448622048D+03
 0.165533564208185D+03 0.000000000000000D+00 0.000000000000000D+00 -.165533564208185D+03
 0.145292085947295D+03 -.249986688221345D+02 0.660059228686369D+02 0.224293321857085D+02
 0.104382281512963D+03 -.500082936195636D+01 -.960506999842061D+01 -.656595695652878D+02
 0.229456466958420D+02 -.490614381113441D+01 -.211795474634098D+02 0.733888441386303D+01
 0.657859986741338D+02 0.349056419952253D+02 -.352213054068064D+02 0.432302373795792D+02
0.366195530730D-03 0.000000000000D+00 0.000000000000D+00 0.820862324030D-05 0.000000000000D+00  6 -2 1 25 -24 21 21 2 0.13112301D-02 0.44694741D+00 0.18821207D+05 0.18821207D+05 0.18821207D+05 0.12367411D+01  1  2  2  1  6  1       -2 0.606780405334D-01 0.100000000000D+01
-.624334101806D-05 0.193246690719D-04 -.140628725950D-05 0.820862324030D-05 0.000000000000D+00  6 -2 1 25 -24 21 21 4 0.13112301D-02 0.44694741D+00 0.18821207D+05 0.18821207D+05 0.18821207D+05 0.12367411D+01  1  2  3  1  6  1       -2 -.158231587566D-02 0.100000000000D+01
0.164246634099D-04 0.000000000000D+00 0.000000000000D+00 0.820862324030D-05 0.000000000000D+00  6 -2 1 25 -24 21 21 4 0.13112301D-02 0.44694741D+00 0.18821207D+05 0.18821207D+05 0.18821207D+05 0.12367411D+01  1  2 15  1  6  1       -2 0.416267597598D-02 0.100000000000D+01
-.239084964740D-03 0.000000000000D+00 0.000000000000D+00 0.820862324030D-05 0.000000000000D+00  6 -2 1 25 -24 21 21 4 0.13112301D-02 0.44694741D+00 0.18821207D+05 0.18821207D+05 0.18821207D+05 0.12367411D+01  1  2  4  1  6  1       -2 -.605938285678D-01 0.100000000000D+01
-.201546157236D-02 0.000000000000D+00 -.500378649469D-03 0.820862324030D-05 0.000000000000D+00  6 -2 1 25 -24 21 21 4 0.15491919D-02 0.44694741D+00 0.18821207D+05 0.18821207D+05 0.18821207D+05 0.12367411D+01  1  2  5  1  6  1       -2 -.401702752003D+00 0.100000000000D+01
0.207684000021D-02 0.000000000000D+00 0.493500245162D-03 0.820862324030D-05 0.000000000000D+00  6 -2 1 25 -24 21 21 4 0.13112301D-02 0.44694741D+00 0.18821207D+05 0.18821207D+05 0.18821207D+05 0.12367411D+01  1  2  6  1  6  1       -2 0.526355503252D+00 0.100000000000D+01
-.458554586143D-04 0.000000000000D+00 -.124261705520D-04 0.820862324030D-05 0.000000000000D+00  6 21 1 25 -24 2 21 4 0.15491919D-02 0.44694741D+00 0.18821207D+05 0.18821207D+05 0.18821207D+05 0.12367411D+01  3  4  5  4  5  1       -2 -.199572928040D+00 0.100000000000D+01
  </mgrwgt>
  </event>
  <event>
  5     66 -.49582427E-03 0.40873546E+02 0.75467711E-02 0.12179709E+00
       -4 -1    0    0    0  501 0.00000000E+00 0.00000000E+00 0.84065376E+01 0.85482381E+01 0.15500000E+01 0.0000E+00 0.9000E+01
        3 -1    0    0  502    0 0.00000000E+00 0.00000000E+00 -.31058037E+04 0.31058038E+04 0.50000000E+00 0.0000E+00 0.9000E+01
       25  1    1    2    0    0 0.66329509E+02 -.13965693E+02 -.20723607E+04 0.20772333E+04 0.12500000E+03 0.0000E+00 0.9000E+01
      -24  1    1    2    0    0 -.25890895E+02 0.19903826E+02 -.92483685E+03 0.92890091E+03 0.80419002E+02 0.0000E+00 0.9000E+01
       21  1    1    2  502  501 -.40438613E+02 -.59381330E+01 -.10019970E+03 0.10821777E+03 0.75000000E+00 0.0000E+00 0.9000E+01
#aMCatNLO 1  0  0  1  1 0.36565093D+01 0.00000000D+00  -5  6  0 0.00000000D+00 0.00000000D+00 0.00000000D+00 0.00000000D+00 0.00000000D+00
  <mgrwgt>
 -.8710026287D-02    9    4    0
 0.162264494685304D+03 0.000000000000000D+00 0.000000000000000D+00 0.162264494685304D+03
 0.162264494685304D+03 0.000000000000000D+00 0.000000000000000D+00 -.162264494685304D+03
 0.155030915924820D+03 0.663303130941328D+02 -.139655747592630D+02 -.617643681985536D+02
 0.873184464771648D+02 -.258904423083237D+02 0.199038924358155D+02 -.952970113895503D+01
 0.821796269686233D+02 -.404398707858091D+02 -.593831767655246D+01 0.712940693375086D+02
 0.000000000000000D+00 -.000000000000000D+00 -.000000000000000D+00 0.000000000000000D+00
 0.166601573172234D+03 0.000000000000000D+00 0.000000000000000D+00 0.166601573172234D+03
 0.163047312019386D+03 0.000000000000000D+00 0.000000000000000D+00 -.163047312019386D+03
 0.155451725103391D+03 0.675550378081328D+02 -.127168598873890D+02 -.617643681985536D+02
 0.872798343059543D+02 -.252017248045405D+02 0.206061006787481D+02 -.952970113895503D+01
 0.818180284851556D+02 -.397929683341708D+02 -.527874356754780D+01 0.712940693375086D+02
 0.509929729711937D+01 -.256034466942151D+01 -.261049722381130D+01 0.355426115284840D+01
 0.162264494685304D+03 0.000000000000000D+00 0.000000000000000D+00 0.162264494685304D+03
 0.162264494685304D+03 0.000000000000000D+00 0.000000000000000D+00 -.162264494685304D+03
 0.155030915924820D+03 0.663303130941328D+02 -.139655747592630D+02 -.617643681985536D+02
 0.873184464771648D+02 -.258904423083237D+02 0.199038924358155D+02 -.952970113895503D+01
 0.000000000000000D+00 -.000000000000000D+00 -.000000000000000D+00 0.000000000000000D+00
 0.821796269686233D+02 -.404398707858091D+02 -.593831767655246D+01 0.712940693375086D+02
 0.166601573172234D+03 0.000000000000000D+00 0.000000000000000D+00 0.166601573172234D+03
 0.163047312019386D+03 0.000000000000000D+00 0.000000000000000D+00 -.163047312019386D+03
 0.155451725103391D+03 0.675550378081328D+02 -.127168598873890D+02 -.617643681985536D+02
 0.872798343059543D+02 -.252017248045405D+02 0.206061006787481D+02 -.952970113895503D+01
 0.509929729711937D+01 -.256034466942151D+01 -.261049722381130D+01 0.355426115284840D+01
 0.818180284851556D+02 -.397929683341708D+02 -.527874356754780D+01 0.712940693375086D+02
0.243931488617D-03 0.000000000000D+00 0.000000000000D+00 0.169790757044D-04 0.000000000000D+00  6 -4 3 25 -24 21 21 2 0.13042166D-02 0.47782686D+00 0.18206992D+05 0.18206992D+05 0.18206992D+05 0.12383423D+01  1  2  2  1  6  1       -4 0.853527642453D-03 0.100000000000D+01
0.656483223170D-05 0.128726183095D-04 -.936761144924D-06 0.169790757044D-04 0.000000000000D+00  6 -4 3 25 -24 21 21 4 0.13042166D-02 0.47782686D+00 0.18206992D+05 0.18206992D+05 0.18206992D+05 0.12383423D+01  1  2  3  1  6  1       -4 0.352253060028D-04 0.100000000000D+01
0.140987678363D-04 0.000000000000D+00 0.000000000000D+00 0.169790757044D-04 0.000000000000D+00  6 -4 3 25 -24 21 21 4 0.13042166D-02 0.47782686D+00 0.18206992D+05 0.18206992D+05 0.18206992D+05 0.12383423D+01  1  2 15  1  6  1       -4 0.756505869102D-04 0.100000000000D+01
-.161786744457D-02 0.000000000000D+00 0.000000000000D+00 0.169790757044D-04 0.000000000000D+00  6 -4 3 25 -24 21 21 4 0.13042166D-02 0.47782686D+00 0.18206992D+05 0.18206992D+05 0.18206992D+05 0.12383423D+01  1  2  4  1  6  1       -4 -.868108640030D-02 0.100000000000D+01
-.140430878302D-01 0.000000000000D+00 -.155953873702D-02 0.169790757044D-04 0.000000000000D+00  6 -4 3 25 -24 21 21 4 0.13478821D-02 0.47782686D+00 0.18206992D+05 0.18206992D+05 0.18206992D+05 0.12383423D+01  1  2  5  1  6  1       -4 -.716768019002D-01 0.100000000000D+01
0.140876520061D-01 0.000000000000D+00 0.155869344650D-02 0.169790757044D-04 0.000000000000D+00  6 -4 3 25 -24 21 21 4 0.13042166D-02 0.47782686D+00 0.18206992D+05 0.18206992D+05 0.18206992D+05 0.12383423D+01  1  2  6  1  6  1       -4 0.755909420470D-01 0.100000000000D+01
0.142855405003D-02 0.000000000000D+00 0.000000000000D+00 0.169790757044D-04 0.177206857940D-04  6 -4 3 25 -24 21 21 4 0.13390763D-02 0.48013206D+00 0.18661053D+05 0.18661053D+05 0.18661053D+05 0.12371529D+01  1  2 11  1  6  1       -4 0.715594349656D-02 0.100000000000D+01
-.819761909912D-04 0.000000000000D+00 -.917134197692D-05 0.169790757044D-04 0.000000000000D+00  6 21 3 25 -24 4 21 4 0.13478821D-02 0.47782686D+00 0.18206992D+05 0.18206992D+05 0.18206992D+05 0.12383423D+01  3  4  5  4  5  1       -4 -.127679933502D-01 0.100000000000D+01
0.461206114465D-05 0.000000000000D+00 0.000000000000D+00 0.169790757044D-04 0.113761115588D-06  6 21 3 25 -24 4 21 4 0.13390763D-02 0.48013206D+00 0.18661053D+05 0.18661053D+05 0.18661053D+05 0.12371529D+01  3  4 11  4  5  1       -4 0.704566284860D-03 0.100000000000D+01
  </mgrwgt>
  </event>
  <event>
  6     66 0.49582427E-03 0.32931741E+02 0.75467711E-02 0.11775346E+00
       21 -1    0    0  503  501 0.00000000E+00 0.00000000E+00 0.67390096E+03 0.67390138E+03 0.75000000E+00 0.0000E+00 0.9000E+01
        3 -1    0    0  502    0 0.00000000E+00 0.00000000E+00 -.26021724E+03 0.26021772E+03 0.50000000E+00 0.0000E+00 0.9000E+01
       25  1    1    2    0    0 0.10547423E+03 -.55943833E+01 -.69044419E+02 0.17761825E+03 0.12500000E+03 0.0000E+00 0.9000E+01
      -24  1    1    2    0    0 -.10445289E+03 0.37262640E+02 -.10124191E+03 0.17034098E+03 0.80419002E+02 0.0000E+00 0.9000E+01
        4  1    1    2  503    0 -.43016551E+01 -.35012134E+02 0.57434413E+03 0.57542848E+03 0.15500000E+01 0.0000E+00 0.9000E+01
       21  1    1    2  502  501 0.32803170E+01 0.33438781E+01 0.96259214E+01 0.10731396E+02 0.75000000E+00 0.0000E+00 0.9000E+01
#aMCatNLO 2  0  0  1  1 0.83336804D+02 0.00000000D+00  -5  6  0 0.00000000D+00 0.00000000D+00 0.00000000D+00 0.00000000D+00 0.00000000D+00
  <mgrwgt>
 0.1050006216D+00    1    2    0
 0.159376004456053D+03 0.000000000000000D+00 0.000000000000000D+00 0.159376004456053D+03
 0.159376004456053D+03 0.000000000000000D+00 0.000000000000000D+00 -.159376004456053D+03
 0.164262391919558D+03 0.103263850065482D+03 -.235726911732542D+02 0.117489956863823D+02
 0.137974309935668D+03 -.106322869017429D+03 0.220528757750322D+02 -.279072112868114D+02
 0.000000000000000D+00 -.000000000000000D+00 -.000000000000000D+00 0.000000000000000D+00
 0.165153070568789D+02 0.305901895194708D+01 0.151981539822194D+01 0.161582156004291D+02
 0.109133830311605D+04 0.000000000000000D+00 0.000000000000000D+00 0.109133830311605D+04
 0.160683140269792D+03 0.000000000000000D+00 0.000000000000000D+00 -.160683140269792D+03
 0.164069532806979D+03 0.105472577443158D+03 -.559536445272034D+01 0.117489956863823D+02
 0.139804097651755D+03 -.104454221080508D+03 0.372622197743033D+02 -.279072112868114D+02
 0.931323459340375D+03 -.430165512317016D+01 -.350121343040762D+02 0.930655162846259D+03
 0.168243535867352D+02 0.328329876051981D+01 0.334527898249316D+01 0.161582156004291D+02
0.206573704490D-02 0.000000000000D+00 0.000000000000D+00 0.160632096133D-02 0.570055975685D-05  6 21 3 25 -24 4 21 4 0.10367673D+00 0.40033331D-01 0.29002337D+05 0.29002337D+05 0.29002337D+05 0.12164430D+01  1  2  1  4  5  1       -4 0.105000621582D+00 0.100000000000D+01
  </mgrwgt>
  </event>
  <event>
  5     66 0.49582427E-03 0.22093959E+02 0.75467711E-02 0.12487232E+00
       -2 -1    0    0    0  501 0.00000000E+00 0.00000000E+00 0.65340851E+02 0.65341634E+02 0.32000000E+00 0.0000E+00 0.9000E+01
        1 -1    0    0  502    0 -.00000000E+00 -.00000000E+00 -.22418845E+03 0.22418868E+03 0.32000000E+00 0.0000E+00 0.9000E+01
       25  1    1    2    0    0 0.24027332E+02 0.25012927E+02 -.12377715E+03 0.17930070E+03 0.12500000E+03 0.0000E+00 0.9000E+01
      -24  1    1    2    0    0 -.66934271E+01 -.11327235E+02 -.33403259E+02 0.88068734E+02 0.80419002E+02 0.0000E+00 0.9000E+01
       21  1    1    2  502  501 -.17333905E+02 -.13685692E+02 -.16671926E+01 0.22160877E+02 0.75000000E+00 0.0000E+00 0.9000E+01
#aMCatNLO 1  0  0  5  1 0.50114612D+01 0.00000000D+00  -5  6  0 0.00000000D+00 0.00000000D+00 0.00000000D+00 0.00000000D+00 0.00000000D+00
  <mgrwgt>
 0.3047905810D+00   20    2    0
 0.121032269956239D+03 0.000000000000000D+00 0.000000000000000D+00 0.121032269956239D+03
 0.121032269956239D+03 -.000000000000000D+00 -.000000000000000D+00 -.121032269956239D+03
 0.133236293216971D+03 0.240314901333343D+02 0.250162099397597D+02 -.303905668328165D+02
 0.834171116359743D+02 -.669082383644114D+01 -.113251798829921D+02 0.178373690976458D+02
 0.254111350595328D+02 -.173406662968932D+02 -.136910300567677D+02 0.125531977351707D+02
 0.000000000000000D+00 0.000000000000000D+00 -.000000000000000D+00 0.000000000000000D+00
 0.121032269956239D+03 0.000000000000000D+00 0.000000000000000D+00 0.121032269956239D+03
 0.121032269956239D+03 -.000000000000000D+00 -.000000000000000D+00 -.121032269956239D+03
 0.132648476914631D+03 0.228195835188977D+02 0.240593695508053D+02 -.295132474088039D+02
 0.836847855075271D+02 -.745247669204804D+01 -.119265300249301D+02 0.183887423112404D+02
 0.195443254214922D+02 -.156019951644914D+02 -.603474475300044D+01 0.101064463999225D+02
 0.618695206882723D+01 0.234888337641812D+00 -.609809477287480D+01 0.101805869764100D+01
0.590480494346D-03 0.000000000000D+00 0.000000000000D+00 0.517090771036D-04 0.000000000000D+00  6 -2 1 25 -24 21 21 2 0.10052516D-01 0.34490608D-01 0.13607884D+05 0.13607884D+05 0.13607884D+05 0.12526739D+01  1  2  2  3  6  5       21 0.637686830206D+00 0.100000000000D+01
0.901646459500D-04 0.311605117734D-04 -.226760057537D-05 0.517090771036D-04 0.000000000000D+00  6 -2 1 25 -24 21 21 4 0.10052516D-01 0.34490608D-01 0.13607884D+05 0.13607884D+05 0.13607884D+05 0.12526739D+01  1  2  3  3  6  5       21 0.152796786072D+00 0.100000000000D+01
0.259872800803D-04 0.000000000000D+00 0.000000000000D+00 0.517090771036D-04 0.000000000000D+00  6 -2 1 25 -24 21 21 4 0.10052516D-01 0.34490608D-01 0.13607884D+05 0.13607884D+05 0.13607884D+05 0.12526739D+01  1  2 15  3  6  5       21 0.440391334451D-01 0.100000000000D+01
0.131777010885D-03 0.000000000000D+00 0.000000000000D+00 0.516917816295D-04 0.000000000000D+00  6 -2 1 25 -24 21 21 4 0.10052516D-01 0.34490608D-01 0.13664915D+05 0.13664915D+05 0.13664915D+05 0.12524644D+01  1  2 12  3  6  5       21 0.223199715860D+00 0.100000000000D+01
0.143285698871D-03 0.000000000000D+00 0.000000000000D+00 0.516917816295D-04 0.000000000000D+00  6 -2 1 25 -24 21 21 4 0.10052516D-01 0.34490608D-01 0.13664915D+05 0.13664915D+05 0.13664915D+05 0.12524644D+01  1  2 12  3  6  5       21 0.242692766060D+00 0.100000000000D+01
-.109461193490D-02 0.000000000000D+00 0.000000000000D+00 0.517090771036D-04 0.000000000000D+00  6 -2 1 25 -24 21 21 4 0.10052516D-01 0.34490608D-01 0.13607884D+05 0.13607884D+05 0.13607884D+05 0.12526739D+01  1  2  4  3  6  5       21 -.185497523876D+01 0.100000000000D+01
-.986196382124D-03 0.000000000000D+00 0.000000000000D+00 0.517090771036D-04 0.000000000000D+00  6 -2 1 25 -24 21 21 4 0.10052516D-01 0.34490608D-01 0.13607884D+05 0.13607884D+05 0.13607884D+05 0.12526739D+01  1  2  5  3  6  5       21 -.167124970144D+01 0.100000000000D+01
0.156417284206D-02 0.000000000000D+00 -.000000000000D+00 0.517090771036D-04 0.000000000000D+00  6 -2 1 25 -24 21 21 4 0.10052516D-01 0.34490608D-01 0.13607884D+05 0.13607884D+05 0.13607884D+05 0.12526739D+01  1  2  6  3  6  5       21 0.265071282219D+01 0.100000000000D+01
0.376339390709D-05 0.000000000000D+00 0.000000000000D+00 0.516917816295D-04 0.000000000000D+00  6 -2 1 25 -24 1 -1 4 0.10052516D-01 0.34490608D-01 0.13664915D+05 0.13664915D+05 0.13664915D+05 0.12524644D+01  1  2 12  6  6  5       21 0.637431707619D-02 0.100000000000D+01
0.396721481447D-05 0.000000000000D+00 0.000000000000D+00 0.516917816295D-04 0.000000000000D+00  6 -2 1 25 -24 1 -1 4 0.10052516D-01 0.34490608D-01 0.13664915D+05 0.13664915D+05 0.13664915D+05 0.12524644D+01  1  2 12  6  6  5       21 0.671954245584D-02 0.100000000000D+01
-.254460797527D-04 0.000000000000D+00 0.000000000000D+00 0.517090771036D-04 0.000000000000D+00  6 -2 1 25 -24 1 -1 4 0.10052516D-01 0.34490608D-01 0.13607884D+05 0.13607884D+05 0.13607884D+05 0.12526739D+01  1  2  5  6  6  5       21 -.431219926987D-01 0.100000000000D+01
0.376339390709D-05 0.000000000000D+00 0.000000000000D+00 0.516917816295D-04 0.000000000000D+00  6 -2 1 25 -24 2 -2 4 0.10052516D-01 0.34490608D-01 0.13664915D+05 0.13664915D+05 0.13664915D+05 0.12524644D+01  1  2 12  7  6  5       21 0.637431707619D-02 0.100000000000D+01
0.396721481447D-05 0.000000000000D+00 0.000000000000D+00 0.516917816295D-04 0.000000000000D+00  6 -2 1 25 -24 2 -2 4 0.10052516D-01 0.34490608D-01 0.13664915D+05 0.13664915D+05 0.13664915D+05 0.12524644D+01  1  2 12  7  6  5       21 0.671954245584D-02 0.100000000000D+01
-.254460797527D-04 0.000000000000D+00 0.000000000000D+00 0.517090771036D-04 0.000000000000D+00  6 -2 1 25 -24 2 -2 4 0.10052516D-01 0.34490608D-01 0.13607884D+05 0.13607884D+05 0.13607884D+05 0.12526739D+01  1  2  5  7  6  5       21 -.431219926987D-01 0.100000000000D+01
0.376339390709D-05 0.000000000000D+00 0.000000000000D+00 0.516917816295D-04 0.000000000000D+00  6 -2 1 25 -24 3 -3 4 0.10052516D-01 0.34490608D-01 0.13664915D+05 0.13664915D+05 0.13664915D+05 0.12524644D+01  1  2 12  8  6  5       21 0.637431707619D-02 0.100000000000D+01
0.376339390709D-05 0.000000000000D+00 0.000000000000D+00 0.516917816295D-04 0.000000000000D+00  6 -2 1 25 -24 4 -4 4 0.10052516D-01 0.34490608D-01 0.13664915D+05 0.13664915D+05 0.13664915D+05 0.12524644D+01  1  2 12  8  6  5       21 0.637431707619D-02 0.100000000000D+01
0.396721481447D-05 0.000000000000D+00 0.000000000000D+00 0.516917816295D-04 0.000000000000D+00  6 -2 1 25 -24 3 -3 4 0.10052516D-01 0.34490608D-01 0.13664915D+05 0.13664915D+05 0.13664915D+05 0.12524644D+01  1  2 12  8  6  5       21 0.671954245584D-02 0.100000000000D+01
0.396721481447D-05 0.000000000000D+00 0.000000000000D+00 0.516917816295D-04 0.000000000000D+00  6 -2 1 25 -24 4 -4 4 0.10052516D-01 0.34490608D-01 0.13664915D+05 0.13664915D+05 0.13664915D+05 0.12524644D+01  1  2 12  8  6  5       21 0.671954245584D-02 0.100000000000D+01
-.254460797527D-04 0.000000000000D+00 0.000000000000D+00 0.517090771036D-04 0.000000000000D+00  6 -2 1 25 -24 3 -3 4 0.10052516D-01 0.34490608D-01 0.13607884D+05 0.13607884D+05 0.13607884D+05 0.12526739D+01  1  2  5  8  6  5       21 -.431219926987D-01 0.100000000000D+01
-.254460797527D-04 0.000000000000D+00 0.000000000000D+00 0.517090771036D-04 0.000000000000D+00  6 -2 1 25 -24 4 -4 4 0.10052516D-01 0.34490608D-01 0.13607884D+05 0.13607884D+05 0.13607884D+05 0.12526739D+01  1  2  5  8  6  5       21 -.431219926987D-01 0.100000000000D+01
  </mgrwgt>
  </event>
  <event>
  5     66 0.49582427E-03 0.28016651E+02 0.75467711E-02 0.10540801E+00
       -2 -1    0    0    0  501 0.00000000E+00 0.00000000E+00 0.77231041E+02 0.77231704E+02 0.32000000E+00 0.0000E+00 0.9000E+01
        1 -1    0    0  502    0 0.00000000E+00 0.00000000E+00 -.17348776E+04 0.17348776E+04 0.32000000E+00 0.0000E+00 0.9000E+01
       25  1    1    2    0    0 0.10011093E+03 -.32516921E+03 -.72283920E+03 0.80862767E+03 0.12500000E+03 0.0000E+00 0.9000E+01
      -24  1    1    2    0    0 -.83250144E+02 0.30280109E+03 -.91014831E+03 0.96615539E+03 0.80419002E+02 0.0000E+00 0.9000E+01
       21  1    1    2  502  501 -.16860790E+02 0.22368116E+02 -.24659068E+02 0.37326278E+02 0.75000000E+00 0.0000E+00 0.9000E+01
#aMCatNLO 1  0  0  1  1 0.28011804D+02 0.00000000D+00  -5  6  0 0.00000000D+00 0.00000000D+00 0.00000000D+00 0.00000000D+00 0.00000000D+00
  <mgrwgt>
 0.9370632618D+00    4    2    0
 0.366042391100656D+03 0.000000000000000D+00 0.000000000000000D+00 0.366042391100656D+03
 0.366042391100656D+03 0.000000000000000D+00 0.000000000000000D+00 -.366042391100656D+03
 0.364864206344796D+03 0.100112703334917D+03 -.325171555536576D+03 0.417348196655510D+02
 0.330663340868302D+03 -.832485409371055D+02 0.302798966008137D+03 -.652188289994737D+02
 0.365572349882145D+02 -.168641623978110D+02 0.223725895284391D+02 0.234840093339227D+02
 0.000000000000000D+00 0.000000000000000D+00 0.000000000000000D+00 -.000000000000000D+00
 0.375518030466259D+03 0.000000000000000D+00 0.000000000000000D+00 0.375518030466259D+03
 0.387614538755756D+03 0.000000000000000D+00 0.000000000000000D+00 -.387614538755756D+03
 0.368010960177937D+03 0.879614320336615D+02 -.332156677056414D+03 0.417348196655510D+02
 0.327892746707427D+03 -.941675815224130D+02 0.296522188584813D+03 -.652188289994737D+02
 0.367167879817828D+02 -.180790657989828D+02 0.216742059863670D+02 0.234840093339227D+02
 0.305120743548684D+02 0.242852152877343D+02 0.139602824852342D+02 -.120965082894973D+02
0.221007762189D-01 0.000000000000D+00 0.000000000000D+00 0.175452048003D-04 0.000000000000D+00  6 -2 1 25 -24 21 21 2 0.11881752D-01 0.26690430D+00 0.12768254D+06 0.12768254D+06 0.12768254D+06 0.11539463D+01  1  2  2  1  6  1       -2 0.644320384525D+00 0.100000000000D+01
0.957886818510D-02 0.116629000308D-02 -.848727999486D-04 0.175452048003D-04 0.000000000000D+00  6 -2 1 25 -24 21 21 4 0.11881752D-01 0.26690430D+00 0.12768254D+06 0.12768254D+06 0.12768254D+06 0.11539463D+01  1  2  3  1  6  1       -2 0.371860234423D+00 0.100000000000D+01
0.658240797739D-03 0.000000000000D+00 0.000000000000D+00 0.175452048003D-04 0.000000000000D+00  6 -2 1 25 -24 21 21 4 0.11881752D-01 0.26690430D+00 0.12768254D+06 0.12768254D+06 0.12768254D+06 0.11539463D+01  1  2 15  1  6  1       -2 0.255534967831D-01 0.100000000000D+01
-.269625041771D-02 0.000000000000D+00 0.000000000000D+00 0.175452048003D-04 0.000000000000D+00  6 -2 1 25 -24 21 21 4 0.11881752D-01 0.26690430D+00 0.12768254D+06 0.12768254D+06 0.12768254D+06 0.11539463D+01  1  2  4  1  6  1       -2 -.104670853906D+00 0.100000000000D+01
  </mgrwgt>
  </event>
  <event>
  5     66 0.49582427E-03 0.29813479E+02 0.75467711E-02 0.11378711E+00
       -2 -1    0    0    0  501 0.00000000E+00 0.00000000E+00 0.27844221E+03 0.27844239E+03 0.32000000E+00 0.0000E+00 0.9000E+01
        1 -1    0    0  502    0 0.00000000E+00 0.00000000E+00 -.12018654E+03 0.12018696E+03 0.32000000E+00 0.0000E+00 0.9000E+01
       25  1    1    2    0    0 0.51780319E+01 0.97281236E+02 0.99164989E+02 0.18694691E+03 0.12500000E+03 0.0000E+00 0.9000E+01
      -24  1    1    2    0    0 0.22627619E+02 -.86530616E+02 -.24661010E+02 0.12278004E+03 0.80419002E+02 0.0000E+00 0.9000E+01
       21  1    1    2  502  501 -.27805651E+02 -.10750620E+02 0.83751690E+02 0.88902408E+02 0.75000000E+00 0.0000E+00 0.9000E+01
#aMCatNLO 1  0  0  1  1 0.28011804D+02 0.00000000D+00  -5  6  0 0.00000000D+00 0.00000000D+00 0.00000000D+00 0.00000000D+00 0.00000000D+00
  <mgrwgt>
 0.9760151907D-01    7    4    0
 0.182934759555840D+03 0.000000000000000D+00 0.000000000000000D+00 0.182934759555840D+03
 0.182934759555840D+03 0.000000000000000D+00 0.000000000000000D+00 -.182934759555840D+03
 0.160792526110418D+03 0.517896681397386D+01 0.972815975052247D+02 0.271791380021643D+02
 0.144441582414252D+03 0.226284592664109D+02 -.865302912970188D+02 -.799788490492576D+02
 0.606354105870094D+02 -.278074260803847D+02 -.107513062082059D+02 0.527997110470933D+02
 0.000000000000000D+00 -.000000000000000D+00 0.000000000000000D+00 0.000000000000000D+00
 0.311728653502188D+03 0.000000000000000D+00 0.000000000000000D+00 0.311728653502188D+03
 0.210455985894162D+03 0.000000000000000D+00 0.000000000000000D+00 -.210455985894162D+03
 0.141989229963096D+03 0.186952318370932D+02 0.587173244411709D+02 0.271791380021643D+02
 0.174310057223144D+03 0.368576245033243D+02 -.127128593618797D+03 -.799788490492576D+02
 0.631461422026499D+02 -.222817818203916D+02 -.265169377441892D+02 0.527997110470933D+02
 0.142739210007460D+03 -.332710745200259D+02 0.949282069218152D+02 0.101272667608025D+03
 0.182934759555840D+03 0.000000000000000D+00 0.000000000000000D+00 0.182934759555840D+03
 0.182934759555840D+03 0.000000000000000D+00 0.000000000000000D+00 -.182934759555840D+03
 0.160792526110418D+03 0.517896681397386D+01 0.972815975052247D+02 0.271791380021643D+02
 0.144441582414252D+03 0.226284592664109D+02 -.865302912970188D+02 -.799788490492576D+02
 0.000000000000000D+00 -.000000000000000D+00 0.000000000000000D+00 0.000000000000000D+00
 0.606354105870094D+02 -.278074260803847D+02 -.107513062082059D+02 0.527997110470933D+02
 0.311728653502188D+03 0.000000000000000D+00 0.000000000000000D+00 0.311728653502188D+03
 0.210455985894162D+03 0.000000000000000D+00 0.000000000000000D+00 -.210455985894162D+03
 0.141989229963096D+03 0.186952318370932D+02 0.587173244411709D+02 0.271791380021643D+02
 0.174310057223144D+03 0.368576245033243D+02 -.127128593618797D+03 -.799788490492576D+02
 0.142739210007460D+03 -.332710745200259D+02 0.949282069218152D+02 0.101272667608025D+03
 0.631461422026499D+02 -.222817818203916D+02 -.265169377441892D+02 0.527997110470933D+02
0.250197040690D-03 0.000000000000D+00 0.000000000000D+00 0.204556745822D-04 0.000000000000D+00  6 -2 1 25 -24 21 21 2 0.42837309D-01 0.18490283D-01 0.23803877D+05 0.23803877D+05 0.23803877D+05 0.12255870D+01  1  2  2  1  6  1       -2 0.478179141459D-01 0.100000000000D+01
0.255065977724D-04 0.132032605763D-04 -.960822514642D-06 0.204556745822D-04 0.000000000000D+00  6 -2 1 25 -24 21 21 4 0.42837309D-01 0.18490283D-01 0.23803877D+05 0.23803877D+05 0.23803877D+05 0.12255870D+01  1  2  3  1  6  1       -2 0.732233034420D-02 0.100000000000D+01
0.119152357027D-04 0.000000000000D+00 0.000000000000D+00 0.204556745822D-04 0.000000000000D+00  6 -2 1 25 -24 21 21 4 0.42837309D-01 0.18490283D-01 0.23803877D+05 0.23803877D+05 0.23803877D+05 0.12255870D+01  1  2 15  1  6  1       -2 0.342057740206D-02 0.100000000000D+01
-.635528715617D-04 0.000000000000D+00 0.000000000000D+00 0.204556745822D-04 0.000000000000D+00  6 -2 1 25 -24 21 21 4 0.42837309D-01 0.18490283D-01 0.23803877D+05 0.23803877D+05 0.23803877D+05 0.12255870D+01  1  2  4  1  6  1       -2 -.182444998760D-01 0.100000000000D+01
-.272378411612D-03 0.000000000000D+00 -.127315888490D-03 0.204556745822D-04 0.000000000000D+00  6 -2 1 25 -24 21 21 4 0.81172689D-01 0.18490283D-01 0.23803877D+05 0.23803877D+05 0.23803877D+05 0.12255870D+01  1  2  5  1  6  1       -2 -.210292180789D-01 0.100000000000D+01
0.310377096922D-03 0.000000000000D+00 0.105105216844D-03 0.204556745822D-04 0.000000000000D+00  6 -2 1 25 -24 21 21 4 0.42837309D-01 0.18490283D-01 0.23803877D+05 0.23803877D+05 0.23803877D+05 0.12255870D+01  1  2  6  1  6  1       -2 0.891017945714D-01 0.100000000000D+01
-.116754399608D-04 0.000000000000D+00 -.884518544362D-05 0.204556745822D-04 0.000000000000D+00  6 21 1 25 -24 2 21 4 0.81172689D-01 0.18490283D-01 0.23803877D+05 0.23803877D+05 0.23803877D+05 0.12255870D+01  3  4  5  4  5  1       -2 -.107873794359D-01 0.100000000000D+01
  </mgrwgt>
  </event>
  <event>
  5     66 0.49582427E-03 0.24999248E+03 0.75467711E-02 0.10727859E+00
       -2 -1    0    0    0  501 0.00000000E+00 0.00000000E+00 0.98394033E+02 0.98394554E+02 0.32000000E+00 0.0000E+00 0.9000E+01
        1 -1    0    0  502    0 0.00000000E+00 0.00000000E+00 -.12509113E+04 0.12509113E+04 0.32000000E+00 0.0000E+00 0.9000E+01
       25  1    1    2    0    0 -.30138545E+02 -.13000890E+03 -.55520752E+03 0.58454344E+03 0.12500000E+03 0.0000E+00 0.9000E+01
      -24  1    1    2    0    0 0.19653150E+03 -.56563681E+02 -.34889181E+03 0.41233092E+03 0.80419002E+02 0.0000E+00 0.9000E+01
       21  1    1    2  502  501 -.16639295E+03 0.18657258E+03 -.24841791E+03 0.35243151E+03 0.75000000E+00 0.0000E+00 0.9000E+01
#aMCatNLO 1  0  0  1  1 0.28011804D+02 0.00000000D+00  -5  6  0 0.00000000D+00 0.00000000D+00 0.00000000D+00 0.00000000D+00 0.00000000D+00
  <mgrwgt>
 0.1417994226D-02    1    2    0
 0.350831276296154D+03 0.000000000000000D+00 0.000000000000000D+00 0.350831276296154D+03
 0.350831276296154D+03 0.000000000000000D+00 0.000000000000000D+00 -.350831276296154D+03
 0.212127290149059D+03 -.301383504974321D+02 -.130009120234602D+03 -.107528115909754D+03
 0.219844814134694D+03 0.196531698462379D+03 -.565639074724481D+02 0.635155244711163D+01
 0.269690448308556D+03 -.166393347964947D+03 0.186573027707050D+03 0.101176563462643D+03
 0.000000000000000D+00 -.000000000000000D+00 -.000000000000000D+00 -.000000000000000D+00
 0.466078284196336D+03 0.000000000000000D+00 0.000000000000000D+00 0.466078284196336D+03
 0.104668425252613D+04 0.000000000000000D+00 0.000000000000000D+00 -.104668425252613D+04
 0.218823951044858D+03 0.833649388600160D+02 -.117247229428445D+03 -.107528115909754D+03
 0.360807174737993D+03 0.349462945455443D+03 -.393688826760425D+02 0.635155244711163D+01
 0.228055963380399D+03 -.352976471240682D+02 0.201312944309988D+03 0.101176563462643D+03
 0.705075447559212D+03 -.397530237191390D+03 -.446968322055007D+02 -.580605968329790D+03
0.250095727081D-04 0.000000000000D+00 0.000000000000D+00 0.426898321228D-06 0.000000000000D+00  6 -2 1 25 -24 21 21 4 0.15137587D-01 0.19244793D+00 0.10647163D+06 0.10647163D+06 0.10647163D+06 0.11610782D+01  1  2 14  1  6  1       -2 0.141799422621D-02 0.100000000000D+01
  </mgrwgt>
  </event>
  <event>
  5     66 0.49582427E-03 0.84463494E+02 0.75467711E-02 0.11730760E+00
       -2 -1    0    0    0  501 0.00000000E+00 0.00000000E+00 0.23160665E+02 0.23162876E+02 0.32000000E+00 0.0000E+00 0.9000E+01
        1 -1    0    0  502    0 -.00000000E+00 -.00000000E+00 -.16430813E+04 0.16430813E+04 0.32000000E+00 0.0000E+00 0.9000E+01
       25  1    1    2    0    0 -.14164265E+02 0.28121294E+02 -.30336826E+03 0.32961907E+03 0.12500000E+03 0.0000E+00 0.9000E+01
      -24  1    1    2    0    0 -.77922271E+02 -.42401060E+02 -.47215303E+03 0.48709900E+03 0.80419002E+02 0.0000E+00 0.9000E+01
       21  1    1    2  502  501 0.92086536E+02 0.14279766E+02 -.84439936E+03 0.84952615E+03 0.75000000E+00 0.0000E+00 0.9000E+01
#aMCatNLO 1  0  0  5  1 0.35964957D+02 0.00000000D+00  -5  6  0 0.00000000D+00 0.00000000D+00 0.00000000D+00 0.00000000D+00 0.00000000D+00
  <mgrwgt>
 0.4650096003D-01   15    2    0
 0.195081325691615D+03 0.000000000000000D+00 0.000000000000000D+00 0.195081325691615D+03
 0.195081325691615D+03 -.000000000000000D+00 -.000000000000000D+00 -.195081325691615D+03
 0.148126675808834D+03 -.141649238570566D+02 0.281211917140926D+02 0.729730470439487D+02
 0.119887427518025D+03 -.779228047918101D+02 -.424011428896480D+02 0.599657381746891D+01
 0.122148548056371D+03 0.920877286488666D+02 0.142799511755554D+02 -.789696208614176D+02
 0.000000000000000D+00 0.000000000000000D+00 0.000000000000000D+00 0.000000000000000D+00
 0.195081325691615D+03 0.000000000000000D+00 0.000000000000000D+00 0.195081325691615D+03
 0.195081325691615D+03 -.000000000000000D+00 -.000000000000000D+00 -.195081325691615D+03
 0.144438183301016D+03 -.587540704688690D+01 0.294066387226678D+02 0.658643908828272D+02
 0.115139678106058D+03 -.712635595603626D+02 -.413685004500270D+02 0.285953316057688D+00
 0.889618900174703D+02 0.590929553433578D+02 -.252582072977772D+02 -.615163674835480D+02
 0.416228999586851D+02 0.180460112638916D+02 0.372200690251365D+02 -.463397671533687D+01
0.142997691304D-03 0.000000000000D+00 0.000000000000D+00 0.336303079918D-05 0.000000000000D+00  6 -2 1 25 -24 21 21 2 0.35633517D-02 0.25278191D+00 0.29212023D+05 0.29212023D+05 0.29212023D+05 0.12161135D+01  1  2  2  3  6  5       21 0.351105573530D-01 0.100000000000D+01
-.914183600715D-05 0.754619549011D-05 -.549148786763D-06 0.336303079918D-05 0.000000000000D+00  6 -2 1 25 -24 21 21 4 0.35633517D-02 0.25278191D+00 0.29212023D+05 0.29212023D+05 0.29212023D+05 0.12161135D+01  1  2  3  3  6  5       21 -.331963505094D-02 0.100000000000D+01
0.698400627952D-05 0.000000000000D+00 0.000000000000D+00 0.336303079918D-05 0.000000000000D+00  6 -2 1 25 -24 21 21 4 0.35633517D-02 0.25278191D+00 0.29212023D+05 0.29212023D+05 0.29212023D+05 0.12161135D+01  1  2 15  3  6  5       21 0.253607175006D-02 0.100000000000D+01
0.821401284427D-04 0.000000000000D+00 0.000000000000D+00 0.335211304968D-05 0.000000000000D+00  6 -2 1 25 -24 21 21 4 0.35633517D-02 0.25278191D+00 0.30505233D+05 0.30505233D+05 0.30505233D+05 0.12141379D+01  1  2 12  3  6  5       21 0.296320482124D-01 0.100000000000D+01
-.896269658055D-04 0.000000000000D+00 0.000000000000D+00 0.336303079918D-05 0.000000000000D+00  6 -2 1 25 -24 21 21 4 0.35633517D-02 0.25278191D+00 0.29212023D+05 0.29212023D+05 0.29212023D+05 0.12161135D+01  1  2  4  3  6  5       21 -.325458493200D-01 0.100000000000D+01
-.111351314544D-03 0.000000000000D+00 0.000000000000D+00 0.336303079918D-05 0.000000000000D+00  6 -2 1 25 -24 21 21 4 0.35633517D-02 0.25278191D+00 0.29212023D+05 0.29212023D+05 0.29212023D+05 0.12161135D+01  1  2  5  3  6  5       21 -.404345173596D-01 0.100000000000D+01
0.161099890934D-03 0.000000000000D+00 -.000000000000D+00 0.336303079918D-05 0.000000000000D+00  6 -2 1 25 -24 21 21 4 0.35633517D-02 0.25278191D+00 0.29212023D+05 0.29212023D+05 0.29212023D+05 0.12161135D+01  1  2  6  3  6  5       21 0.584995010004D-01 0.100000000000D+01
0.158999590881D-05 0.000000000000D+00 0.000000000000D+00 0.335211304968D-05 0.000000000000D+00  6 -2 1 25 -24 1 -1 4 0.35633517D-02 0.25278191D+00 0.30505233D+05 0.30505233D+05 0.30505233D+05 0.12141379D+01  1  2 12  6  6  5       21 0.573590963647D-03 0.100000000000D+01
-.362930885660D-05 0.000000000000D+00 0.000000000000D+00 0.336303079918D-05 0.000000000000D+00  6 -2 1 25 -24 1 -1 4 0.35633517D-02 0.25278191D+00 0.29212023D+05 0.29212023D+05 0.29212023D+05 0.12161135D+01  1  2  5  6  6  5       21 -.131789510134D-02 0.100000000000D+01
0.158999590881D-05 0.000000000000D+00 0.000000000000D+00 0.335211304968D-05 0.000000000000D+00  6 -2 1 25 -24 2 -2 4 0.35633517D-02 0.25278191D+00 0.30505233D+05 0.30505233D+05 0.30505233D+05 0.12141379D+01  1  2 12  7  6  5       21 0.573590963647D-03 0.100000000000D+01
-.362930885660D-05 0.000000000000D+00 0.000000000000D+00 0.336303079918D-05 0.000000000000D+00  6 -2 1 25 -24 2 -2 4 0.35633517D-02 0.25278191D+00 0.29212023D+05 0.29212023D+05 0.29212023D+05 0.12161135D+01  1  2  5  7  6  5       21 -.131789510134D-02 0.100000000000D+01
0.158999590881D-05 0.000000000000D+00 0.000000000000D+00 0.335211304968D-05 0.000000000000D+00  6 -2 1 25 -24 3 -3 4 0.35633517D-02 0.25278191D+00 0.30505233D+05 0.30505233D+05 0.30505233D+05 0.12141379D+01  1  2 12  8  6  5       21 0.573590963647D-03 0.100000000000D+01
0.158999590881D-05 0.000000000000D+00 0.000000000000D+00 0.335211304968D-05 0.000000000000D+00  6 -2 1 25 -24 4 -4 4 0.35633517D-02 0.25278191D+00 0.30505233D+05 0.30505233D+05 0.30505233D+05 0.12141379D+01  1  2 12  8  6  5       21 0.573590963647D-03 0.100000000000D+01
-.362930885660D-05 0.000000000000D+00 0.000000000000D+00 0.336303079918D-05 0.000000000000D+00  6 -2 1 25 -24 3 -3 4 0.35633517D-02 0.25278191D+00 0.29212023D+05 0.29212023D+05 0.29212023D+05 0.12161135D+01  1  2  5  8  6  5       21 -.131789510134D-02 0.100000000000D+01
-.362930885660D-05 0.000000000000D+00 0.000000000000D+00 0.336303079918D-05 0.000000000000D+00  6 -2 1 25 -24 4 -4 4 0.35633517D-02 0.25278191D+00 0.29212023D+05 0.29212023D+05 0.29212023D+05 0.12161135D+01  1  2  5  8  6  5       21 -.131789510134D-02 0.100000000000D+01
  </mgrwgt>
  </event>
  <event>
  5     66 0.49582427E-03 0.56754599E+02 0.75467711E-02 0.11531195E+00
       -2 -1    0    0    0  501 0.00000000E+00 0.00000000E+00 0.33915905E+02 0.33917415E+02 0.32000000E+00 0.0000E+00 0.9000E+01
        1 -1    0    0  502    0 -.00000000E+00 -.00000000E+00 -.17121415E+04 0.17121415E+04 0.32000000E+00 0.0000E+00 0.9000E+01
       25  1    1    2    0    0 -.82829079E+02 -.94289610E+01 -.26293757E+03 0.30283779E+03 0.12500000E+03 0.0000E+00 0.9000E+01
      -24  1    1    2    0    0 0.54888215E+02 0.60735058E+02 -.23533891E+03 0.26182643E+03 0.80419002E+02 0.0000E+00 0.9000E+01
       21  1    1    2  502  501 0.27940865E+02 -.51306097E+02 -.11799491E+04 0.11813947E+04 0.75000000E+00 0.0000E+00 0.9000E+01
#aMCatNLO 1  0  0  5  1 0.48396911D+02 0.00000000D+00  -5  6  0 0.00000000D+00 0.00000000D+00 0.00000000D+00 0.00000000D+00 0.00000000D+00
  <mgrwgt>
 0.8889825672D-01    9    2    0
 0.240977536742631D+03 0.000000000000000D+00 0.000000000000000D+00 0.240977536742631D+03
 0.240977536742631D+03 -.000000000000000D+00 -.000000000000000D+00 -.240977536742631D+03
 0.181561006356395D+03 -.828291799221927D+02 -.942877581776081D+01 0.101930486946460D+03
 0.129084050138590D+03 0.548881428220060D+02 0.607351901745186D+02 0.591101048707206D+02
 0.171310016990277D+03 0.279410371001867D+02 -.513064143567579D+02 -.161040591817180D+03
 0.000000000000000D+00 -.000000000000000D+00 0.000000000000000D+00 0.000000000000000D+00
 0.240977536742631D+03 0.000000000000000D+00 0.000000000000000D+00 0.240977536742631D+03
 0.240977536742631D+03 -.000000000000000D+00 -.000000000000000D+00 -.240977536742631D+03
 0.167583433259004D+03 -.785703918477131D+02 -.172489274042389D+02 0.773845923370733D+02
 0.120788675735561D+03 0.579360360843554D+02 0.551385305347007D+02 0.415433075824028D+02
 0.144279942022820D+03 0.698672451002834D+02 -.404353028949115D+02 -.119583677866178D+03
 0.493030224678779D+02 -.492328893369257D+02 0.254569976444953D+01 0.655777946701985D+00
0.425063043177D-03 0.000000000000D+00 0.000000000000D+00 0.111180665806D-04 0.000000000000D+00  6 -2 1 25 -24 21 21 2 0.52179500D-02 0.26340650D+00 0.26150867D+05 0.26150867D+05 0.26150867D+05 0.12212076D+01  1  2  2  3  6  5       21 0.536709773630D-01 0.100000000000D+01
0.116413486292D-04 0.224311930507D-04 -.163235400747D-05 0.111180665806D-04 0.000000000000D+00  6 -2 1 25 -24 21 21 4 0.52179500D-02 0.26340650D+00 0.26150867D+05 0.26150867D+05 0.26150867D+05 0.12212076D+01  1  2  3  3  6  5       21 0.219214079662D-02 0.100000000000D+01
0.207493492730D-04 0.000000000000D+00 0.000000000000D+00 0.111180665806D-04 0.000000000000D+00  6 -2 1 25 -24 21 21 4 0.52179500D-02 0.26340650D+00 0.26150867D+05 0.26150867D+05 0.26150867D+05 0.12212076D+01  1  2 15  3  6  5       21 0.390723587905D-02 0.100000000000D+01
0.271774305866D-03 0.000000000000D+00 0.000000000000D+00 0.108027535232D-04 0.000000000000D+00  6 -2 1 25 -24 21 21 4 0.52179500D-02 0.26340650D+00 0.38433576D+05 0.38433576D+05 0.38433576D+05 0.12037661D+01  1  2 12  3  6  5       21 0.481246377565D-01 0.100000000000D+01
-.114367228616D-03 0.000000000000D+00 0.000000000000D+00 0.111180665806D-04 0.000000000000D+00  6 -2 1 25 -24 21 21 4 0.52179500D-02 0.26340650D+00 0.26150867D+05 0.26150867D+05 0.26150867D+05 0.12212076D+01  1  2  4  3  6  5       21 -.215360844890D-01 0.100000000000D+01
0.358511749571D-05 0.000000000000D+00 0.000000000000D+00 0.108027535232D-04 0.000000000000D+00  6 -2 1 25 -24 1 -1 4 0.52179500D-02 0.26340650D+00 0.38433576D+05 0.38433576D+05 0.38433576D+05 0.12037661D+01  1  2 12  6  6  5       21 0.634837352435D-03 0.100000000000D+01
0.358511749571D-05 0.000000000000D+00 0.000000000000D+00 0.108027535232D-04 0.000000000000D+00  6 -2 1 25 -24 2 -2 4 0.52179500D-02 0.26340650D+00 0.38433576D+05 0.38433576D+05 0.38433576D+05 0.12037661D+01  1  2 12  7  6  5       21 0.634837352435D-03 0.100000000000D+01
0.358511749571D-05 0.000000000000D+00 0.000000000000D+00 0.108027535232D-04 0.000000000000D+00  6 -2 1 25 -24 3 -3 4 0.52179500D-02 0.26340650D+00 0.38433576D+05 0.38433576D+05 0.38433576D+05 0.12037661D+01  1  2 12  8  6  5       21 0.634837352435D-03 0.100000000000D+01
0.358511749571D-05 0.000000000000D+00 0.000000000000D+00 0.108027535232D-04 0.000000000000D+00  6 -2 1 25 -24 4 -4 4 0.52179500D-02 0.26340650D+00 0.38433576D+05 0.38433576D+05 0.38433576D+05 0.12037661D+01  1  2 12  8  6  5       21 0.634837352435D-03 0.100000000000D+01
  </mgrwgt>
  </event>
  <event>
  5     66 0.49582427E-03 0.43310214E+02 0.75467711E-02 0.10514835E+00
       -2 -1    0    0    0  501 0.00000000E+00 0.00000000E+00 0.21411773E+02 0.21414164E+02 0.32000000E+00 0.0000E+00 0.9000E+01
        1 -1    0    0  502    0 0.00000000E+00 0.00000000E+00 -.30410158E+04 0.30410158E+04 0.32000000E+00 0.0000E+00 0.9000E+01
       25  1    1    2    0    0 -.12717369E+03 0.12423565E+03 -.91847817E+03 0.94384045E+03 0.12500000E+03 0.0000E+00 0.9000E+01
      -24  1    1    2    0    0 0.17030571E+03 -.12809569E+03 -.18045386E+04 0.18188566E+04 0.80419002E+02 0.0000E+00 0.9000E+01
       21  1    1    2  502  501 -.43132019E+02 0.38600379E+01 -.29658729E+03 0.29973297E+03 0.75000000E+00 0.0000E+00 0.9000E+01
#aMCatNLO 1  0  0  2  5 0.59172842D+02 0.00000000D+00  -5  6  0 0.00000000D+00 0.00000000D+00 0.00000000D+00 0.00000000D+00 0.00000000D+00
  <mgrwgt>
 0.4907217050D+00    3    2    0
 0.255180775773089D+03 0.000000000000000D+00 0.000000000000000D+00 0.255180775773089D+03
 0.255180775773089D+03 0.000000000000000D+00 0.000000000000000D+00 -.255180775773089D+03
 0.229257272527075D+03 -.127170841016647D+03 0.124235393568495D+03 0.729865822364185D+02
 0.237341615359423D+03 0.170308651642072D+03 -.128095949841885D+03 -.667099485610212D+02
 0.437626636596792D+02 -.431378106254255D+02 0.386055627338996D+01 -.627663367539729D+01
 0.000000000000000D+00 0.000000000000000D+00 -.000000000000000D+00 0.000000000000000D+00
 0.428063498780039D+03 0.000000000000000D+00 0.000000000000000D+00 0.428063498780039D+03
 0.360870033019407D+03 0.000000000000000D+00 0.000000000000000D+00 -.360870033019407D+03
 0.313007311210292D+03 -.238853191848316D+03 0.141317686184055D+03 0.729865822364185D+02
 0.177110496205184D+03 0.849499770857009D+02 -.115039975955321D+03 -.667099485610212D+02
 0.665641142223355D+02 -.658602127204042D+02 0.733604473351268D+01 -.627663367539729D+01
 0.232251610161633D+03 0.219763427483019D+03 -.336137549622463D+02 0.671934657606318D+02
0.121230162645D-01 0.000000000000D+00 0.000000000000D+00 0.766275599829D-05 0.000000000000D+00  6 -2 1 25 -24 21 21 2 0.32943042D-02 0.46784877D+00 0.59636754D+05 0.59636754D+05 0.59636754D+05 0.11847747D+01  1  2  2  2  6  2        1 0.375288312561D+00 0.100000000000D+01
0.231338012956D-02 0.639749144394D-03 -.465555745192D-04 0.766275599829D-05 0.000000000000D+00  6 -2 1 25 -24 21 21 4 0.32943042D-02 0.46784877D+00 0.59636754D+05 0.59636754D+05 0.59636754D+05 0.11847747D+01  1  2  3  2  6  2        1 0.100524731767D+00 0.100000000000D+01
0.343093670957D-03 0.000000000000D+00 0.000000000000D+00 0.766275599829D-05 0.000000000000D+00  6 -2 1 25 -24 21 21 4 0.32943042D-02 0.46784877D+00 0.59636754D+05 0.59636754D+05 0.59636754D+05 0.11847747D+01  1  2 15  2  6  2        1 0.149086606231D-01 0.100000000000D+01
  </mgrwgt>
  </event>
  <event>
  5     66 0.49582427E-03 0.54432800E+02 0.75467711E-02 0.11639976E+00
       -2 -1    0    0    0  501 0.00000000E+00 0.00000000E+00 0.93817838E+02 0.93818383E+02 0.32000000E+00 0.0000E+00 0.9000E+01
        1 -1    0    0  502    0 0.00000000E+00 0.00000000E+00 -.38992078E+03 0.38992091E+03 0.32000000E+00 0.0000E+00 0.9000E+01
       25  1    1    2    0    0 0.27262589E+02 0.77881948E+02 -.84601816E+02 0.17202126E+03 0.12500000E+03 0.0000E+00 0.9000E+01
      -24  1    1    2    0    0 -.56636460E+02 -.12370594E+03 -.98332607E+02 0.18613803E+03 0.80419002E+02 0.0000E+00 0.9000E+01
       21  1    1    2  502  501 0.29373871E+02 0.45823988E+02 -.11316852E+03 0.12558001E+03 0.75000000E+00 0.0000E+00 0.9000E+01
#aMCatNLO 1  0  0  2  5 0.54854085D+01 0.00000000D+00  -5  6  0 0.00000000D+00 0.00000000D+00 0.00000000D+00 0.00000000D+00 0.00000000D+00
  <mgrwgt>
 0.3053715542D+00   11    4    0
 0.191263399419661D+03 0.000000000000000D+00 0.000000000000000D+00 0.191263399419661D+03
 0.191263399419661D+03 0.000000000000000D+00 0.000000000000000D+00 -.191263399419661D+03
 0.152047962533574D+03 0.272619413357878D+02 0.778809379485688D+02 0.261711476528351D+02
 0.159272919665125D+03 -.566371387610084D+02 -.123706994650672D+03 0.197347655609998D+02
 0.712059166406222D+02 0.293751974252206D+02 0.458260567021035D+02 -.459059132138348D+02
 0.000000000000000D+00 -.000000000000000D+00 -.000000000000000D+00 -.000000000000000D+00
 0.191869564770822D+03 0.000000000000000D+00 0.000000000000000D+00 0.191869564770822D+03
 0.204108997648441D+03 0.000000000000000D+00 0.000000000000000D+00 -.204108997648441D+03
 0.152837643508949D+03 0.292948470958828D+02 0.786843582774298D+02 0.261711476528351D+02
 0.157881962281686D+03 -.545224243449334D+02 -.122871242898200D+03 0.197347655609998D+02
 0.718465212209679D+02 0.303290375513560D+02 0.462030218142417D+02 -.459059132138348D+02
 0.134124354076602D+02 -.510146030230535D+01 -.201613719347121D+01 -.122394328776199D+02
 0.191263399419661D+03 0.000000000000000D+00 0.000000000000000D+00 0.191263399419661D+03
 0.191263399419661D+03 0.000000000000000D+00 0.000000000000000D+00 -.191263399419661D+03
 0.152047962533574D+03 0.272619413357878D+02 0.778809379485688D+02 0.261711476528351D+02
 0.159272919665125D+03 -.566371387610084D+02 -.123706994650672D+03 0.197347655609998D+02
 0.000000000000000D+00 -.000000000000000D+00 -.000000000000000D+00 -.000000000000000D+00
 0.712059166406222D+02 0.293751974252206D+02 0.458260567021035D+02 -.459059132138348D+02
 0.191869564770822D+03 0.000000000000000D+00 0.000000000000000D+00 0.191869564770822D+03
 0.204108997648441D+03 0.000000000000000D+00 0.000000000000000D+00 -.204108997648441D+03
 0.152837643508949D+03 0.292948470958828D+02 0.786843582774298D+02 0.261711476528351D+02
 0.157881962281686D+03 -.545224243449334D+02 -.122871242898200D+03 0.197347655609998D+02
 0.134124354076602D+02 -.510146030230535D+01 -.201613719347121D+01 -.122394328776199D+02
 0.718465212209679D+02 0.303290375513560D+02 0.462030218142417D+02 -.459059132138348D+02
0.798168260220D-04 0.000000000000D+00 0.000000000000D+00 0.672829336775D-05 0.000000000000D+00  6 -2 1 25 -24 21 21 2 0.14433566D-01 0.59987864D-01 0.32807543D+05 0.32807543D+05 0.32807543D+05 0.12108417D+01  1  2  2  2  6  2        1 0.231916861395D-01 0.100000000000D+01
0.249864464677D-05 0.421204962871D-05 -.306517628177D-06 0.672829336775D-05 0.000000000000D+00  6 -2 1 25 -24 21 21 4 0.14433566D-01 0.59987864D-01 0.32807543D+05 0.32807543D+05 0.32807543D+05 0.12108417D+01  1  2  3  2  6  2        1 0.106443002930D-02 0.100000000000D+01
0.351898589272D-05 0.000000000000D+00 0.000000000000D+00 0.672829336775D-05 0.000000000000D+00  6 -2 1 25 -24 21 21 4 0.14433566D-01 0.59987864D-01 0.32807543D+05 0.32807543D+05 0.32807543D+05 0.12108417D+01  1  2 15  2  6  2        1 0.149909842591D-02 0.100000000000D+01
0.132028197746D-02 0.000000000000D+00 0.000000000000D+00 0.671262059865D-05 0.000000000000D+00  6 -2 1 25 -24 21 21 4 0.14433566D-01 0.65461308D-01 0.33851869D+05 0.33851869D+05 0.33851869D+05 0.12094306D+01  1  2 12  2  6  2        1 0.501017469637D+00 0.100000000000D+01
-.155339381875D-02 0.000000000000D+00 0.000000000000D+00 0.672829336775D-05 0.000000000000D+00  6 -2 1 25 -24 21 21 4 0.14433566D-01 0.59987864D-01 0.32807543D+05 0.32807543D+05 0.32807543D+05 0.12108417D+01  1  2  4  2  6  2        1 -.661750373401D+00 0.100000000000D+01
-.529028707980D-02 0.000000000000D+00 -.343974253870D-03 0.672829336775D-05 0.000000000000D+00  6 -2 1 25 -24 21 21 4 0.14433566D-01 0.64127595D-01 0.32807543D+05 0.32807543D+05 0.32807543D+05 0.12108417D+01  1  2  5  2  6  2        1 -.206997393476D+01 0.100000000000D+01
0.530219549999D-02 0.000000000000D+00 0.343209774826D-03 0.672829336775D-05 0.000000000000D+00  6 -2 1 25 -24 21 21 4 0.14433566D-01 0.59987864D-01 0.32807543D+05 0.32807543D+05 0.32807543D+05 0.12108417D+01  1  2  6  2  6  2        1 0.225875100674D+01 0.100000000000D+01
0.723171007221D-03 0.000000000000D+00 0.000000000000D+00 0.672829336775D-05 0.502353073386D-06  6 -2 1 25 -24 21 21 4 0.14479309D-01 0.64016758D-01 0.33851869D+05 0.33851869D+05 0.33851869D+05 0.12094306D+01  1  2 11  2  6  2        1 0.280926915710D+00 0.100000000000D+01
0.241569759659D-04 0.000000000000D+00 0.000000000000D+00 0.671262059865D-05 0.000000000000D+00  6 -2 21 25 -24 -1 21 4 0.14433566D-01 0.65461308D-01 0.33851869D+05 0.33851869D+05 0.33851869D+05 0.12094306D+01  3  4 12  5  5  2        1 0.320414989900D-01 0.100000000000D+01
-.595557736480D-04 0.000000000000D+00 -.390454010068D-05 0.672829336775D-05 0.000000000000D+00  6 -2 21 25 -24 -1 21 4 0.14433566D-01 0.64127595D-01 0.32807543D+05 0.32807543D+05 0.32807543D+05 0.12108417D+01  3  4  5  5  5  2        1 -.830322173475D-01 0.100000000000D+01
0.156209573115D-04 0.000000000000D+00 0.000000000000D+00 0.672829336775D-05 0.215153006224D-07  6 -2 21 25 -24 -1 21 4 0.14479309D-01 0.64016758D-01 0.33851869D+05 0.33851869D+05 0.33851869D+05 0.12094306D+01  3  4 11  5  5  2        1 0.216359740619D-01 0.100000000000D+01
  </mgrwgt>
  </event>
  <event>
  6     66 0.49582427E-03 0.23743380E+02 0.75467711E-02 0.12288365E+00
       -2 -1    0    0    0  501 0.00000000E+00 0.00000000E+00 0.28609674E+02 0.28611463E+02 0.32000000E+00 0.0000E+00 0.9000E+01
        1 -1    0    0  503    0 0.00000000E+00 0.00000000E+00 -.61081840E+03 0.61081848E+03 0.32000000E+00 0.0000E+00 0.9000E+01
       25  1    1    2    0    0 0.42056952E+02 0.11687379E+02 -.34310414E+03 0.36776465E+03 0.12500000E+03 0.0000E+00 0.9000E+01
      -24  1    1    2    0    0 -.17276690E+02 0.19233571E+01 -.13925910E+03 0.16174825E+03 0.80419002E+02 0.0000E+00 0.9000E+01
       21  1    1    2  502  501 -.17636673E+02 -.24650865E+02 -.51047290E+02 0.59372600E+02 0.75000000E+00 0.0000E+00 0.9000E+01
       21  1    1    2  503  502 -.71435897E+01 0.11040128E+02 -.48798196E+02 0.50544453E+02 0.75000000E+00 0.0000E+00 0.9000E+01
#aMCatNLO 2  0  0  2  5 0.13149726D+02 0.00000000D+00  -5  6  0 0.00000000D+00 0.00000000D+00 0.00000000D+00 0.00000000D+00 0.00000000D+00
  <mgrwgt>
 0.1117363646D+00    1    2    0
 0.124585729012307D+03 0.000000000000000D+00 0.000000000000000D+00 0.124585729012307D+03
 0.124585729012307D+03 0.000000000000000D+00 0.000000000000000D+00 -.124585729012307D+03
 0.133983565249853D+03 0.382142896835691D+02 0.176345262048365D+02 -.235645349322398D+02
 0.847347252201518D+02 -.196924026505822D+02 0.566209872395836D+01 0.171145440971003D+02
 0.304531675546084D+02 -.185218870329869D+02 -.232966249287948D+02 0.644999083513954D+01
 0.000000000000000D+00 -.000000000000000D+00 0.000000000000000D+00 -.000000000000000D+00
 0.128677036790808D+03 0.000000000000000D+00 0.000000000000000D+00 0.128677036790808D+03
 0.135792663668804D+03 0.000000000000000D+00 0.000000000000000D+00 -.135792663668804D+03
 0.134484253201031D+03 0.420600160244040D+02 0.116911122008654D+02 -.235645349322398D+02
 0.840371979757864D+02 -.172747920990712D+02 0.192577972085452D+01 0.171145440971003D+02
 0.309967461442334D+02 -.176416342223622D+02 -.246570199278227D+02 0.644999083513954D+01
 0.149515031385608D+02 -.714358970297062D+01 0.110401280061028D+02 -.711562687799672D+01
0.682136411158D-04 0.000000000000D+00 0.000000000000D+00 0.284703945480D-04 0.461609402405D-06  6 -2 1 25 -24 21 21 4 0.44013154D-02 0.93965440D-01 0.16660051D+05 0.16660051D+05 0.16660051D+05 0.12426590D+01  1  2  1  2  6  2        1 0.111736364645D+00 0.100000000000D+01
  </mgrwgt>
  </event>
  <event>
  5     66 0.49582427E-03 0.68792360E+02 0.75467711E-02 0.11497762E+00
       -2 -1    0    0    0  501 0.00000000E+00 0.00000000E+00 0.12138107E+02 0.12142324E+02 0.32000000E+00 0.0000E+00 0.9000E+01
        1 -1    0    0  502    0 -.00000000E+00 -.00000000E+00 -.33940110E+04 0.33940110E+04 0.32000000E+00 0.0000E+00 0.9000E+01
       25  1    1    2    0    0 0.16151238E+03 -.28086665E+02 -.14637363E+04 0.14781827E+04 0.12500000E+03 0.0000E+00 0.9000E+01
      -24  1    1    2    0    0 -.92962274E+02 0.21928277E+02 -.11511035E+04 0.11578555E+04 0.80419002E+02 0.0000E+00 0.9000E+01
       21  1    1    2  502  501 -.68550102E+02 0.61583880E+01 -.76703304E+03 0.77011511E+03 0.75000000E+00 0.0000E+00 0.9000E+01
#aMCatNLO 1  0  0  5  2 0.38469695D+01 0.00000000D+00  -5  6  0 0.00000000D+00 0.00000000D+00 0.00000000D+00 0.00000000D+00 0.00000000D+00
  <mgrwgt>
 0.5957120087D-01   25    2    0
 0.202987869766576D+03 0.000000000000000D+00 0.000000000000000D+00 0.202987869766576D+03
 0.202987869766576D+03 -.000000000000000D+00 -.000000000000000D+00 -.202987869766576D+03
 0.208750007155356D+03 0.161514302308932D+03 -.280868376204090D+02 0.327997742294792D+02
 0.125493268403552D+03 -.929611154021953D+02 0.219281724418184D+02 -.125988387074734D+02
 0.717324639742440D+02 -.685531869067369D+02 0.615866517859062D+01 -.202009355220058D+02
 0.000000000000000D+00 0.000000000000000D+00 0.000000000000000D+00 -.000000000000000D+00
 0.202987869766576D+03 0.000000000000000D+00 0.000000000000000D+00 0.202987869766576D+03
 0.202987869766576D+03 -.000000000000000D+00 -.000000000000000D+00 -.202987869766576D+03
 0.207504361425211D+03 0.160014707770338D+03 -.279521173968341D+02 0.323578806582217D+02
 0.126207590843532D+03 -.938678908317809D+02 0.220096351208706D+02 -.128660430901218D+02
 0.398657063796814D+01 -.145293645140527D+01 -.371138293434541D+01 0.857778196124881D-01
 0.682772166264403D+02 -.646938804871516D+02 0.965386521030893D+01 -.195776153877124D+02
0.101199194626D-02 0.000000000000D+00 0.000000000000D+00 0.380672182723D-05 0.000000000000D+00  6 -2 1 25 -24 21 21 2 0.18677266D-02 0.52215586D+00 0.39969123D+05 0.39969123D+05 0.39969123D+05 0.12020343D+01  1  2  2  3  6  5       21 0.421482340367D-01 0.100000000000D+01
0.156857536959D-04 0.534042822038D-04 -.388631553723D-05 0.380672182723D-05 0.000000000000D+00  6 -2 1 25 -24 21 21 4 0.18677266D-02 0.52215586D+00 0.39969123D+05 0.39969123D+05 0.39969123D+05 0.12020343D+01  1  2  3  3  6  5       21 0.943933614349D-03 0.100000000000D+01
0.567968344216D-04 0.000000000000D+00 0.000000000000D+00 0.380672182723D-05 0.000000000000D+00  6 -2 1 25 -24 21 21 4 0.18677266D-02 0.52215586D+00 0.39969123D+05 0.39969123D+05 0.39969123D+05 0.12020343D+01  1  2 15  3  6  5       21 0.341790660738D-02 0.100000000000D+01
0.113409270564D-05 0.000000000000D+00 0.000000000000D+00 0.380662925028D-05 0.000000000000D+00  6 -2 1 25 -24 21 21 4 0.18677266D-02 0.52215586D+00 0.39982371D+05 0.39982371D+05 0.39982371D+05 0.12020197D+01  1  2 12  3  6  5       21 0.682431884870D-04 0.100000000000D+01
0.101354854252D-05 0.000000000000D+00 0.000000000000D+00 0.380662925028D-05 0.000000000000D+00  6 -2 1 25 -24 21 21 4 0.18677266D-02 0.52215586D+00 0.39982371D+05 0.39982371D+05 0.39982371D+05 0.12020197D+01  1  2 12  3  6  5       21 0.609895327642D-04 0.100000000000D+01
-.413573907359D-03 0.000000000000D+00 0.000000000000D+00 0.380672182723D-05 0.000000000000D+00  6 -2 1 25 -24 21 21 4 0.18677266D-02 0.52215586D+00 0.39969123D+05 0.39969123D+05 0.39969123D+05 0.12020343D+01  1  2  4  3  6  5       21 -.248879537918D-01 0.100000000000D+01
-.141568638246D-04 0.000000000000D+00 0.000000000000D+00 0.380672182723D-05 0.000000000000D+00  6 -2 1 25 -24 21 21 4 0.18677266D-02 0.52215586D+00 0.39969123D+05 0.39969123D+05 0.39969123D+05 0.12020343D+01  1  2  5  3  6  5       21 -.851928437538D-03 0.100000000000D+01
0.609065655844D-03 0.000000000000D+00 -.000000000000D+00 0.380672182723D-05 0.000000000000D+00  6 -2 1 25 -24 21 21 4 0.18677266D-02 0.52215586D+00 0.39969123D+05 0.39969123D+05 0.39969123D+05 0.12020343D+01  1  2  6  3  6  5       21 0.366522104733D-01 0.100000000000D+01
0.137208888796D-04 0.000000000000D+00 0.000000000000D+00 0.380672182723D-05 0.124777461138D-05  6 -2 1 25 -24 21 21 4 0.18677266D-02 0.52215586D+00 0.39982371D+05 0.39982371D+05 0.39982371D+05 0.12020197D+01  1  2 11  3  6  5       21 0.825644324635D-03 0.100000000000D+01
0.159173164272D-05 0.000000000000D+00 0.000000000000D+00 0.380662925028D-05 0.000000000000D+00  6 -2 1 25 -24 1 -1 4 0.18677266D-02 0.52215586D+00 0.39982371D+05 0.39982371D+05 0.39982371D+05 0.12020197D+01  1  2 12  6  6  5       21 0.957812725316D-04 0.100000000000D+01
0.156351511660D-05 0.000000000000D+00 0.000000000000D+00 0.380662925028D-05 0.000000000000D+00  6 -2 1 25 -24 1 -1 4 0.18677266D-02 0.52215586D+00 0.39982371D+05 0.39982371D+05 0.39982371D+05 0.12020197D+01  1  2 12  6  6  5       21 0.940833639739D-04 0.100000000000D+01
-.361629164102D-04 0.000000000000D+00 0.000000000000D+00 0.380672182723D-05 0.000000000000D+00  6 -2 1 25 -24 1 -1 4 0.18677266D-02 0.52215586D+00 0.39969123D+05 0.39969123D+05 0.39969123D+05 0.12020343D+01  1  2  5  6  6  5       21 -.217620351908D-02 0.100000000000D+01
0.367110274214D-04 0.000000000000D+00 0.000000000000D+00 0.380672182723D-05 0.137677278123D-07  6 -2 1 25 -24 1 -1 4 0.18677266D-02 0.52215586D+00 0.39982371D+05 0.39982371D+05 0.39982371D+05 0.12020197D+01  1  2 11  6  6  5       21 0.220905888154D-02 0.100000000000D+01
0.159173164272D-05 0.000000000000D+00 0.000000000000D+00 0.380662925028D-05 0.000000000000D+00  6 -2 1 25 -24 2 -2 4 0.18677266D-02 0.52215586D+00 0.39982371D+05 0.39982371D+05 0.39982371D+05 0.12020197D+01  1  2 12  7  6  5       21 0.957812725316D-04 0.100000000000D+01
0.156351511660D-05 0.000000000000D+00 0.000000000000D+00 0.380662925028D-05 0.000000000000D+00  6 -2 1 25 -24 2 -2 4 0.18677266D-02 0.52215586D+00 0.39982371D+05 0.39982371D+05 0.39982371D+05 0.12020197D+01  1  2 12  7  6  5       21 0.940833639739D-04 0.100000000000D+01
-.361629164102D-04 0.000000000000D+00 0.000000000000D+00 0.380672182723D-05 0.000000000000D+00  6 -2 1 25 -24 2 -2 4 0.18677266D-02 0.52215586D+00 0.39969123D+05 0.39969123D+05 0.39969123D+05 0.12020343D+01  1  2  5  7  6  5       21 -.217620351908D-02 0.100000000000D+01
0.384074729419D-04 0.000000000000D+00 0.000000000000D+00 0.380672182723D-05 0.127266937635D-07  6 -2 1 25 -24 2 -2 4 0.18677266D-02 0.52215586D+00 0.39982371D+05 0.39982371D+05 0.39982371D+05 0.12020197D+01  1  2 11  7  6  5       21 0.231114123410D-02 0.100000000000D+01
0.159173164272D-05 0.000000000000D+00 0.000000000000D+00 0.380662925028D-05 0.000000000000D+00  6 -2 1 25 -24 3 -3 4 0.18677266D-02 0.52215586D+00 0.39982371D+05 0.39982371D+05 0.39982371D+05 0.12020197D+01  1  2 12  8  6  5       21 0.957812725316D-04 0.100000000000D+01
0.159173164272D-05 0.000000000000D+00 0.000000000000D+00 0.380662925028D-05 0.000000000000D+00  6 -2 1 25 -24 4 -4 4 0.18677266D-02 0.52215586D+00 0.39982371D+05 0.39982371D+05 0.39982371D+05 0.12020197D+01  1  2 12  8  6  5       21 0.957812725316D-04 0.100000000000D+01
0.156351511660D-05 0.000000000000D+00 0.000000000000D+00 0.380662925028D-05 0.000000000000D+00  6 -2 1 25 -24 3 -3 4 0.18677266D-02 0.52215586D+00 0.39982371D+05 0.39982371D+05 0.39982371D+05 0.12020197D+01  1  2 12  8  6  5       21 0.940833639739D-04 0.100000000000D+01
0.156351511660D-05 0.000000000000D+00 0.000000000000D+00 0.380662925028D-05 0.000000000000D+00  6 -2 1 25 -24 4 -4 4 0.18677266D-02 0.52215586D+00 0.39982371D+05 0.39982371D+05 0.39982371D+05 0.12020197D+01  1  2 12  8  6  5       21 0.940833639739D-04 0.100000000000D+01
-.361629164102D-04 0.000000000000D+00 0.000000000000D+00 0.380672182723D-05 0.000000000000D+00  6 -2 1 25 -24 3 -3 4 0.18677266D-02 0.52215586D+00 0.39969123D+05 0.39969123D+05 0.39969123D+05 0.12020343D+01  1  2  5  8  6  5       21 -.217620351908D-02 0.100000000000D+01
-.361629164102D-04 0.000000000000D+00 0.000000000000D+00 0.380672182723D-05 0.000000000000D+00  6 -2 1 25 -24 4 -4 4 0.18677266D-02 0.52215586D+00 0.39969123D+05 0.39969123D+05 0.39969123D+05 0.12020343D+01  1  2  5  8  6  5       21 -.217620351908D-02 0.100000000000D+01
0.383808358587D-04 0.000000000000D+00 0.000000000000D+00 0.380672182723D-05 0.127009717770D-07  6 -2 1 25 -24 3 -3 4 0.18677266D-02 0.52215586D+00 0.39982371D+05 0.39982371D+05 0.39982371D+05 0.12020197D+01  1  2 11  8  6  5       21 0.230953836735D-02 0.100000000000D+01
0.383808358587D-04 0.000000000000D+00 0.000000000000D+00 0.380672182723D-05 0.127009717770D-07  6 -2 1 25 -24 4 -4 4 0.18677266D-02 0.52215586D+00 0.39982371D+05 0.39982371D+05 0.39982371D+05 0.12020197D+01  1  2 11  8  6  5       21 0.230953836735D-02 0.100000000000D+01
  </mgrwgt>
  </event>
  <event>
  6     66 -.49582427E-03 0.93067885E+02 0.75467711E-02 0.11479337E+00
       -2 -1    0    0    0  501 0.00000000E+00 0.00000000E+00 0.84472762E+02 0.84473368E+02 0.32000000E+00 0.0000E+00 0.9000E+01
        1 -1    0    0  503    0 0.00000000E+00 0.00000000E+00 -.69512898E+03 0.69512905E+03 0.32000000E+00 0.0000E+00 0.9000E+01
       25  1    1    2    0    0 -.63490275E+02 0.85894099E+00 -.53155907E+02 0.14994100E+03 0.12500000E+03 0.0000E+00 0.9000E+01
      -24  1    1    2    0    0 0.11216041E+03 -.87992344E+02 -.45981925E+03 0.48808152E+03 0.80419002E+02 0.0000E+00 0.9000E+01
       21  1    1    2  502  501 -.48610702E+02 0.82225521E+02 -.84643398E+02 0.12762877E+03 0.75000000E+00 0.0000E+00 0.9000E+01
       21  1    1    2  503  502 -.59436516E-01 0.49078820E+01 -.13037660E+02 0.13951126E+02 0.75000000E+00 0.0000E+00 0.9000E+01
#aMCatNLO 2  0  0  2  5 0.49082419D+01 0.00000000D+00  -5  6  0 0.00000000D+00 0.00000000D+00 0.00000000D+00 0.00000000D+00 0.00000000D+00
  <mgrwgt>
 -.1453933386D-01    3    2    0
 0.239295776019277D+03 0.000000000000000D+00 0.000000000000000D+00 0.239295776019277D+03
 0.239295776019277D+03 0.000000000000000D+00 0.000000000000000D+00 -.239295776019277D+03
 0.173516202583146D+03 -.635113190327829D+02 0.263728683007994D+01 0.102187228320213D+03
 0.205740475091576D+03 0.112135402273372D+03 -.858789498635624D+02 -.126144300956713D+03
 0.993348743638308D+02 -.486240832405888D+02 0.832416630334824D+02 0.239570726364995D+02
 0.000000000000000D+00 -.000000000000000D+00 0.000000000000000D+00 -.000000000000000D+00
 0.240585989774846D+03 0.000000000000000D+00 0.000000000000000D+00 0.240585989774846D+03
 0.244022330614013D+03 0.000000000000000D+00 0.000000000000000D+00 -.244022330614013D+03
 0.173490394854690D+03 -.634897721409827D+02 0.858084235446660D+00 0.102187228320213D+03
 0.206645895857134D+03 0.112161008831230D+03 -.879933733546454D+02 -.126144300956713D+03
 0.984804291395700D+02 -.486118001745824D+02 0.822274070975719D+02 0.239570726364995D+02
 0.599160053746335D+01 -.594365156653569D-01 0.490788202162677D+01 -.343634083916736D+01
-.605158790687D-04 0.000000000000D+00 0.000000000000D+00 0.125461663780D-05 0.000000000000D+00  6 -2 1 25 -24 21 21 4 0.12924915D-01 0.10802384D+00 0.40866543D+05 0.40866543D+05 0.40866543D+05 0.12010562D+01  1  2 13  2  6  2        1 -.135976140073D-01 0.100000000000D+01
-.511216597813D-03 0.000000000000D+00 0.000000000000D+00 0.125697328661D-05 0.000000000000D+00  6 -2 1 25 -24 21 21 4 0.12924915D-01 0.10486140D+00 0.39834022D+05 0.39834022D+05 0.39834022D+05 0.12021837D+01  1  2  8  2  6  2        1 -.120346869134D+00 0.100000000000D+01
0.528240221917D-03 0.000000000000D+00 0.000000000000D+00 0.125697328661D-05 0.517713256152D-06  6 -2 1 25 -24 21 21 4 0.12994603D-01 0.10693261D+00 0.40866543D+05 0.40866543D+05 0.40866543D+05 0.12010562D+01  1  2  1  2  6  2        1 0.119405149282D+00 0.100000000000D+01
  </mgrwgt>
  </event>
  <event>
  6     66 0.49582427E-03 0.45580721E+02 0.75467711E-02 0.12263644E+00
       -4 -1    0    0    0  501 0.00000000E+00 0.00000000E+00 0.84309135E+02 0.84323382E+02 0.15500000E+01 0.0000E+00 0.9000E+01
       21 -1    0    0  502  503 0.00000000E+00 0.00000000E+00 -.36346335E+03 0.36346413E+03 0.75000000E+00 0.0000E+00 0.9000E+01
       25  1    1    2    0    0 -.56304960E+00 -.41695303E+02 -.62994673E+02 0.14605528E+03 0.12500000E+03 0.0000E+00 0.9000E+01
      -24  1    1    2    0    0 0.18514077E+02 0.37659503E+00 -.86747055E+01 0.82978186E+02 0.80419002E+02 0.0000E+00 0.9000E+01
       -3  1    1    2    0  503 -.18358641E+02 0.42302311E+02 -.21048793E+03 0.21548072E+03 0.50000000E+00 0.0000E+00 0.9000E+01
       21  1    1    2  502  501 0.40761345E+00 -.98360253E+00 0.30030849E+01 0.32733227E+01 0.75000000E+00 0.0000E+00 0.9000E+01
#aMCatNLO 2  0  0  2  2 0.31966227D+02 0.00000000D+00  -5  6  0 0.00000000D+00 0.00000000D+00 0.00000000D+00 0.00000000D+00 0.00000000D+00
  <mgrwgt>
 0.3616064358D-03    1    2    0
 0.108541303162069D+03 0.000000000000000D+00 0.000000000000000D+00 0.108541303162069D+03
 0.276408290757766D+03 0.000000000000000D+00 0.000000000000000D+00 -.276408290757766D+03
 0.128300976366703D+03 -.115069730817098D+02 -.164776951724233D+02 -.207897972320753D+02
 0.845562677139650D+02 0.114574856622524D+02 0.166367989792406D+02 0.165677215503158D+02
 0.167866987595697D+03 -.000000000000000D+00 0.000000000000000D+00 -.167866987595697D+03
 0.422536224346899D+01 0.494874194574358D-01 -.159103806817292D+00 0.422207568175951D+01
 0.114348459010570D+03 0.000000000000000D+00 0.000000000000000D+00 0.114348459010570D+03
 0.268009215917146D+03 0.000000000000000D+00 0.000000000000000D+00 -.268009215917146D+03
 0.133401670019364D+03 -.562998062196119D+00 -.416949988390257D+02 -.207897972320753D+02
 0.841700213846050D+02 0.185133420646594D+02 0.378568015611638D+00 0.165677215503158D+02
 0.160431148457977D+03 -.183586411867876D+02 0.423023105304921D+02 -.153660756906576D+03
 0.435483506577004D+01 0.408297184324261D+00 -.985879707077983D+00 0.422207568175951D+01
0.252393752305D-06 0.000000000000D+00 0.000000000000D+00 0.901082308373D+00 0.137060671014D-04  6 -4 21 25 -24 -3 21 4 0.12971749D-01 0.55918409D-01 0.17092481D+05 0.17092481D+05 0.17092481D+05 0.12414085D+01  1  2  1  5  5  2        3 0.361606435812D-03 0.100000000000D+01
  </mgrwgt>
  </event>
  <event>
  5     66 0.49582427E-03 0.21083273E+02 0.75467711E-02 0.10381774E+00
       -2 -1    0    0    0  501 0.00000000E+00 0.00000000E+00 0.46335237E+03 0.46335248E+03 0.32000000E+00 0.0000E+00 0.9000E+01
        1 -1    0    0  502    0 0.00000000E+00 0.00000000E+00 -.31095861E+03 0.31095877E+03 0.32000000E+00 0.0000E+00 0.9000E+01
       25  1    1    2    0    0 -.33625145E+03 -.12429726E+02 0.11984684E+03 0.37842807E+03 0.12500000E+03 0.0000E+00 0.9000E+01
      -24  1    1    2    0    0 0.34364036E+03 0.32170933E+02 -.31713619E+01 0.35440223E+03 0.80419002E+02 0.0000E+00 0.9000E+01
       21  1    1    2  502  501 -.73889099E+01 -.19741208E+02 0.35718287E+02 0.41480957E+02 0.75000000E+00 0.0000E+00 0.9000E+01
#aMCatNLO 1  0  0  1  2 0.44700224D+02 0.00000000D+00  -5  6  0 0.00000000D+00 0.00000000D+00 0.00000000D+00 0.00000000D+00 0.00000000D+00
  <mgrwgt>
 0.1498802638D+01    7    4    0
 0.379583343235342D+03 0.000000000000000D+00 0.000000000000000D+00 0.379583343235342D+03
 0.379583343235342D+03 0.000000000000000D+00 0.000000000000000D+00 -.379583343235342D+03
 0.361918253604724D+03 -.336250649062088D+03 -.124275811418169D+02 0.462696285329919D+02
 0.362110370615259D+03 0.343641164745270D+03 0.321730788608004D+02 -.743797515583429D+02
 0.351380622507004D+02 -.739051568318127D+01 -.197454977189835D+02 0.281101230253510D+02
 0.000000000000000D+00 -.000000000000000D+00 0.000000000000000D+00 0.000000000000000D+00
 0.435752410978691D+03 0.000000000000000D+00 0.000000000000000D+00 0.435752410978691D+03
 0.422011939433348D+03 0.000000000000000D+00 0.000000000000000D+00 -.422011939433348D+03
 0.337762305186179D+03 -.307325771197913D+03 -.432246068542959D+02 0.462696285329919D+02
 0.390434533483128D+03 0.374751460958114D+03 -.950815279352931D+00 -.743797515583429D+02
 0.365265597187143D+02 -.442789165196658D+01 -.228998760674131D+02 0.281101230253510D+02
 0.930409520240186D+02 -.629977981082352D+02 0.670752982010620D+02 0.137404715453427D+02
 0.379583343235342D+03 0.000000000000000D+00 0.000000000000000D+00 0.379583343235342D+03
 0.379583343235342D+03 0.000000000000000D+00 0.000000000000000D+00 -.379583343235342D+03
 0.361918253604724D+03 -.336250649062088D+03 -.124275811418169D+02 0.462696285329919D+02
 0.362110370615259D+03 0.343641164745270D+03 0.321730788608004D+02 -.743797515583429D+02
 0.000000000000000D+00 -.000000000000000D+00 0.000000000000000D+00 0.000000000000000D+00
 0.351380622507004D+02 -.739051568318127D+01 -.197454977189835D+02 0.281101230253510D+02
 0.435752410978691D+03 0.000000000000000D+00 0.000000000000000D+00 0.435752410978691D+03
 0.422011939433348D+03 0.000000000000000D+00 0.000000000000000D+00 -.422011939433348D+03
 0.337762305186179D+03 -.307325771197913D+03 -.432246068542959D+02 0.462696285329919D+02
 0.390434533483128D+03 0.374751460958114D+03 -.950815279352931D+00 -.743797515583429D+02
 0.930409520240186D+02 -.629977981082352D+02 0.670752982010620D+02 0.137404715453427D+02
 0.365265597187143D+02 -.442789165196658D+01 -.228998760674131D+02 0.281101230253510D+02
0.302625362157D-01 0.000000000000D+00 0.000000000000D+00 0.306531950617D-04 0.000000000000D+00  6 -2 1 25 -24 21 21 2 0.71285001D-01 0.47839807D-01 0.13484343D+06 0.13484343D+06 0.13484343D+06 0.11518303D+01  1  2  2  1  6  1       -2 0.542156723221D+00 0.100000000000D+01
0.153124876377D-01 0.159699791114D-02 -.116216107377D-03 0.306531950617D-04 0.000000000000D+00  6 -2 1 25 -24 21 21 4 0.71285001D-01 0.47839807D-01 0.13484343D+06 0.13484343D+06 0.13484343D+06 0.11518303D+01  1  2  3  1  6  1       -2 0.363950490844D+00 0.100000000000D+01
0.114899238461D-02 0.000000000000D+00 0.000000000000D+00 0.306531950617D-04 0.000000000000D+00  6 -2 1 25 -24 21 21 4 0.71285001D-01 0.47839807D-01 0.13484343D+06 0.13484343D+06 0.13484343D+06 0.11518303D+01  1  2 15  1  6  1       -2 0.273094974671D-01 0.100000000000D+01
-.176352673874D-02 0.000000000000D+00 0.000000000000D+00 0.306531950617D-04 0.000000000000D+00  6 -2 1 25 -24 21 21 4 0.71285001D-01 0.47839807D-01 0.13484343D+06 0.13484343D+06 0.13484343D+06 0.11518303D+01  1  2  4  1  6  1       -2 -.419158818194D-01 0.100000000000D+01
-.985080768684D-01 0.000000000000D+00 -.295233435688D-01 0.306531950617D-04 0.000000000000D+00  6 -2 1 25 -24 21 21 4 0.89372718D-01 0.47839807D-01 0.13484343D+06 0.13484343D+06 0.13484343D+06 0.11518303D+01  1  2  5  1  6  1       -2 -.141625187466D+01 0.100000000000D+01
0.103271608668D+00 0.000000000000D+00 0.287842667963D-01 0.306531950617D-04 0.000000000000D+00  6 -2 1 25 -24 21 21 4 0.71285001D-01 0.47839807D-01 0.13484343D+06 0.13484343D+06 0.13484343D+06 0.11518303D+01  1  2  6  1  6  1       -2 0.245458174755D+01 0.100000000000D+01
-.267517803708D-02 0.000000000000D+00 -.927313009024D-03 0.306531950617D-04 0.000000000000D+00  6 21 1 25 -24 2 21 4 0.89372718D-01 0.47839807D-01 0.13484343D+06 0.13484343D+06 0.13484343D+06 0.11518303D+01  3  4  5  4  5  1       -2 -.431028064508D+00 0.100000000000D+01
  </mgrwgt>
  </event>
  <event>
  6     66 0.49582427E-03 0.15622658E+02 0.75467711E-02 0.10982746E+00
       -2 -1    0    0    0  501 0.00000000E+00 0.00000000E+00 0.10797086E+03 0.10797133E+03 0.32000000E+00 0.0000E+00 0.9000E+01
        1 -1    0    0  502    0 -.00000000E+00 -.00000000E+00 -.10592337E+04 0.10592337E+04 0.32000000E+00 0.0000E+00 0.9000E+01
       25  1    1    2    0    0 -.22595024E+03 0.83564394E+02 -.65289667E+03 0.70706123E+03 0.12500000E+03 0.0000E+00 0.9000E+01
      -24  1    1    2    0    0 0.21584692E+03 -.98281312E+02 -.11804285E+03 0.27685816E+03 0.80419002E+02 0.0000E+00 0.9000E+01
       21  1    1    2  502  503 -.71392567E+01 0.50591257E+01 -.10642215E+03 0.10678389E+03 0.75000000E+00 0.0000E+00 0.9000E+01
       21  1    1    2  503  501 0.17242570E+02 0.96577921E+01 -.73901127E+02 0.76501753E+02 0.75000000E+00 0.0000E+00 0.9000E+01
#aMCatNLO 2  0  0  5  2 0.27424106D+02 0.00000000D+00  -5  6  0 0.00000000D+00 0.00000000D+00 0.00000000D+00 0.00000000D+00 0.00000000D+00
  <mgrwgt>
 0.4125094957D+00    1    2    0
 0.338181417335359D+03 0.000000000000000D+00 0.000000000000000D+00 0.338181417335359D+03
 0.338181417335359D+03 -.000000000000000D+00 -.000000000000000D+00 -.338181417335359D+03
 0.300925179086225D+03 -.226462327672750D+03 0.828184590440650D+02 -.129564194107336D+03
 0.313314392538918D+03 0.215315952297536D+03 -.990547456092025D+02 0.188483131012199D+03
 0.621232630455745D+02 0.111463753752133D+02 0.162362865651374D+02 -.589189369048630D+02
 0.000000000000000D+00 0.000000000000000D+00 0.000000000000000D+00 0.000000000000000D+00
 0.338181417335359D+03 0.000000000000000D+00 0.000000000000000D+00 0.338181417335359D+03
 0.338181417335359D+03 -.000000000000000D+00 -.000000000000000D+00 -.338181417335359D+03
 0.301921725907695D+03 -.225950593529540D+03 0.835638728592854D+02 -.132269183907238D+03
 0.311757512983670D+03 0.215846552410711D+03 -.982818508161416D+02 0.185678417054746D+03
 0.339581616423373D+02 -.731354402562382D+01 0.486077053569022D+01 -.328030749429338D+02
 0.287254341370162D+02 0.174175851444524D+02 0.985720742116591D+01 -.206061582045737D+02
0.588380371145D-02 0.000000000000D+00 0.000000000000D+00 0.311932216063D-04 0.100763412076D-05  6 -2 1 25 -24 21 21 4 0.16610941D-01 0.16295906D+00 0.75799393D+05 0.75799393D+05 0.75799393D+05 0.11747904D+01  1  2  1  3  6  5       21 0.412509495683D+00 0.100000000000D+01
  </mgrwgt>
  </event>
  <event>
  5     66 0.49582427E-03 0.26528410E+02 0.75467711E-02 0.11353570E+00
       -2 -1    0    0    0  501 0.00000000E+00 0.00000000E+00 0.30412089E+03 0.30412106E+03 0.32000000E+00 0.0000E+00 0.9000E+01
        1 -1    0    0  502    0 0.00000000E+00 0.00000000E+00 -.18487991E+03 0.18488019E+03 0.32000000E+00 0.0000E+00 0.9000E+01
       25  1    1    2    0    0 -.39492469E+01 -.16716356E+03 0.12786083E+03 0.24481145E+03 0.12500000E+03 0.0000E+00 0.9000E+01
      -24  1    1    2    0    0 -.17209678E+02 0.18315513E+03 -.38286035E+02 0.20438936E+03 0.80419002E+02 0.0000E+00 0.9000E+01
       21  1    1    2  502  501 0.21158925E+02 -.15991567E+02 0.29666180E+02 0.39800441E+02 0.75000000E+00 0.0000E+00 0.9000E+01
#aMCatNLO 1  0  0  5  1 0.64668865D+01 0.00000000D+00  -5  6  0 0.00000000D+00 0.00000000D+00 0.00000000D+00 0.00000000D+00 0.00000000D+00
  <mgrwgt>
 0.1234543105D+00   20    2    0
 0.237120123008435D+03 0.000000000000000D+00 0.000000000000000D+00 0.237120123008435D+03
 0.237120123008435D+03 -.000000000000000D+00 -.000000000000000D+00 -.237120123008435D+03
 0.220280431906894D+03 -.395169912934930D+01 -.167161708341500D+03 0.702838247353531D+02
 0.220380294202511D+03 -.172121316826967D+02 0.183156983015536D+03 -.908708986089555D+02
 0.335795199074660D+02 0.211638308120460D+02 -.159952746740352D+02 0.205870738736025D+02
 0.000000000000000D+00 0.000000000000000D+00 -.000000000000000D+00 0.000000000000000D+00
 0.237120123008435D+03 0.000000000000000D+00 0.000000000000000D+00 0.237120123008435D+03
 0.237120123008435D+03 -.000000000000000D+00 -.000000000000000D+00 -.237120123008435D+03
 0.221042157660639D+03 -.307561487139065D+01 -.167823838391022D+03 0.711360339359591D+02
 0.219415778529550D+03 -.163390777644503D+02 0.182497143246846D+03 -.900216371652122D+02
 0.113317009132375D+02 0.799026476500994D+01 0.125269524308606D+01 0.793686771970261D+01
 0.224506089134440D+02 0.114244278708310D+02 -.159260000989106D+02 0.109487355095505D+02
0.788554071657D-03 0.000000000000D+00 0.000000000000D+00 0.200066935505D-04 0.000000000000D+00  6 -2 1 25 -24 21 21 2 0.46787863D-01 0.28443098D-01 0.47538995D+05 0.47538995D+05 0.47538995D+05 0.11944587D+01  1  2  2  3  6  5       21 0.702756755955D-01 0.100000000000D+01
0.214966831423D-03 0.416131416179D-04 -.302825526622D-05 0.200066935505D-04 0.000000000000D+00  6 -2 1 25 -24 21 21 4 0.46787863D-01 0.28443098D-01 0.47538995D+05 0.47538995D+05 0.47538995D+05 0.11944587D+01  1  2  3  3  6  5       21 0.273330007863D-01 0.100000000000D+01
0.756880752511D-05 0.000000000000D+00 0.000000000000D+00 0.200066935505D-04 0.000000000000D+00  6 -2 1 25 -24 21 21 4 0.46787863D-01 0.28443098D-01 0.47538995D+05 0.47538995D+05 0.47538995D+05 0.11944587D+01  1  2 15  3  6  5       21 0.962372756140D-03 0.100000000000D+01
0.186832139913D-03 0.000000000000D+00 0.000000000000D+00 0.200000563338D-04 0.000000000000D+00  6 -2 1 25 -24 21 21 4 0.46787863D-01 0.28443098D-01 0.47757330D+05 0.47757330D+05 0.47757330D+05 0.11942606D+01  1  2 12  3  6  5       21 0.237405677871D-01 0.100000000000D+01
0.193625393672D-03 0.000000000000D+00 0.000000000000D+00 0.200000563338D-04 0.000000000000D+00  6 -2 1 25 -24 21 21 4 0.46787863D-01 0.28443098D-01 0.47757330D+05 0.47757330D+05 0.47757330D+05 0.11942606D+01  1  2 12  3  6  5       21 0.246037795526D-01 0.100000000000D+01
-.172205844209D-02 0.000000000000D+00 0.000000000000D+00 0.200066935505D-04 0.000000000000D+00  6 -2 1 25 -24 21 21 4 0.46787863D-01 0.28443098D-01 0.47538995D+05 0.47538995D+05 0.47538995D+05 0.11944587D+01  1  2  4  3  6  5       21 -.218959475935D+00 0.100000000000D+01
-.355067455803D-03 0.000000000000D+00 0.000000000000D+00 0.200066935505D-04 0.000000000000D+00  6 -2 1 25 -24 21 21 4 0.46787863D-01 0.28443098D-01 0.47538995D+05 0.47538995D+05 0.47538995D+05 0.11944587D+01  1  2  5  3  6  5       21 -.451467744322D-01 0.100000000000D+01
0.196267491422D-02 0.000000000000D+00 -.000000000000D+00 0.200066935505D-04 0.000000000000D+00  6 -2 1 25 -24 21 21 4 0.46787863D-01 0.28443098D-01 0.47538995D+05 0.47538995D+05 0.47538995D+05 0.11944587D+01  1  2  6  3  6  5       21 0.249553824739D+00 0.100000000000D+01
0.159274470146D-04 0.000000000000D+00 0.000000000000D+00 0.200000563338D-04 0.000000000000D+00  6 -2 1 25 -24 1 -1 4 0.46787863D-01 0.28443098D-01 0.47757330D+05 0.47757330D+05 0.47757330D+05 0.11942606D+01  1  2 12  6  6  5       21 0.202388430439D-02 0.100000000000D+01
0.164155355074D-04 0.000000000000D+00 0.000000000000D+00 0.200000563338D-04 0.000000000000D+00  6 -2 1 25 -24 1 -1 4 0.46787863D-01 0.28443098D-01 0.47757330D+05 0.47757330D+05 0.47757330D+05 0.11942606D+01  1  2 12  6  6  5       21 0.208590520698D-02 0.100000000000D+01
-.498384740565D-04 0.000000000000D+00 0.000000000000D+00 0.200066935505D-04 0.000000000000D+00  6 -2 1 25 -24 1 -1 4 0.46787863D-01 0.28443098D-01 0.47538995D+05 0.47538995D+05 0.47538995D+05 0.11944587D+01  1  2  5  6  6  5       21 -.633695459693D-02 0.100000000000D+01
0.159274470146D-04 0.000000000000D+00 0.000000000000D+00 0.200000563338D-04 0.000000000000D+00  6 -2 1 25 -24 2 -2 4 0.46787863D-01 0.28443098D-01 0.47757330D+05 0.47757330D+05 0.47757330D+05 0.11942606D+01  1  2 12  7  6  5       21 0.202388430439D-02 0.100000000000D+01
0.164155355074D-04 0.000000000000D+00 0.000000000000D+00 0.200000563338D-04 0.000000000000D+00  6 -2 1 25 -24 2 -2 4 0.46787863D-01 0.28443098D-01 0.47757330D+05 0.47757330D+05 0.47757330D+05 0.11942606D+01  1  2 12  7  6  5       21 0.208590520698D-02 0.100000000000D+01
-.498384740565D-04 0.000000000000D+00 0.000000000000D+00 0.200066935505D-04 0.000000000000D+00  6 -2 1 25 -24 2 -2 4 0.46787863D-01 0.28443098D-01 0.47538995D+05 0.47538995D+05 0.47538995D+05 0.11944587D+01  1  2  5  7  6  5       21 -.633695459693D-02 0.100000000000D+01
0.159274470146D-04 0.000000000000D+00 0.000000000000D+00 0.200000563338D-04 0.000000000000D+00  6 -2 1 25 -24 3 -3 4 0.46787863D-01 0.28443098D-01 0.47757330D+05 0.47757330D+05 0.47757330D+05 0.11942606D+01  1  2 12  8  6  5       21 0.202388430439D-02 0.100000000000D+01
0.159274470146D-04 0.000000000000D+00 0.000000000000D+00 0.200000563338D-04 0.000000000000D+00  6 -2 1 25 -24 4 -4 4 0.46787863D-01 0.28443098D-01 0.47757330D+05 0.47757330D+05 0.47757330D+05 0.11942606D+01  1  2 12  8  6  5       21 0.202388430439D-02 0.100000000000D+01
0.164155355074D-04 0.000000000000D+00 0.000000000000D+00 0.200000563338D-04 0.000000000000D+00  6 -2 1 25 -24 3 -3 4 0.46787863D-01 0.28443098D-01 0.47757330D+05 0.47757330D+05 0.47757330D+05 0.11942606D+01  1  2 12  8  6  5       21 0.208590520698D-02 0.100000000000D+01
0.164155355074D-04 0.000000000000D+00 0.000000000000D+00 0.200000563338D-04 0.000000000000D+00  6 -2 1 25 -24 4 -4 4 0.46787863D-01 0.28443098D-01 0.47757330D+05 0.47757330D+05 0.47757330D+05 0.11942606D+01  1  2 12  8  6  5       21 0.208590520698D-02 0.100000000000D+01
-.498384740565D-04 0.000000000000D+00 0.000000000000D+00 0.200066935505D-04 0.000000000000D+00  6 -2 1 25 -24 3 -3 4 0.46787863D-01 0.28443098D-01 0.47538995D+05 0.47538995D+05 0.47538995D+05 0.11944587D+01  1  2  5  8  6  5       21 -.633695459693D-02 0.100000000000D+01
-.498384740565D-04 0.000000000000D+00 0.000000000000D+00 0.200066935505D-04 0.000000000000D+00  6 -2 1 25 -24 4 -4 4 0.46787863D-01 0.28443098D-01 0.47538995D+05 0.47538995D+05 0.47538995D+05 0.11944587D+01  1  2  5  8  6  5       21 -.633695459693D-02 0.100000000000D+01
  </mgrwgt>
  </event>
  <event>
  5     66 -.49582427E-03 0.47650406E+02 0.75467711E-02 0.12014691E+00
       -2 -1    0    0    0  501 0.00000000E+00 0.00000000E+00 0.96642885E+01 0.96695849E+01 0.32000000E+00 0.0000E+00 0.9000E+01
        1 -1    0    0  502    0 -.00000000E+00 -.00000000E+00 -.28441069E+04 0.28441069E+04 0.32000000E+00 0.0000E+00 0.9000E+01
       25  1    1    2    0    0 -.54277245E+02 -.78506412E+02 -.19982460E+04 0.20044254E+04 0.12500000E+03 0.0000E+00 0.9000E+01
      -24  1    1    2    0    0 0.40184305E+02 0.32993019E+02 -.44008303E+03 0.45038162E+03 0.80419002E+02 0.0000E+00 0.9000E+01
       21  1    1    2  502  501 0.14092939E+02 0.45513393E+02 -.39611357E+03 0.39896943E+03 0.75000000E+00 0.0000E+00 0.9000E+01
#aMCatNLO 1  0  0  5  2 0.68042162D+01 0.00000000D+00  -5  6  0 0.00000000D+00 0.00000000D+00 0.00000000D+00 0.00000000D+00 0.00000000D+00
  <mgrwgt>
 -.1209142609D+00   25    2    0
 0.165812703699438D+03 0.000000000000000D+00 0.000000000000000D+00 0.165812703699438D+03
 0.165812703699438D+03 -.000000000000000D+00 -.000000000000000D+00 -.165812703699438D+03
 0.169676882053112D+03 -.542781373612959D+02 -.785092949854319D+02 -.636821694726575D+02
 0.114279952908383D+03 0.401837040662780D+02 0.329910774093262D+02 0.623662602795569D+02
 0.476685724373817D+02 0.140944332950179D+02 0.455182175761058D+02 0.131590919310055D+01
 0.000000000000000D+00 0.000000000000000D+00 0.000000000000000D+00 0.000000000000000D+00
 0.165812703699438D+03 0.000000000000000D+00 0.000000000000000D+00 0.165812703699438D+03
 0.165812703699438D+03 -.000000000000000D+00 -.000000000000000D+00 -.165812703699438D+03
 0.169018413107022D+03 -.539204176702322D+02 -.773540330186487D+02 -.636487714196694D+02
 0.114605114359657D+03 0.404254455274740D+02 0.337717856646751D+02 0.623888301697031D+02
 0.331942807058531D+02 0.104747955141067D+02 0.305602606024029D+02 0.762950866241352D+01
 0.148075992263448D+02 0.302017662865140D+01 0.130219867515707D+02 -.636956741244724D+01
0.361832677203D-03 0.000000000000D+00 0.000000000000D+00 0.745250670459D-05 0.000000000000D+00  6 -2 1 25 -24 21 21 2 0.14872224D-02 0.43755532D+00 0.22602940D+05 0.22602940D+05 0.22602940D+05 0.12280189D+01  1  2  2  3  6  5       21 0.541050783812D-01 0.100000000000D+01
0.117666717240D-04 0.190944349660D-04 -.138953275319D-05 0.745250670459D-05 0.000000000000D+00  6 -2 1 25 -24 21 21 4 0.14872224D-02 0.43755532D+00 0.22602940D+05 0.22602940D+05 0.22602940D+05 0.12280189D+01  1  2  3  3  6  5       21 0.265334656229D-02 0.100000000000D+01
0.161654138590D-04 0.000000000000D+00 0.000000000000D+00 0.745250670459D-05 0.000000000000D+00  6 -2 1 25 -24 21 21 4 0.14872224D-02 0.43755532D+00 0.22602940D+05 0.22602940D+05 0.22602940D+05 0.12280189D+01  1  2 15  3  6  5       21 0.364524874128D-02 0.100000000000D+01
0.655406141507D-03 0.000000000000D+00 0.000000000000D+00 0.746130437017D-05 0.000000000000D+00  6 -2 1 25 -24 21 21 4 0.14872224D-02 0.43755532D+00 0.22258314D+05 0.22258314D+05 0.22258314D+05 0.12287435D+01  1  2 12  3  6  5       21 0.148171925916D+00 0.100000000000D+01
0.656226922688D-03 0.000000000000D+00 0.000000000000D+00 0.746130437017D-05 0.000000000000D+00  6 -2 1 25 -24 21 21 4 0.14872224D-02 0.43755532D+00 0.22258314D+05 0.22258314D+05 0.22258314D+05 0.12287435D+01  1  2 12  3  6  5       21 0.148357485252D+00 0.100000000000D+01
-.297581980856D-02 0.000000000000D+00 0.000000000000D+00 0.745250670459D-05 0.000000000000D+00  6 -2 1 25 -24 21 21 4 0.14872224D-02 0.43755532D+00 0.22602940D+05 0.22602940D+05 0.22602940D+05 0.12280189D+01  1  2  4  3  6  5       21 -.671037778929D+00 0.100000000000D+01
-.141642944262D-02 0.000000000000D+00 0.000000000000D+00 0.745250670459D-05 0.000000000000D+00  6 -2 1 25 -24 21 21 4 0.14872224D-02 0.43755532D+00 0.22602940D+05 0.22602940D+05 0.22602940D+05 0.12280189D+01  1  2  5  3  6  5       21 -.319400275665D+00 0.100000000000D+01
0.207145902845D-02 0.000000000000D+00 -.000000000000D+00 0.745250670459D-05 0.000000000000D+00  6 -2 1 25 -24 21 21 4 0.14872224D-02 0.43755532D+00 0.22602940D+05 0.22602940D+05 0.22602940D+05 0.12280189D+01  1  2  6  3  6  5       21 0.467107336806D+00 0.100000000000D+01
0.126772664998D-03 0.000000000000D+00 0.000000000000D+00 0.745250670459D-05 0.139036271036D-05  6 -2 1 25 -24 21 21 4 0.14872224D-02 0.43755532D+00 0.22258314D+05 0.22258314D+05 0.22258314D+05 0.12287435D+01  1  2 11  3  6  5       21 0.286603202757D-01 0.100000000000D+01
0.129153527150D-04 0.000000000000D+00 0.000000000000D+00 0.746130437017D-05 0.000000000000D+00  6 -2 1 25 -24 1 -1 4 0.14872224D-02 0.43755532D+00 0.22258314D+05 0.22258314D+05 0.22258314D+05 0.12287435D+01  1  2 12  6  6  5       21 0.291985772556D-02 0.100000000000D+01
0.129284238661D-04 0.000000000000D+00 0.000000000000D+00 0.746130437017D-05 0.000000000000D+00  6 -2 1 25 -24 1 -1 4 0.14872224D-02 0.43755532D+00 0.22258314D+05 0.22258314D+05 0.22258314D+05 0.12287435D+01  1  2 12  6  6  5       21 0.292281280564D-02 0.100000000000D+01
-.777564838840D-05 0.000000000000D+00 0.000000000000D+00 0.745250670459D-05 0.000000000000D+00  6 -2 1 25 -24 1 -1 4 0.14872224D-02 0.43755532D+00 0.22602940D+05 0.22602940D+05 0.22602940D+05 0.12280189D+01  1  2  5  6  6  5       21 -.175338365894D-02 0.100000000000D+01
0.504635982075D-06 0.000000000000D+00 0.000000000000D+00 0.745250670459D-05 0.900019202112D-08  6 -2 1 25 -24 1 -1 4 0.14872224D-02 0.43755532D+00 0.22258314D+05 0.22258314D+05 0.22258314D+05 0.12287435D+01  1  2 11  6  6  5       21 0.114086336113D-03 0.100000000000D+01
0.129153527150D-04 0.000000000000D+00 0.000000000000D+00 0.746130437017D-05 0.000000000000D+00  6 -2 1 25 -24 2 -2 4 0.14872224D-02 0.43755532D+00 0.22258314D+05 0.22258314D+05 0.22258314D+05 0.12287435D+01  1  2 12  7  6  5       21 0.291985772556D-02 0.100000000000D+01
0.129284238661D-04 0.000000000000D+00 0.000000000000D+00 0.746130437017D-05 0.000000000000D+00  6 -2 1 25 -24 2 -2 4 0.14872224D-02 0.43755532D+00 0.22258314D+05 0.22258314D+05 0.22258314D+05 0.12287435D+01  1  2 12  7  6  5       21 0.292281280564D-02 0.100000000000D+01
-.777564838840D-05 0.000000000000D+00 0.000000000000D+00 0.745250670459D-05 0.000000000000D+00  6 -2 1 25 -24 2 -2 4 0.14872224D-02 0.43755532D+00 0.22602940D+05 0.22602940D+05 0.22602940D+05 0.12280189D+01  1  2  5  7  6  5       21 -.175338365894D-02 0.100000000000D+01
0.533518394328D-06 0.000000000000D+00 0.000000000000D+00 0.745250670459D-05 0.954852775684D-08  6 -2 1 25 -24 2 -2 4 0.14872224D-02 0.43755532D+00 0.22258314D+05 0.22258314D+05 0.22258314D+05 0.12287435D+01  1  2 11  7  6  5       21 0.120615970759D-03 0.100000000000D+01
0.129153527150D-04 0.000000000000D+00 0.000000000000D+00 0.746130437017D-05 0.000000000000D+00  6 -2 1 25 -24 3 -3 4 0.14872224D-02 0.43755532D+00 0.22258314D+05 0.22258314D+05 0.22258314D+05 0.12287435D+01  1  2 12  8  6  5       21 0.291985772556D-02 0.100000000000D+01
0.129153527150D-04 0.000000000000D+00 0.000000000000D+00 0.746130437017D-05 0.000000000000D+00  6 -2 1 25 -24 4 -4 4 0.14872224D-02 0.43755532D+00 0.22258314D+05 0.22258314D+05 0.22258314D+05 0.12287435D+01  1  2 12  8  6  5       21 0.291985772556D-02 0.100000000000D+01
0.129284238661D-04 0.000000000000D+00 0.000000000000D+00 0.746130437017D-05 0.000000000000D+00  6 -2 1 25 -24 3 -3 4 0.14872224D-02 0.43755532D+00 0.22258314D+05 0.22258314D+05 0.22258314D+05 0.12287435D+01  1  2 12  8  6  5       21 0.292281280564D-02 0.100000000000D+01
0.129284238661D-04 0.000000000000D+00 0.000000000000D+00 0.746130437017D-05 0.000000000000D+00  6 -2 1 25 -24 4 -4 4 0.14872224D-02 0.43755532D+00 0.22258314D+05 0.22258314D+05 0.22258314D+05 0.12287435D+01  1  2 12  8  6  5       21 0.292281280564D-02 0.100000000000D+01
-.777564838840D-05 0.000000000000D+00 0.000000000000D+00 0.745250670459D-05 0.000000000000D+00  6 -2 1 25 -24 3 -3 4 0.14872224D-02 0.43755532D+00 0.22602940D+05 0.22602940D+05 0.22602940D+05 0.12280189D+01  1  2  5  8  6  5       21 -.175338365894D-02 0.100000000000D+01
-.777564838840D-05 0.000000000000D+00 0.000000000000D+00 0.745250670459D-05 0.000000000000D+00  6 -2 1 25 -24 4 -4 4 0.14872224D-02 0.43755532D+00 0.22602940D+05 0.22602940D+05 0.22602940D+05 0.12280189D+01  1  2  5  8  6  5       21 -.175338365894D-02 0.100000000000D+01
0.511335697176D-06 0.000000000000D+00 0.000000000000D+00 0.745250670459D-05 0.910069190911D-08  6 -2 1 25 -24 3 -3 4 0.14872224D-02 0.43755532D+00 0.22258314D+05 0.22258314D+05 0.22258314D+05 0.12287435D+01  1  2 11  8  6  5       21 0.115600984248D-03 0.100000000000D+01
0.511335697176D-06 0.000000000000D+00 0.000000000000D+00 0.745250670459D-05 0.910069190911D-08  6 -2 1 25 -24 4 -4 4 0.14872224D-02 0.43755532D+00 0.22258314D+05 0.22258314D+05 0.22258314D+05 0.12287435D+01  1  2 11  8  6  5       21 0.115600984248D-03 0.100000000000D+01
  </mgrwgt>
  </event>
  <event>
  5     66 0.49582427E-03 0.22985994E+02 0.75467711E-02 0.91389677E-01
       -2 -1    0    0    0  501 0.00000000E+00 0.00000000E+00 0.28810757E+03 0.28810775E+03 0.32000000E+00 0.0000E+00 0.9000E+01
        1 -1    0    0  502    0 0.00000000E+00 0.00000000E+00 -.51625275E+03 0.51625285E+03 0.32000000E+00 0.0000E+00 0.9000E+01
       25  1    1    2    0    0 -.38361160E+02 -.48702173E+02 0.14858465E+03 0.20382806E+03 0.12500000E+03 0.0000E+00 0.9000E+01
      -24  1    1    2    0    0 0.20605548E+02 0.63299872E+02 0.87205521E+02 0.13602750E+03 0.80419002E+02 0.0000E+00 0.9000E+01
       21  1    1    2  502  501 0.17755612E+02 -.14597699E+02 -.46393535E+03 0.46450503E+03 0.75000000E+00 0.0000E+00 0.9000E+01
#aMCatNLO 1  0  0  1  2 0.89231557D+02 0.00000000D+00  -5  6  0 0.00000000D+00 0.00000000D+00 0.00000000D+00 0.00000000D+00 0.00000000D+00
  <mgrwgt>
 0.6678362331D+00    5    4    0
 0.385663629522814D+03 0.000000000000000D+00 0.000000000000000D+00 0.385663629522814D+03
 0.385663629522814D+03 0.000000000000000D+00 0.000000000000000D+00 -.385663629522814D+03
 0.256506303890211D+03 -.383611740633188D+02 -.487021616824558D+02 0.215237087202361D+03
 0.167647113044799D+03 0.206055394755746D+02 0.632998796735902D+02 0.131174980595061D+03
 0.347173842110618D+03 0.177556345877442D+02 -.145977179911344D+02 -.346412067797422D+03
 0.000000000000000D+00 0.000000000000000D+00 -.000000000000000D+00 0.000000000000000D+00
 0.218776588035977D+04 0.000000000000000D+00 0.000000000000000D+00 0.218776588035977D+04
 0.912623953227865D+03 0.000000000000000D+00 0.000000000000000D+00 -.912623953227865D+03
 0.510871714318464D+03 -.445939421130417D+03 -.132641420829991D+02 0.215237087202361D+03
 0.278380864747303D+03 -.216293742257502D+03 0.838977438863286D+02 0.131174980595061D+03
 0.594666280663680D+03 -.482484842920201D+03 0.288970758893883D+02 -.346412067797422D+03
 0.171647097385819D+04 0.114471800630812D+04 -.995306776927178D+02 0.127514192713191D+04
 0.385663629522814D+03 0.000000000000000D+00 0.000000000000000D+00 0.385663629522814D+03
 0.385663629522814D+03 0.000000000000000D+00 0.000000000000000D+00 -.385663629522814D+03
 0.256506303890211D+03 -.383611740633188D+02 -.487021616824558D+02 0.215237087202361D+03
 0.167647113044799D+03 0.206055394755746D+02 0.632998796735902D+02 0.131174980595061D+03
 0.000000000000000D+00 0.000000000000000D+00 -.000000000000000D+00 0.000000000000000D+00
 0.347173842110618D+03 0.177556345877442D+02 -.145977179911344D+02 -.346412067797422D+03
 0.218776588035977D+04 0.000000000000000D+00 0.000000000000000D+00 0.218776588035977D+04
 0.912623953227865D+03 0.000000000000000D+00 0.000000000000000D+00 -.912623953227865D+03
 0.510871714318464D+03 -.445939421130417D+03 -.132641420829991D+02 0.215237087202361D+03
 0.278380864747303D+03 -.216293742257502D+03 0.838977438863286D+02 0.131174980595061D+03
 0.171647097385819D+04 0.114471800630812D+04 -.995306776927178D+02 0.127514192713191D+04
 0.594666280663680D+03 -.482484842920201D+03 0.288970758893883D+02 -.346412067797422D+03
0.136431664116D-01 0.000000000000D+00 0.000000000000D+00 0.214404989362D-03 0.000000000000D+00  6 -2 1 25 -24 21 21 2 0.44324263D-01 0.79423521D-01 0.17810534D+05 0.17810534D+05 0.17810534D+05 0.12394083D+01  1  2  2  1  6  1       -2 0.399177746871D+00 0.100000000000D+01
0.490158831703D-02 0.719969671591D-03 -.523933513489D-04 0.214404989362D-03 0.000000000000D+00  6 -2 1 25 -24 21 21 4 0.44324263D-01 0.79423521D-01 0.17810534D+05 0.17810534D+05 0.17810534D+05 0.12394083D+01  1  2  3  1  6  1       -2 0.220301154325D+00 0.100000000000D+01
0.689958347082D-03 0.000000000000D+00 0.000000000000D+00 0.214404989362D-03 0.000000000000D+00  6 -2 1 25 -24 21 21 4 0.44324263D-01 0.79423521D-01 0.17810534D+05 0.17810534D+05 0.17810534D+05 0.12394083D+01  1  2 15  1  6  1       -2 0.310100747895D-01 0.100000000000D+01
0.507368810632D-01 0.000000000000D+00 -.139004546446D-01 0.214404989362D-03 0.000000000000D+00  6 -2 1 25 -24 21 21 4 0.40060922D+00 0.79423521D-01 0.17810534D+05 0.17810534D+05 0.17810534D+05 0.12394083D+01  1  2  5  1  6  1       -2 0.465508923327D-02 0.100000000000D+01
0.114536777584D-01 0.000000000000D+00 -.367854270998D-02 0.214404989362D-03 0.000000000000D+00  6 21 1 25 -24 2 21 4 0.40060922D+00 0.79423521D-01 0.17810534D+05 0.17810534D+05 0.17810534D+05 0.12394083D+01  3  4  5  4  5  1       -2 0.126921678927D-01 0.100000000000D+01
  </mgrwgt>
  </event>
  <event>
  5     66 0.49582427E-03 0.21261456E+02 0.75467711E-02 0.12266306E+00
       -2 -1    0    0    0  501 0.00000000E+00 0.00000000E+00 0.23865283E+02 0.23867428E+02 0.32000000E+00 0.0000E+00 0.9000E+01
        1 -1    0    0  502    0 -.00000000E+00 -.00000000E+00 -.78813493E+03 0.78813499E+03 0.32000000E+00 0.0000E+00 0.9000E+01
       25  1    1    2    0    0 0.68093110E+00 -.71515071E+02 -.52399499E+03 0.54342490E+03 0.12500000E+03 0.0000E+00 0.9000E+01
      -24  1    1    2    0    0 0.69343029E+01 0.51671581E+02 -.21597841E+03 0.23628781E+03 0.80419002E+02 0.0000E+00 0.9000E+01
       21  1    1    2  502  501 -.76152340E+01 0.19843489E+02 -.24296239E+02 0.32289713E+02 0.75000000E+00 0.0000E+00 0.9000E+01
#aMCatNLO 1  0  0  5  2 0.58170560D+01 0.00000000D+00  -5  6  0 0.00000000D+00 0.00000000D+00 0.00000000D+00 0.00000000D+00 0.00000000D+00
  <mgrwgt>
 0.2703171807D+00   14    2    0
 0.137149407651388D+03 0.000000000000000D+00 0.000000000000000D+00 0.137149407651388D+03
 0.137149407651388D+03 -.000000000000000D+00 -.000000000000000D+00 -.137149407651388D+03
 0.148705066731884D+03 0.682424550776477D+00 -.715189624031004D+02 -.370508999249732D+02
 0.977038498511510D+02 0.693528413788150D+01 0.516690245203447D+02 0.190010541920331D+02
 0.278898987197417D+02 -.761770868865797D+01 0.198499378827557D+02 0.180498457329400D+02
 0.000000000000000D+00 0.000000000000000D+00 0.000000000000000D+00 -.000000000000000D+00
 0.137149407651388D+03 0.000000000000000D+00 0.000000000000000D+00 0.137149407651388D+03
 0.137149407651388D+03 -.000000000000000D+00 -.000000000000000D+00 -.137149407651388D+03
 0.147176115814003D+03 -.157810842915271D+00 -.693295087165205D+02 -.350599969047417D+02
 0.987060757146897D+02 0.637752453413519D+01 0.531224134513705D+02 0.203226425088292D+02
 0.225096922298187D+02 -.111535609211642D+02 0.129606581325189D+02 0.146391824850642D+02
 0.590693154426516D+01 0.493384722994431D+01 0.324643713263111D+01 0.981719108483204D-01
0.331671622750D-03 0.000000000000D+00 0.000000000000D+00 0.485492084012D-04 0.000000000000D+00  6 -2 1 25 -24 21 21 2 0.36717519D-02 0.12125170D+00 0.17045293D+05 0.17045293D+05 0.17045293D+05 0.12415432D+01  1  2  2  3  6  5       21 0.319839502210D+00 0.100000000000D+01
0.594658308772D-04 0.175027923946D-04 -.127370636250D-05 0.485492084012D-04 0.000000000000D+00  6 -2 1 25 -24 21 21 4 0.36717519D-02 0.12125170D+00 0.17045293D+05 0.17045293D+05 0.17045293D+05 0.12415432D+01  1  2  3  3  6  5       21 0.883924048373D-01 0.100000000000D+01
0.114511333155D-04 0.000000000000D+00 0.000000000000D+00 0.485492084012D-04 0.000000000000D+00  6 -2 1 25 -24 21 21 4 0.36717519D-02 0.12125170D+00 0.17045293D+05 0.17045293D+05 0.17045293D+05 0.12415432D+01  1  2 15  3  6  5       21 0.170214255302D-01 0.100000000000D+01
0.718354424482D-04 0.000000000000D+00 0.000000000000D+00 0.485078809268D-04 0.000000000000D+00  6 -2 1 25 -24 21 21 4 0.36717519D-02 0.12125170D+00 0.17231252D+05 0.17231252D+05 0.17231252D+05 0.12410147D+01  1  2 12  3  6  5       21 0.106628125769D+00 0.100000000000D+01
0.984772434974D-04 0.000000000000D+00 0.000000000000D+00 0.485078809268D-04 0.000000000000D+00  6 -2 1 25 -24 21 21 4 0.36717519D-02 0.12125170D+00 0.17231252D+05 0.17231252D+05 0.17231252D+05 0.12410147D+01  1  2 12  3  6  5       21 0.146173581551D+00 0.100000000000D+01
-.295754835720D-03 0.000000000000D+00 0.000000000000D+00 0.485492084012D-04 0.000000000000D+00  6 -2 1 25 -24 21 21 4 0.36717519D-02 0.12125170D+00 0.17045293D+05 0.17045293D+05 0.17045293D+05 0.12415432D+01  1  2  4  3  6  5       21 -.439621893547D+00 0.100000000000D+01
0.247312660516D-05 0.000000000000D+00 0.000000000000D+00 0.485078809268D-04 0.000000000000D+00  6 -2 1 25 -24 1 -1 4 0.36717519D-02 0.12125170D+00 0.17231252D+05 0.17231252D+05 0.17231252D+05 0.12410147D+01  1  2 12  6  6  5       21 0.367095747878D-02 0.100000000000D+01
0.289694742141D-05 0.000000000000D+00 0.000000000000D+00 0.485078809268D-04 0.000000000000D+00  6 -2 1 25 -24 1 -1 4 0.36717519D-02 0.12125170D+00 0.17231252D+05 0.17231252D+05 0.17231252D+05 0.12410147D+01  1  2 12  6  6  5       21 0.430005110942D-02 0.100000000000D+01
0.247312660516D-05 0.000000000000D+00 0.000000000000D+00 0.485078809268D-04 0.000000000000D+00  6 -2 1 25 -24 2 -2 4 0.36717519D-02 0.12125170D+00 0.17231252D+05 0.17231252D+05 0.17231252D+05 0.12410147D+01  1  2 12  7  6  5       21 0.367095747878D-02 0.100000000000D+01
0.289694742141D-05 0.000000000000D+00 0.000000000000D+00 0.485078809268D-04 0.000000000000D+00  6 -2 1 25 -24 2 -2 4 0.36717519D-02 0.12125170D+00 0.17231252D+05 0.17231252D+05 0.17231252D+05 0.12410147D+01  1  2 12  7  6  5       21 0.430005110942D-02 0.100000000000D+01
0.247312660516D-05 0.000000000000D+00 0.000000000000D+00 0.485078809268D-04 0.000000000000D+00  6 -2 1 25 -24 3 -3 4 0.36717519D-02 0.12125170D+00 0.17231252D+05 0.17231252D+05 0.17231252D+05 0.12410147D+01  1  2 12  8  6  5       21 0.367095747878D-02 0.100000000000D+01
0.247312660516D-05 0.000000000000D+00 0.000000000000D+00 0.485078809268D-04 0.000000000000D+00  6 -2 1 25 -24 4 -4 4 0.36717519D-02 0.12125170D+00 0.17231252D+05 0.17231252D+05 0.17231252D+05 0.12410147D+01  1  2 12  8  6  5       21 0.367095747878D-02 0.100000000000D+01
0.289694742141D-05 0.000000000000D+00 0.000000000000D+00 0.485078809268D-04 0.000000000000D+00  6 -2 1 25 -24 3 -3 4 0.36717519D-02 0.12125170D+00 0.17231252D+05 0.17231252D+05 0.17231252D+05 0.12410147D+01  1  2 12  8  6  5       21 0.430005110942D-02 0.100000000000D+01
0.289694742141D-05 0.000000000000D+00 0.000000000000D+00 0.485078809268D-04 0.000000000000D+00  6 -2 1 25 -24 4 -4 4 0.36717519D-02 0.12125170D+00 0.17231252D+05 0.17231252D+05 0.17231252D+05 0.12410147D+01  1  2 12  8  6  5       21 0.430005110942D-02 0.100000000000D+01
  </mgrwgt>
  </event>
  <event>
  5     66 0.49582427E-03 0.37447525E+02 0.75467711E-02 0.12207242E+00
       -2 -1    0    0    0  501 0.00000000E+00 0.00000000E+00 0.25471969E+02 0.25473979E+02 0.32000000E+00 0.0000E+00 0.9000E+01
        1 -1    0    0  502    0 -.00000000E+00 -.00000000E+00 -.25944557E+04 0.25944557E+04 0.32000000E+00 0.0000E+00 0.9000E+01
       25  1    1    2    0    0 0.25979878E+02 0.66603281E+02 -.37734889E+03 0.40389125E+03 0.12500000E+03 0.0000E+00 0.9000E+01
      -24  1    1    2    0    0 -.66093394E+01 -.34555581E+02 -.21719559E+04 0.21737289E+04 0.80419002E+02 0.0000E+00 0.9000E+01
       21  1    1    2  502  501 -.19370539E+02 -.32047700E+02 -.19678924E+02 0.42309519E+02 0.75000000E+00 0.0000E+00 0.9000E+01
#aMCatNLO 1  0  0  5  1 0.36558102D+01 0.00000000D+00  -5  6  0 0.00000000D+00 0.00000000D+00 0.00000000D+00 0.00000000D+00 0.00000000D+00
  <mgrwgt>
 0.1042524779D+00   25    2    0
 0.257076940611325D+03 0.000000000000000D+00 0.000000000000000D+00 0.257076940611325D+03
 0.257076940611325D+03 -.000000000000000D+00 -.000000000000000D+00 -.257076940611325D+03
 0.172639635217118D+03 0.259800113308806D+02 0.666035006833235D+02 0.952284429982624D+02
 0.224248091969685D+03 -.660916665007529D+01 -.345552946362890D+02 -.206354649393864D+03
 0.117266154035847D+03 -.193708446808053D+02 -.320482060470344D+02 0.111126206395602D+03
 0.000000000000000D+00 -.000000000000000D+00 0.000000000000000D+00 0.000000000000000D+00
 0.257076940611325D+03 0.000000000000000D+00 0.000000000000000D+00 0.257076940611325D+03
 0.257076940611325D+03 -.000000000000000D+00 -.000000000000000D+00 -.257076940611325D+03
 0.172669821108786D+03 0.259673110668164D+02 0.665824886579684D+02 0.953013015745887D+02
 0.224165726122230D+03 -.662565902755146D+01 -.345825805456168D+02 -.206260036310461D+03
 0.551094313031623D+02 -.620163977375691D+01 -.130504520640027D+02 0.531815267136972D+02
 0.622089026884717D+02 -.131400122655080D+02 -.189494560483489D+02 0.577772080221754D+02
0.474683600962D-04 0.000000000000D+00 0.000000000000D+00 0.660792008211D-05 0.000000000000D+00  6 -2 1 25 -24 21 21 2 0.39189206D-02 0.39914718D+00 0.18120581D+05 0.18120581D+05 0.18120581D+05 0.12385724D+01  1  2  2  3  6  5       21 0.257856581224D-02 0.100000000000D+01
0.717702856635D-06 0.250497418256D-05 -.182291001476D-06 0.660792008211D-05 0.000000000000D+00  6 -2 1 25 -24 21 21 4 0.39189206D-02 0.39914718D+00 0.18120581D+05 0.18120581D+05 0.18120581D+05 0.12385724D+01  1  2  3  3  6  5       21 0.598083017050D-04 0.100000000000D+01
0.178347349572D-05 0.000000000000D+00 0.000000000000D+00 0.660792008211D-05 0.000000000000D+00  6 -2 1 25 -24 21 21 4 0.39189206D-02 0.39914718D+00 0.18120581D+05 0.18120581D+05 0.18120581D+05 0.12385724D+01  1  2 15  3  6  5       21 0.148622121159D-03 0.100000000000D+01
0.617817162250D-04 0.000000000000D+00 0.000000000000D+00 0.660768610357D-05 0.000000000000D+00  6 -2 1 25 -24 21 21 4 0.39189206D-02 0.39914718D+00 0.18128796D+05 0.18128796D+05 0.18128796D+05 0.12385505D+01  1  2 12  3  6  5       21 0.514803251689D-02 0.100000000000D+01
0.628422731814D-04 0.000000000000D+00 0.000000000000D+00 0.660768610357D-05 0.000000000000D+00  6 -2 1 25 -24 21 21 4 0.39189206D-02 0.39914718D+00 0.18128796D+05 0.18128796D+05 0.18128796D+05 0.12385505D+01  1  2 12  3  6  5       21 0.523640464429D-02 0.100000000000D+01
-.316224074527D-02 0.000000000000D+00 0.000000000000D+00 0.660792008211D-05 0.000000000000D+00  6 -2 1 25 -24 21 21 4 0.39189206D-02 0.39914718D+00 0.18120581D+05 0.18120581D+05 0.18120581D+05 0.12385724D+01  1  2  4  3  6  5       21 -.263518873874D+00 0.100000000000D+01
-.217185227836D-02 0.000000000000D+00 0.000000000000D+00 0.660792008211D-05 0.000000000000D+00  6 -2 1 25 -24 21 21 4 0.39189206D-02 0.39914718D+00 0.18120581D+05 0.18120581D+05 0.18120581D+05 0.12385724D+01  1  2  5  3  6  5       21 -.180986873777D+00 0.100000000000D+01
0.409186855223D-02 0.000000000000D+00 -.000000000000D+00 0.660792008211D-05 0.000000000000D+00  6 -2 1 25 -24 21 21 4 0.39189206D-02 0.39914718D+00 0.18120581D+05 0.18120581D+05 0.18120581D+05 0.12385724D+01  1  2  6  3  6  5       21 0.340987508474D+00 0.100000000000D+01
0.232391375055D-02 0.000000000000D+00 0.000000000000D+00 0.660792008211D-05 0.312690730352D-05  6 -2 1 25 -24 21 21 4 0.39189206D-02 0.39914718D+00 0.18128796D+05 0.18128796D+05 0.18128796D+05 0.12385505D+01  1  2 11  3  6  5       21 0.193642784391D+00 0.100000000000D+01
0.116998318203D-05 0.000000000000D+00 0.000000000000D+00 0.660768610357D-05 0.000000000000D+00  6 -2 1 25 -24 1 -1 4 0.39189206D-02 0.39914718D+00 0.18128796D+05 0.18128796D+05 0.18128796D+05 0.12385505D+01  1  2 12  6  6  5       21 0.974901934316D-04 0.100000000000D+01
0.119031028228D-05 0.000000000000D+00 0.000000000000D+00 0.660768610357D-05 0.000000000000D+00  6 -2 1 25 -24 1 -1 4 0.39189206D-02 0.39914718D+00 0.18128796D+05 0.18128796D+05 0.18128796D+05 0.12385505D+01  1  2 12  6  6  5       21 0.991839724235D-04 0.100000000000D+01
-.412093137077D-04 0.000000000000D+00 0.000000000000D+00 0.660792008211D-05 0.000000000000D+00  6 -2 1 25 -24 1 -1 4 0.39189206D-02 0.39914718D+00 0.18120581D+05 0.18120581D+05 0.18120581D+05 0.12385724D+01  1  2  5  6  6  5       21 -.343409399099D-02 0.100000000000D+01
0.417644760202D-04 0.000000000000D+00 0.000000000000D+00 0.660792008211D-05 0.484946051135D-07  6 -2 1 25 -24 1 -1 4 0.39189206D-02 0.39914718D+00 0.18128796D+05 0.18128796D+05 0.18128796D+05 0.12385505D+01  1  2 11  6  6  5       21 0.348007296883D-02 0.100000000000D+01
0.116998318203D-05 0.000000000000D+00 0.000000000000D+00 0.660768610357D-05 0.000000000000D+00  6 -2 1 25 -24 2 -2 4 0.39189206D-02 0.39914718D+00 0.18128796D+05 0.18128796D+05 0.18128796D+05 0.12385505D+01  1  2 12  7  6  5       21 0.974901934316D-04 0.100000000000D+01
0.119031028228D-05 0.000000000000D+00 0.000000000000D+00 0.660768610357D-05 0.000000000000D+00  6 -2 1 25 -24 2 -2 4 0.39189206D-02 0.39914718D+00 0.18128796D+05 0.18128796D+05 0.18128796D+05 0.12385505D+01  1  2 12  7  6  5       21 0.991839724235D-04 0.100000000000D+01
-.412093137077D-04 0.000000000000D+00 0.000000000000D+00 0.660792008211D-05 0.000000000000D+00  6 -2 1 25 -24 2 -2 4 0.39189206D-02 0.39914718D+00 0.18120581D+05 0.18120581D+05 0.18120581D+05 0.12385724D+01  1  2  5  7  6  5       21 -.343409399099D-02 0.100000000000D+01
0.417469597993D-04 0.000000000000D+00 0.000000000000D+00 0.660792008211D-05 0.486479797817D-07  6 -2 1 25 -24 2 -2 4 0.39189206D-02 0.39914718D+00 0.18128796D+05 0.18128796D+05 0.18128796D+05 0.12385505D+01  1  2 11  7  6  5       21 0.347861340959D-02 0.100000000000D+01
0.116998318203D-05 0.000000000000D+00 0.000000000000D+00 0.660768610357D-05 0.000000000000D+00  6 -2 1 25 -24 3 -3 4 0.39189206D-02 0.39914718D+00 0.18128796D+05 0.18128796D+05 0.18128796D+05 0.12385505D+01  1  2 12  8  6  5       21 0.974901934316D-04 0.100000000000D+01
0.116998318203D-05 0.000000000000D+00 0.000000000000D+00 0.660768610357D-05 0.000000000000D+00  6 -2 1 25 -24 4 -4 4 0.39189206D-02 0.39914718D+00 0.18128796D+05 0.18128796D+05 0.18128796D+05 0.12385505D+01  1  2 12  8  6  5       21 0.974901934316D-04 0.100000000000D+01
0.119031028228D-05 0.000000000000D+00 0.000000000000D+00 0.660768610357D-05 0.000000000000D+00  6 -2 1 25 -24 3 -3 4 0.39189206D-02 0.39914718D+00 0.18128796D+05 0.18128796D+05 0.18128796D+05 0.12385505D+01  1  2 12  8  6  5       21 0.991839724235D-04 0.100000000000D+01
0.119031028228D-05 0.000000000000D+00 0.000000000000D+00 0.660768610357D-05 0.000000000000D+00  6 -2 1 25 -24 4 -4 4 0.39189206D-02 0.39914718D+00 0.18128796D+05 0.18128796D+05 0.18128796D+05 0.12385505D+01  1  2 12  8  6  5       21 0.991839724235D-04 0.100000000000D+01
-.412093137077D-04 0.000000000000D+00 0.000000000000D+00 0.660792008211D-05 0.000000000000D+00  6 -2 1 25 -24 3 -3 4 0.39189206D-02 0.39914718D+00 0.18120581D+05 0.18120581D+05 0.18120581D+05 0.12385724D+01  1  2  5  8  6  5       21 -.343409399099D-02 0.100000000000D+01
-.412093137077D-04 0.000000000000D+00 0.000000000000D+00 0.660792008211D-05 0.000000000000D+00  6 -2 1 25 -24 4 -4 4 0.39189206D-02 0.39914718D+00 0.18120581D+05 0.18120581D+05 0.18120581D+05 0.12385724D+01  1  2  5  8  6  5       21 -.343409399099D-02 0.100000000000D+01
0.416885468424D-04 0.000000000000D+00 0.000000000000D+00 0.660792008211D-05 0.484049922289D-07  6 -2 1 25 -24 3 -3 4 0.39189206D-02 0.39914718D+00 0.18128796D+05 0.18128796D+05 0.18128796D+05 0.12385505D+01  1  2 11  8  6  5       21 0.347374608282D-02 0.100000000000D+01
0.416885468424D-04 0.000000000000D+00 0.000000000000D+00 0.660792008211D-05 0.484049922289D-07  6 -2 1 25 -24 4 -4 4 0.39189206D-02 0.39914718D+00 0.18128796D+05 0.18128796D+05 0.18128796D+05 0.12385505D+01  1  2 11  8  6  5       21 0.347374608282D-02 0.100000000000D+01
  </mgrwgt>
  </event>
  <event>
  6     66 -.49582427E-03 0.38189489E+02 0.75467711E-02 0.11097985E+00
       -2 -1    0    0    0  501 0.00000000E+00 0.00000000E+00 0.21703221E+03 0.21703244E+03 0.32000000E+00 0.0000E+00 0.9000E+01
        1 -1    0    0  502    0 -.00000000E+00 -.00000000E+00 -.63844062E+03 0.63844070E+03 0.32000000E+00 0.0000E+00 0.9000E+01
       25  1    1    2    0    0 0.20659027E+03 -.23047848E+02 -.15762271E+03 0.28927610E+03 0.12500000E+03 0.0000E+00 0.9000E+01
      -24  1    1    2    0    0 -.18639299E+03 0.68318975E+02 -.36882697E+03 0.42650953E+03 0.80419002E+02 0.0000E+00 0.9000E+01
       21  1    1    2  503  501 -.97138494E+01 -.42567058E+02 0.11619241E+03 0.12412716E+03 0.75000000E+00 0.0000E+00 0.9000E+01
       21  1    1    2  502  503 -.10483422E+02 -.27040691E+01 -.11151137E+02 0.15560349E+02 0.75000000E+00 0.0000E+00 0.9000E+01
#aMCatNLO 2  0  0  5  2 0.11376359D+02 0.00000000D+00  -5  6  0 0.00000000D+00 0.00000000D+00 0.00000000D+00 0.00000000D+00 0.00000000D+00
  <mgrwgt>
 -.9021213788D-01    3    2    0
 0.372239589309252D+03 0.000000000000000D+00 0.000000000000000D+00 0.372239589309252D+03
 0.372239589309252D+03 -.000000000000000D+00 -.000000000000000D+00 -.372239589309252D+03
 0.243842427986714D+03 0.207048510513014D+03 -.220207170180664D+02 -.219119146312711D+02
 0.284709387116039D+03 -.185860409894555D+03 0.695127354839218D+02 -.187659550241895D+03
 0.215927363515752D+03 -.211881006184593D+02 -.474920184658555D+02 0.209571464873166D+03
 0.000000000000000D+00 0.000000000000000D+00 0.000000000000000D+00 -.000000000000000D+00
 0.372239589309252D+03 0.000000000000000D+00 0.000000000000000D+00 0.372239589309252D+03
 0.372239589309252D+03 -.000000000000000D+00 -.000000000000000D+00 -.372239589309252D+03
 0.243179893690251D+03 0.206588238575751D+03 -.230523924729579D+02 -.173593657327496D+02
 0.281310314288622D+03 -.186395340169615D+03 0.683137172727781D+02 -.182368555859341D+03
 0.208384687373071D+03 -.965814912453482D+01 -.425465135524174D+02 0.203766268728646D+03
 0.116042832665595D+02 -.105347492816013D+02 -.271481124740291D+01 -.403834713655582D+01
-.120372046030D-02 0.000000000000D+00 0.000000000000D+00 0.711861128142D-05 0.000000000000D+00  6 -2 1 25 -24 21 21 4 0.33389595D-01 0.98221658D-01 0.65345938D+05 0.65345938D+05 0.65345938D+05 0.11809377D+01  1  2 13  3  6  5       21 -.561593316287D-01 0.100000000000D+01
-.366988465749D-02 0.000000000000D+00 0.000000000000D+00 0.712312743445D-05 0.000000000000D+00  6 -2 1 25 -24 21 21 4 0.33389595D-01 0.98221658D-01 0.64762763D+05 0.64762763D+05 0.64762763D+05 0.11813123D+01  1  2  8  3  6  5       21 -.171455376446D+00 0.100000000000D+01
0.294508998327D-02 0.000000000000D+00 0.000000000000D+00 0.712312743445D-05 0.317783510884D-06  6 -2 1 25 -24 21 21 4 0.33389595D-01 0.98221658D-01 0.65345938D+05 0.65345938D+05 0.65345938D+05 0.11809377D+01  1  2  1  3  6  5       21 0.137402570200D+00 0.100000000000D+01
  </mgrwgt>
  </event>
  <event>
  5     66 0.49582427E-03 0.69531722E+02 0.75467711E-02 0.11614303E+00
       -2 -1    0    0    0  501 0.00000000E+00 0.00000000E+00 0.66816738E+02 0.66817505E+02 0.32000000E+00 0.0000E+00 0.9000E+01
        1 -1    0    0  502    0 0.00000000E+00 0.00000000E+00 -.36594669E+03 0.36594683E+03 0.32000000E+00 0.0000E+00 0.9000E+01
       25  1    1    2    0    0 0.12179893E+01 0.16411663E+02 -.17653859E+03 0.21693709E+03 0.12500000E+03 0.0000E+00 0.9000E+01
      -24  1    1    2    0    0 -.69258305E+02 -.21029725E+01 -.58206784E+02 0.12106354E+03 0.80419002E+02 0.0000E+00 0.9000E+01
       21  1    1    2  502  501 0.68040316E+02 -.14308691E+02 -.64384569E+02 0.94763698E+02 0.75000000E+00 0.0000E+00 0.9000E+01
#aMCatNLO 1  0  0  2  1 0.65336171D+02 0.00000000D+00  -5  6  0 0.00000000D+00 0.00000000D+00 0.00000000D+00 0.00000000D+00 0.00000000D+00
  <mgrwgt>
 0.3429537147D-01    7    4    0
 0.156369945932292D+03 0.000000000000000D+00 0.000000000000000D+00 0.156369945932292D+03
 0.156369945932292D+03 0.000000000000000D+00 0.000000000000000D+00 -.156369945932292D+03
 0.131338110948611D+03 0.121632775352606D+01 0.164120127622285D+02 -.367949150214823D+02
 0.111852884851466D+03 -.692597201505089D+02 -.210267493175976D+01 0.352494229460485D+02
 0.695488960645062D+02 0.680433923969828D+02 -.143093378304687D+02 0.154549207543379D+01
 0.000000000000000D+00 -.000000000000000D+00 0.000000000000000D+00 -.000000000000000D+00
 0.176419597746086D+03 0.000000000000000D+00 0.000000000000000D+00 0.176419597746086D+03
 0.223751296882316D+03 0.000000000000000D+00 0.000000000000000D+00 -.223751296882316D+03
 0.131729436009839D+03 0.188547261785540D+02 -.427525914580950D+01 -.367949150214823D+02
 0.105214195341438D+03 -.547056039561435D+02 -.191725330809436D+02 0.352494229460485D+02
 0.825482389476486D+02 0.782413430665627D+02 -.262700483962877D+02 0.154549207543379D+01
 0.806790243294768D+02 -.423904652889732D+02 0.497178406230408D+02 -.473316991362299D+02
 0.156369945932292D+03 0.000000000000000D+00 0.000000000000000D+00 0.156369945932292D+03
 0.156369945932292D+03 0.000000000000000D+00 0.000000000000000D+00 -.156369945932292D+03
 0.131338110948611D+03 0.121632775352606D+01 0.164120127622285D+02 -.367949150214823D+02
 0.111852884851466D+03 -.692597201505089D+02 -.210267493175976D+01 0.352494229460485D+02
 0.000000000000000D+00 -.000000000000000D+00 0.000000000000000D+00 -.000000000000000D+00
 0.695488960645062D+02 0.680433923969828D+02 -.143093378304687D+02 0.154549207543379D+01
 0.176419597746086D+03 0.000000000000000D+00 0.000000000000000D+00 0.176419597746086D+03
 0.223751296882316D+03 0.000000000000000D+00 0.000000000000000D+00 -.223751296882316D+03
 0.131729436009839D+03 0.188547261785540D+02 -.427525914580950D+01 -.367949150214823D+02
 0.105214195341438D+03 -.547056039561435D+02 -.191725330809436D+02 0.352494229460485D+02
 0.806790243294768D+02 -.423904652889732D+02 0.497178406230408D+02 -.473316991362299D+02
 0.825482389476486D+02 0.782413430665627D+02 -.262700483962877D+02 0.154549207543379D+01
0.367908019893D-04 0.000000000000D+00 0.000000000000D+00 0.474720700332D-05 0.000000000000D+00  6 -2 1 25 -24 21 21 2 0.10279568D-01 0.56299560D-01 0.22765349D+05 0.22765349D+05 0.22765349D+05 0.12276817D+01  1  2  2  2  6  2        1 0.203986972972D-01 0.100000000000D+01
-.144389007285D-05 0.194150396078D-05 -.141286366879D-06 0.474720700332D-05 0.000000000000D+00  6 -2 1 25 -24 21 21 4 0.10279568D-01 0.56299560D-01 0.22765349D+05 0.22765349D+05 0.22765349D+05 0.12276817D+01  1  2  3  2  6  2        1 -.120661537821D-02 0.100000000000D+01
0.179243189946D-05 0.000000000000D+00 0.000000000000D+00 0.474720700332D-05 0.000000000000D+00  6 -2 1 25 -24 21 21 4 0.10279568D-01 0.56299560D-01 0.22765349D+05 0.22765349D+05 0.22765349D+05 0.12276817D+01  1  2 15  2  6  2        1 0.149788126876D-02 0.100000000000D+01
-.239874042612D-04 0.000000000000D+00 0.000000000000D+00 0.474720700332D-05 0.000000000000D+00  6 -2 1 25 -24 21 21 4 0.10279568D-01 0.56299560D-01 0.22765349D+05 0.22765349D+05 0.22765349D+05 0.12276817D+01  1  2  4  2  6  2        1 -.200455501489D-01 0.100000000000D+01
-.852983433567D-04 0.000000000000D+00 -.311956397848D-04 0.474720700332D-05 0.000000000000D+00  6 -2 1 25 -24 21 21 4 0.10279568D-01 0.88317757D-01 0.22765349D+05 0.22765349D+05 0.22765349D+05 0.12276817D+01  1  2  5  2  6  2        1 -.398158344325D-01 0.100000000000D+01
0.927030624586D-04 0.000000000000D+00 0.282802662309D-04 0.474720700332D-05 0.000000000000D+00  6 -2 1 25 -24 21 21 4 0.10279568D-01 0.56299560D-01 0.22765349D+05 0.22765349D+05 0.22765349D+05 0.12276817D+01  1  2  6  2  6  2        1 0.774691528619D-01 0.100000000000D+01
-.319216753198D-05 0.000000000000D+00 -.162178169063D-05 0.474720700332D-05 0.000000000000D+00  6 -2 21 25 -24 -1 21 4 0.10279568D-01 0.88317757D-01 0.22765349D+05 0.22765349D+05 0.22765349D+05 0.12276817D+01  3  4  5  5  5  2        1 -.400235999776D-02 0.100000000000D+01
  </mgrwgt>
  </event>
  <event>
  5     66 0.49582427E-03 0.22618836E+02 0.75467711E-02 0.11490304E+00
       -2 -1    0    0    0  501 0.00000000E+00 0.00000000E+00 0.34718548E+02 0.34720023E+02 0.32000000E+00 0.0000E+00 0.9000E+01
        1 -1    0    0  502    0 0.00000000E+00 0.00000000E+00 -.98498011E+03 0.98498016E+03 0.32000000E+00 0.0000E+00 0.9000E+01
       25  1    1    2    0    0 0.53822507E+01 0.70892631E+02 -.79354136E+03 0.80646613E+03 0.12500000E+03 0.0000E+00 0.9000E+01
      -24  1    1    2    0    0 0.17073221E+02 -.73593402E+02 -.15537045E+03 0.19056410E+03 0.80419002E+02 0.0000E+00 0.9000E+01
       21  1    1    2  502  501 -.22455471E+02 0.27007707E+01 -.13497517E+01 0.22669951E+02 0.75000000E+00 0.0000E+00 0.9000E+01
#aMCatNLO 1  0  0  2  5 0.67463014D+02 0.00000000D+00  -5  6  0 0.00000000D+00 0.00000000D+00 0.00000000D+00 0.00000000D+00 0.00000000D+00
  <mgrwgt>
 0.2100571464D+00    7    4    0
 0.184926627918780D+03 0.000000000000000D+00 0.000000000000000D+00 0.184926627918780D+03
 0.184926627918780D+03 0.000000000000000D+00 0.000000000000000D+00 -.184926627918780D+03
 0.184620022843950D+03 0.538315542198658D+01 0.708925224855074D+02 -.115779206804354D+03
 0.126199941524541D+03 0.170738391907995D+02 -.735934764065196D+02 0.612510696405936D+02
 0.590332914690684D+02 -.224569946127861D+02 0.270095392101212D+01 0.545281371637602D+02
 0.000000000000000D+00 0.000000000000000D+00 0.000000000000000D+00 -.000000000000000D+00
 0.223040308260074D+03 0.000000000000000D+00 0.000000000000000D+00 0.223040308260074D+03
 0.275459100224920D+03 0.000000000000000D+00 0.000000000000000D+00 -.275459100224920D+03
 0.183810302665826D+03 -.418865929703385D+02 0.547897432663674D+02 -.115779206804354D+03
 0.133013878938296D+03 -.161833908055041D+02 -.849227906145383D+02 0.612510696405936D+02
 0.668727244013280D+02 -.386107834819269D+02 -.280195025257155D+01 0.545281371637602D+02
 0.114802502479544D+03 0.966807672577695D+02 0.329349976007425D+02 -.524187919648462D+02
 0.184926627918780D+03 0.000000000000000D+00 0.000000000000000D+00 0.184926627918780D+03
 0.184926627918780D+03 0.000000000000000D+00 0.000000000000000D+00 -.184926627918780D+03
 0.184620022843950D+03 0.538315542198658D+01 0.708925224855074D+02 -.115779206804354D+03
 0.126199941524541D+03 0.170738391907995D+02 -.735934764065196D+02 0.612510696405936D+02
 0.000000000000000D+00 0.000000000000000D+00 0.000000000000000D+00 -.000000000000000D+00
 0.590332914690684D+02 -.224569946127861D+02 0.270095392101212D+01 0.545281371637602D+02
 0.223040308260074D+03 0.000000000000000D+00 0.000000000000000D+00 0.223040308260074D+03
 0.275459100224920D+03 0.000000000000000D+00 0.000000000000000D+00 -.275459100224920D+03
 0.183810302665826D+03 -.418865929703385D+02 0.547897432663674D+02 -.115779206804354D+03
 0.133013878938296D+03 -.161833908055041D+02 -.849227906145383D+02 0.612510696405936D+02
 0.114802502479544D+03 0.966807672577695D+02 0.329349976007425D+02 -.524187919648462D+02
 0.668727244013280D+02 -.386107834819269D+02 -.280195025257155D+01 0.545281371637602D+02
0.266394661294D-03 0.000000000000D+00 0.000000000000D+00 0.293544659477D-04 0.000000000000D+00  6 -2 1 25 -24 21 21 2 0.53414325D-02 0.15153552D+00 0.19149368D+05 0.19149368D+05 0.19149368D+05 0.12359095D+01  1  2  2  2  6  2        1 0.102563607229D+00 0.100000000000D+01
0.325427310839D-04 0.140580324991D-04 -.102302564269D-05 0.293544659477D-04 0.000000000000D+00  6 -2 1 25 -24 21 21 4 0.53414325D-02 0.15153552D+00 0.19149368D+05 0.19149368D+05 0.19149368D+05 0.12359095D+01  1  2  3  2  6  2        1 0.191379366464D-01 0.100000000000D+01
0.129193313150D-04 0.000000000000D+00 0.000000000000D+00 0.293544659477D-04 0.000000000000D+00  6 -2 1 25 -24 21 21 4 0.53414325D-02 0.15153552D+00 0.19149368D+05 0.19149368D+05 0.19149368D+05 0.12359095D+01  1  2 15  2  6  2        1 0.759768267702D-02 0.100000000000D+01
-.117542648457D-03 0.000000000000D+00 0.000000000000D+00 0.293544659477D-04 0.000000000000D+00  6 -2 1 25 -24 21 21 4 0.53414325D-02 0.15153552D+00 0.19149368D+05 0.19149368D+05 0.19149368D+05 0.12359095D+01  1  2  4  2  6  2        1 -.691252296438D-01 0.100000000000D+01
-.297375095111D-03 0.000000000000D+00 -.190952487971D-03 0.293544659477D-04 0.000000000000D+00  6 -2 1 25 -24 21 21 4 0.53414325D-02 0.25023965D+00 0.19149368D+05 0.19149368D+05 0.19149368D+05 0.12359095D+01  1  2  5  2  6  2        1 -.645211449726D-01 0.100000000000D+01
0.367663813624D-03 0.000000000000D+00 0.169215018207D-03 0.293544659477D-04 0.000000000000D+00  6 -2 1 25 -24 21 21 4 0.53414325D-02 0.15153552D+00 0.19149368D+05 0.19149368D+05 0.19149368D+05 0.12359095D+01  1  2  6  2  6  2        1 0.216218078137D+00 0.100000000000D+01
-.816546984213D-05 0.000000000000D+00 -.107936879121D-04 0.293544659477D-04 0.000000000000D+00  6 -2 21 25 -24 -1 21 4 0.53414325D-02 0.25023965D+00 0.19149368D+05 0.19149368D+05 0.19149368D+05 0.12359095D+01  3  4  5  5  5  2        1 -.181378371981D-02 0.100000000000D+01
  </mgrwgt>
  </event>
  <event>
  5     66 0.49582427E-03 0.46935006E+02 0.75467711E-02 0.12320596E+00
       -2 -1    0    0    0  501 0.00000000E+00 0.00000000E+00 0.32544149E+03 0.32544165E+03 0.32000000E+00 0.0000E+00 0.9000E+01
        1 -1    0    0  502    0 0.00000000E+00 0.00000000E+00 -.62058173E+02 0.62058998E+02 0.32000000E+00 0.0000E+00 0.9000E+01
       25  1    1    2    0    0 -.65900957E+01 -.47808282E+02 0.20796082E+03 0.24738990E+03 0.12500000E+03 0.0000E+00 0.9000E+01
      -24  1    1    2    0    0 -.73021524E+00 0.14511363E+01 0.44479155E+02 0.91914363E+02 0.80419002E+02 0.0000E+00 0.9000E+01
       21  1    1    2  502  501 0.73203109E+01 0.46357146E+02 0.10943344E+02 0.48196382E+02 0.75000000E+00 0.0000E+00 0.9000E+01
#aMCatNLO 1  0  0  5  2 0.17976643D+02 0.00000000D+00  -5  6  0 0.00000000D+00 0.00000000D+00 0.00000000D+00 0.00000000D+00 0.00000000D+00
  <mgrwgt>
 0.4470328167D-01   20    2    0
 0.142114372522573D+03 0.000000000000000D+00 0.000000000000000D+00 0.142114372522573D+03
 0.142114372522573D+03 -.000000000000000D+00 -.000000000000000D+00 -.142114372522573D+03
 0.144569086250323D+03 -.659043485229565D+01 -.478104304243245D+02 0.542766027893398D+02
 0.840933094357762D+02 -.730412541365576D+00 0.144988683947715D+01 -.245322861381243D+02
 0.555663493590463D+02 0.732084739366123D+01 0.463605435848473D+02 -.297443166512155D+02
 0.000000000000000D+00 0.000000000000000D+00 0.000000000000000D+00 0.000000000000000D+00
 0.142114372522573D+03 0.000000000000000D+00 0.000000000000000D+00 0.142114372522573D+03
 0.142114372522573D+03 -.000000000000000D+00 -.000000000000000D+00 -.142114372522573D+03
 0.141510891718589D+03 -.572408295886635D+01 -.423241058835451D+02 0.507566489282809D+02
 0.848374442666815D+02 -.218830153224915D+00 0.468957158187063D+01 -.266108253737893D+02
 0.319098623462384D+02 -.539865561795208D+01 0.145702747553756D+02 -.278711486312908D+02
 0.259705467136363D+02 0.113415687300433D+02 0.230642595462989D+02 0.372532507679924D+01
0.116962471824D-03 0.000000000000D+00 0.000000000000D+00 0.109618262494D-04 0.000000000000D+00  6 -2 1 25 -24 21 21 2 0.50067998D-01 0.95474868D-02 0.17077778D+05 0.17077778D+05 0.17077778D+05 0.12414504D+01  1  2  2  3  6  5       21 0.398035273532D-01 0.100000000000D+01
-.255433055820D-06 0.617227921196D-05 -.449166688731D-06 0.109618262494D-04 0.000000000000D+00  6 -2 1 25 -24 21 21 4 0.50067998D-01 0.95474868D-02 0.17077778D+05 0.17077778D+05 0.17077778D+05 0.12414504D+01  1  2  3  3  6  5       21 -.133971022712D-03 0.100000000000D+01
0.574109095846D-05 0.000000000000D+00 0.000000000000D+00 0.109618262494D-04 0.000000000000D+00  6 -2 1 25 -24 21 21 4 0.50067998D-01 0.95474868D-02 0.17077778D+05 0.17077778D+05 0.17077778D+05 0.12414504D+01  1  2 15  3  6  5       21 0.301112095582D-02 0.100000000000D+01
0.438614590337D-04 0.000000000000D+00 0.000000000000D+00 0.110119881486D-04 0.000000000000D+00  6 -2 1 25 -24 21 21 4 0.50067998D-01 0.95474868D-02 0.16115185D+05 0.16115185D+05 0.16115185D+05 0.12442876D+01  1  2 12  3  6  5       21 0.231757544109D-01 0.100000000000D+01
0.369382936584D-04 0.000000000000D+00 0.000000000000D+00 0.110119881486D-04 0.000000000000D+00  6 -2 1 25 -24 21 21 4 0.50067998D-01 0.95474868D-02 0.16115185D+05 0.16115185D+05 0.16115185D+05 0.12442876D+01  1  2 12  3  6  5       21 0.195176549309D-01 0.100000000000D+01
-.135205980413D-03 0.000000000000D+00 0.000000000000D+00 0.109618262494D-04 0.000000000000D+00  6 -2 1 25 -24 21 21 4 0.50067998D-01 0.95474868D-02 0.17077778D+05 0.17077778D+05 0.17077778D+05 0.12414504D+01  1  2  4  3  6  5       21 -.709136231979D-01 0.100000000000D+01
-.687425527961D-04 0.000000000000D+00 0.000000000000D+00 0.109618262494D-04 0.000000000000D+00  6 -2 1 25 -24 21 21 4 0.50067998D-01 0.95474868D-02 0.17077778D+05 0.17077778D+05 0.17077778D+05 0.12414504D+01  1  2  5  3  6  5       21 -.360544960494D-01 0.100000000000D+01
0.119965877958D-03 0.000000000000D+00 -.000000000000D+00 0.109618262494D-04 0.000000000000D+00  6 -2 1 25 -24 21 21 4 0.50067998D-01 0.95474868D-02 0.17077778D+05 0.17077778D+05 0.17077778D+05 0.12414504D+01  1  2  6  3  6  5       21 0.629204051491D-01 0.100000000000D+01
0.133165854397D-05 0.000000000000D+00 0.000000000000D+00 0.110119881486D-04 0.000000000000D+00  6 -2 1 25 -24 1 -1 4 0.50067998D-01 0.95474868D-02 0.16115185D+05 0.16115185D+05 0.16115185D+05 0.12442876D+01  1  2 12  6  6  5       21 0.703628927401D-03 0.100000000000D+01
0.112482726687D-05 0.000000000000D+00 0.000000000000D+00 0.110119881486D-04 0.000000000000D+00  6 -2 1 25 -24 1 -1 4 0.50067998D-01 0.95474868D-02 0.16115185D+05 0.16115185D+05 0.16115185D+05 0.12442876D+01  1  2 12  6  6  5       21 0.594342301101D-03 0.100000000000D+01
-.865121423206D-06 0.000000000000D+00 0.000000000000D+00 0.109618262494D-04 0.000000000000D+00  6 -2 1 25 -24 1 -1 4 0.50067998D-01 0.95474868D-02 0.17077778D+05 0.17077778D+05 0.17077778D+05 0.12414504D+01  1  2  5  6  6  5       21 -.453743942674D-03 0.100000000000D+01
0.133165854397D-05 0.000000000000D+00 0.000000000000D+00 0.110119881486D-04 0.000000000000D+00  6 -2 1 25 -24 2 -2 4 0.50067998D-01 0.95474868D-02 0.16115185D+05 0.16115185D+05 0.16115185D+05 0.12442876D+01  1  2 12  7  6  5       21 0.703628927401D-03 0.100000000000D+01
0.112482726687D-05 0.000000000000D+00 0.000000000000D+00 0.110119881486D-04 0.000000000000D+00  6 -2 1 25 -24 2 -2 4 0.50067998D-01 0.95474868D-02 0.16115185D+05 0.16115185D+05 0.16115185D+05 0.12442876D+01  1  2 12  7  6  5       21 0.594342301101D-03 0.100000000000D+01
-.865121423206D-06 0.000000000000D+00 0.000000000000D+00 0.109618262494D-04 0.000000000000D+00  6 -2 1 25 -24 2 -2 4 0.50067998D-01 0.95474868D-02 0.17077778D+05 0.17077778D+05 0.17077778D+05 0.12414504D+01  1  2  5  7  6  5       21 -.453743942674D-03 0.100000000000D+01
0.133165854397D-05 0.000000000000D+00 0.000000000000D+00 0.110119881486D-04 0.000000000000D+00  6 -2 1 25 -24 3 -3 4 0.50067998D-01 0.95474868D-02 0.16115185D+05 0.16115185D+05 0.16115185D+05 0.12442876D+01  1  2 12  8  6  5       21 0.703628927401D-03 0.100000000000D+01
0.133165854397D-05 0.000000000000D+00 0.000000000000D+00 0.110119881486D-04 0.000000000000D+00  6 -2 1 25 -24 4 -4 4 0.50067998D-01 0.95474868D-02 0.16115185D+05 0.16115185D+05 0.16115185D+05 0.12442876D+01  1  2 12  8  6  5       21 0.703628927401D-03 0.100000000000D+01
0.112482726687D-05 0.000000000000D+00 0.000000000000D+00 0.110119881486D-04 0.000000000000D+00  6 -2 1 25 -24 3 -3 4 0.50067998D-01 0.95474868D-02 0.16115185D+05 0.16115185D+05 0.16115185D+05 0.12442876D+01  1  2 12  8  6  5       21 0.594342301101D-03 0.100000000000D+01
0.112482726687D-05 0.000000000000D+00 0.000000000000D+00 0.110119881486D-04 0.000000000000D+00  6 -2 1 25 -24 4 -4 4 0.50067998D-01 0.95474868D-02 0.16115185D+05 0.16115185D+05 0.16115185D+05 0.12442876D+01  1  2 12  8  6  5       21 0.594342301101D-03 0.100000000000D+01
-.865121423206D-06 0.000000000000D+00 0.000000000000D+00 0.109618262494D-04 0.000000000000D+00  6 -2 1 25 -24 3 -3 4 0.50067998D-01 0.95474868D-02 0.17077778D+05 0.17077778D+05 0.17077778D+05 0.12414504D+01  1  2  5  8  6  5       21 -.453743942674D-03 0.100000000000D+01
-.865121423206D-06 0.000000000000D+00 0.000000000000D+00 0.109618262494D-04 0.000000000000D+00  6 -2 1 25 -24 4 -4 4 0.50067998D-01 0.95474868D-02 0.17077778D+05 0.17077778D+05 0.17077778D+05 0.12414504D+01  1  2  5  8  6  5       21 -.453743942674D-03 0.100000000000D+01
  </mgrwgt>
  </event>
  <event>
  5     66 -.49582427E-03 0.10380631E+03 0.75467711E-02 0.11658098E+00
       -2 -1    0    0    0  501 0.00000000E+00 0.00000000E+00 0.20310034E+03 0.20310059E+03 0.32000000E+00 0.0000E+00 0.9000E+01
        1 -1    0    0  502    0 0.00000000E+00 0.00000000E+00 -.77015819E+03 0.77015826E+03 0.32000000E+00 0.0000E+00 0.9000E+01
       25  1    1    2    0    0 0.12430409E+02 -.66270374E+02 -.33146981E+03 0.36061546E+03 0.12500000E+03 0.0000E+00 0.9000E+01
      -24  1    1    2    0    0 0.62490849E+02 -.92064198E+01 -.40219208E+03 0.41498861E+03 0.80419002E+02 0.0000E+00 0.9000E+01
       21  1    1    2  502  501 -.74921258E+02 0.75476794E+02 0.16660404E+03 0.19765477E+03 0.75000000E+00 0.0000E+00 0.9000E+01
#aMCatNLO 1  0  0  1  5 0.15933809D+02 0.00000000D+00  -5  6  0 0.00000000D+00 0.00000000D+00 0.00000000D+00 0.00000000D+00 0.00000000D+00
  <mgrwgt>
 -.3201906423D+00    9    4    0
 0.395499106923166D+03 0.000000000000000D+00 0.000000000000000D+00 0.395499106923166D+03
 0.395499106923166D+03 0.000000000000000D+00 0.000000000000000D+00 -.395499106923166D+03
 0.206081065005580D+03 0.124304506996177D+02 -.662704165448134D+02 -.149325554210307D+03
 0.222282828247622D+03 0.624908941788636D+02 -.920646516418897D+01 -.197364051750307D+03
 0.362634320593130D+03 -.749213448784813D+02 0.754768817090023D+02 0.346689605960614D+03
 0.000000000000000D+00 -.000000000000000D+00 0.000000000000000D+00 0.000000000000000D+00
 0.626242970966719D+03 0.000000000000000D+00 0.000000000000000D+00 0.626242970966719D+03
 0.395854510539467D+03 0.000000000000000D+00 0.000000000000000D+00 -.395854510539467D+03
 0.206667707220283D+03 0.164802627317426D+02 -.672072987685577D+02 -.149325554210307D+03
 0.223596143210794D+03 0.668657733910921D+02 -.102185483256919D+02 -.197364051750307D+03
 0.360894831873898D+03 -.678222151791914D+02 0.738345713087760D+02 0.346689605960614D+03
 0.230938799201211D+03 -.155238209436433D+02 0.359127578547359D+01 0.230388460427252D+03
 0.395499106923166D+03 0.000000000000000D+00 0.000000000000000D+00 0.395499106923166D+03
 0.395499106923166D+03 0.000000000000000D+00 0.000000000000000D+00 -.395499106923166D+03
 0.206081065005580D+03 0.124304506996177D+02 -.662704165448134D+02 -.149325554210307D+03
 0.222282828247622D+03 0.624908941788636D+02 -.920646516418897D+01 -.197364051750307D+03
 0.000000000000000D+00 -.000000000000000D+00 0.000000000000000D+00 0.000000000000000D+00
 0.362634320593130D+03 -.749213448784813D+02 0.754768817090023D+02 0.346689605960614D+03
 0.626242970966719D+03 0.000000000000000D+00 0.000000000000000D+00 0.626242970966719D+03
 0.395854510539467D+03 0.000000000000000D+00 0.000000000000000D+00 -.395854510539467D+03
 0.206667707220283D+03 0.164802627317426D+02 -.672072987685577D+02 -.149325554210307D+03
 0.223596143210794D+03 0.668657733910921D+02 -.102185483256919D+02 -.197364051750307D+03
 0.230938799201211D+03 -.155238209436433D+02 0.359127578547359D+01 0.230388460427252D+03
 0.360894831873898D+03 -.678222151791914D+02 0.738345713087760D+02 0.346689605960614D+03
0.558164997654D-04 0.000000000000D+00 0.000000000000D+00 0.111378127342D-04 0.000000000000D+00  6 -2 1 25 -24 21 21 2 0.31246230D-01 0.11848590D+00 0.30736029D+05 0.30736029D+05 0.30736029D+05 0.12137952D+01  1  2  2  1  6  1       -2 0.171460720696D-02 0.100000000000D+01
0.847592311361D-07 0.294551761615D-05 -.214350055921D-06 0.111378127342D-04 0.000000000000D+00  6 -2 1 25 -24 21 21 4 0.31246230D-01 0.11848590D+00 0.30736029D+05 0.30736029D+05 0.30736029D+05 0.12137952D+01  1  2  3  1  6  1       -2 0.383601108859D-05 0.100000000000D+01
0.402907210352D-05 0.000000000000D+00 0.000000000000D+00 0.111378127342D-04 0.000000000000D+00  6 -2 1 25 -24 21 21 4 0.31246230D-01 0.11848590D+00 0.30736029D+05 0.30736029D+05 0.30736029D+05 0.12137952D+01  1  2 15  1  6  1       -2 0.182346690250D-03 0.100000000000D+01
0.848004131268D-02 0.000000000000D+00 0.000000000000D+00 0.110750747238D-04 0.000000000000D+00  6 -2 1 25 -24 21 21 4 0.50305604D-01 0.11848590D+00 0.33151323D+05 0.33151323D+05 0.33151323D+05 0.12103717D+01  1  2 12  1  6  1       -2 0.153204095076D+00 0.100000000000D+01
-.146796887429D-01 0.000000000000D+00 0.000000000000D+00 0.111378127342D-04 0.000000000000D+00  6 -2 1 25 -24 21 21 4 0.31246230D-01 0.11848590D+00 0.30736029D+05 0.30736029D+05 0.30736029D+05 0.12137952D+01  1  2  4  1  6  1       -2 -.664369509258D+00 0.100000000000D+01
-.890839003473D-02 0.000000000000D+00 -.336731364552D-04 0.111378127342D-04 0.000000000000D+00  6 -2 1 25 -24 21 21 4 0.49492790D-01 0.11848590D+00 0.30736029D+05 0.30736029D+05 0.30736029D+05 0.12137952D+01  1  2  5  1  6  1       -2 -.168433476893D+00 0.100000000000D+01
0.805957916818D-02 0.000000000000D+00 0.304006673202D-04 0.111378127342D-04 0.000000000000D+00  6 -2 1 25 -24 21 21 4 0.31246230D-01 0.11848590D+00 0.30736029D+05 0.30736029D+05 0.30736029D+05 0.12137952D+01  1  2  6  1  6  1       -2 0.364758323596D+00 0.100000000000D+01
0.460213046835D-03 0.000000000000D+00 0.000000000000D+00 0.110750747238D-04 0.000000000000D+00  6 21 1 25 -24 2 21 4 0.50305604D-01 0.11848590D+00 0.33151323D+05 0.33151323D+05 0.33151323D+05 0.12103717D+01  3  4 12  4  5  1       -2 0.101972951789D+00 0.100000000000D+01
-.469304454081D-03 0.000000000000D+00 -.177914385236D-05 0.111378127342D-04 0.000000000000D+00  6 21 1 25 -24 2 21 4 0.49492790D-01 0.11848590D+00 0.30736029D+05 0.30736029D+05 0.30736029D+05 0.12137952D+01  3  4  5  4  5  1       -2 -.109223816483D+00 0.100000000000D+01
  </mgrwgt>
  </event>
  <event>
  5     66 0.49582427E-03 0.49506461E+02 0.75467711E-02 0.12125339E+00
       -2 -1    0    0    0  501 0.00000000E+00 0.00000000E+00 0.12583024E+02 0.12587092E+02 0.32000000E+00 0.0000E+00 0.9000E+01
        1 -1    0    0  502    0 -.00000000E+00 -.00000000E+00 -.17013675E+04 0.17013676E+04 0.32000000E+00 0.0000E+00 0.9000E+01
       25  1    1    2    0    0 -.59901433E+02 -.44612823E+02 -.10837825E+04 0.10935209E+04 0.12500000E+03 0.0000E+00 0.9000E+01
      -24  1    1    2    0    0 0.24258136E+02 0.78528174E+01 -.32397419E+03 0.33477846E+03 0.80419002E+02 0.0000E+00 0.9000E+01
       21  1    1    2  502  501 0.35643298E+02 0.36760005E+02 -.28102785E+03 0.28565531E+03 0.75000000E+00 0.0000E+00 0.9000E+01
#aMCatNLO 1  0  0  5  5 0.21756668D-01 0.00000000D+00  -5  6  0 0.00000000D+00 0.00000000D+00 0.00000000D+00 0.00000000D+00 0.00000000D+00
  <mgrwgt>
 0.9630262342D-02   15    2    0
 0.146327921166488D+03 0.000000000000000D+00 0.000000000000000D+00 0.146327921166488D+03
 0.146327921166488D+03 -.000000000000000D+00 -.000000000000000D+00 -.146327921166488D+03
 0.150246720321584D+03 -.599033912492359D+02 -.446148422058301D+02 -.370158957636053D+02
 0.911390301702378D+02 0.242569477166820D+02 0.785159236351074D+01 0.344827471473547D+02
 0.512700918411540D+02 0.356464435325539D+02 0.367632498423194D+02 0.253314861625060D+01
 0.000000000000000D+00 0.000000000000000D+00 0.000000000000000D+00 0.000000000000000D+00
 0.146327921166488D+03 0.000000000000000D+00 0.000000000000000D+00 0.146327921166488D+03
 0.146327921166488D+03 -.000000000000000D+00 -.000000000000000D+00 -.146327921166488D+03
 0.150245500833894D+03 -.599017032514476D+02 -.446131013229180D+02 -.370157758091628D+02
 0.911394212121312D+02 0.242579716554103D+02 0.785264838233228D+01 0.344828199116676D+02
 0.512184613910958D+02 0.356230146960519D+02 0.367150917877263D+02 0.251667364886198D+01
 0.524588958547307D-01 0.207168999854426D-01 0.453611528594544D-01 0.162822486331546D-01
0.139649766195D-04 0.000000000000D+00 0.000000000000D+00 0.843174034809D-05 0.000000000000D+00  6 -2 1 25 -24 21 21 2 0.19361651D-02 0.26174917D+00 0.19766524D+05 0.19766524D+05 0.19766524D+05 0.12343879D+01  1  2  2  3  6  5       21 0.792613823953D-02 0.100000000000D+01
0.674638087616D-07 0.736952062824D-06 -.536291872816D-07 0.843174034809D-05 0.000000000000D+00  6 -2 1 25 -24 21 21 4 0.19361651D-02 0.26174917D+00 0.19766524D+05 0.19766524D+05 0.19766524D+05 0.12343879D+01  1  2  3  3  6  5       21 0.583439164726D-04 0.100000000000D+01
0.611725905387D-06 0.000000000000D+00 0.000000000000D+00 0.843174034809D-05 0.000000000000D+00  6 -2 1 25 -24 21 21 4 0.19361651D-02 0.26174917D+00 0.19766524D+05 0.19766524D+05 0.19766524D+05 0.12343879D+01  1  2 15  3  6  5       21 0.529031576829D-03 0.100000000000D+01
-.549523067512D-01 0.000000000000D+00 0.000000000000D+00 0.843174034809D-05 0.000000000000D+00  6 -2 1 25 -24 21 21 4 0.19361651D-02 0.26174917D+00 0.19766524D+05 0.19766524D+05 0.19766524D+05 0.12343879D+01  1  2  4  3  6  5       21 -.475237442700D+02 0.100000000000D+01
-.515625520332D-01 0.000000000000D+00 0.000000000000D+00 0.843174034809D-05 0.000000000000D+00  6 -2 1 25 -24 21 21 4 0.19361651D-02 0.26174917D+00 0.19766524D+05 0.19766524D+05 0.19766524D+05 0.12343879D+01  1  2  5  3  6  5       21 -.445922233589D+02 0.100000000000D+01
0.516340456141D-01 0.000000000000D+00 -.000000000000D+00 0.843174034809D-05 0.000000000000D+00  6 -2 1 25 -24 21 21 4 0.19361651D-02 0.26174917D+00 0.19766524D+05 0.19766524D+05 0.19766524D+05 0.12343879D+01  1  2  6  3  6  5       21 0.446540522949D+02 0.100000000000D+01
0.548820813067D-01 0.000000000000D+00 0.000000000000D+00 0.843174034809D-05 0.167438122286D+00  6 -2 1 25 -24 21 21 4 0.19361651D-02 0.26174917D+00 0.19766264D+05 0.19766264D+05 0.19766264D+05 0.12343885D+01  1  2 11  3  6  5       21 0.474631027084D+02 0.100000000000D+01
-.439365112907D-05 0.000000000000D+00 0.000000000000D+00 0.843174034809D-05 0.000000000000D+00  6 -2 1 25 -24 1 -1 4 0.19361651D-02 0.26174917D+00 0.19766524D+05 0.19766524D+05 0.19766524D+05 0.12343879D+01  1  2  5  6  6  5       21 -.379970860213D-02 0.100000000000D+01
0.439454969625D-05 0.000000000000D+00 0.000000000000D+00 0.843174034809D-05 0.264560843599D-04  6 -2 1 25 -24 1 -1 4 0.19361651D-02 0.26174917D+00 0.19766264D+05 0.19766264D+05 0.19766264D+05 0.12343885D+01  1  2 11  6  6  5       21 0.380049295917D-02 0.100000000000D+01
-.439365112907D-05 0.000000000000D+00 0.000000000000D+00 0.843174034809D-05 0.000000000000D+00  6 -2 1 25 -24 2 -2 4 0.19361651D-02 0.26174917D+00 0.19766524D+05 0.19766524D+05 0.19766524D+05 0.12343879D+01  1  2  5  7  6  5       21 -.379970860213D-02 0.100000000000D+01
0.430943293476D-05 0.000000000000D+00 0.000000000000D+00 0.843174034809D-05 0.261979500417D-04  6 -2 1 25 -24 2 -2 4 0.19361651D-02 0.26174917D+00 0.19766264D+05 0.19766264D+05 0.19766264D+05 0.12343885D+01  1  2 11  7  6  5       21 0.372688231072D-02 0.100000000000D+01
-.439365112907D-05 0.000000000000D+00 0.000000000000D+00 0.843174034809D-05 0.000000000000D+00  6 -2 1 25 -24 3 -3 4 0.19361651D-02 0.26174917D+00 0.19766524D+05 0.19766524D+05 0.19766524D+05 0.12343879D+01  1  2  5  8  6  5       21 -.379970860213D-02 0.100000000000D+01
-.439365112907D-05 0.000000000000D+00 0.000000000000D+00 0.843174034809D-05 0.000000000000D+00  6 -2 1 25 -24 4 -4 4 0.19361651D-02 0.26174917D+00 0.19766524D+05 0.19766524D+05 0.19766524D+05 0.12343879D+01  1  2  5  8  6  5       21 -.379970860213D-02 0.100000000000D+01
0.439446150855D-05 0.000000000000D+00 0.000000000000D+00 0.843174034809D-05 0.264555489223D-04  6 -2 1 25 -24 3 -3 4 0.19361651D-02 0.26174917D+00 0.19766264D+05 0.19766264D+05 0.19766264D+05 0.12343885D+01  1  2 11  8  6  5       21 0.380041669271D-02 0.100000000000D+01
0.439446150855D-05 0.000000000000D+00 0.000000000000D+00 0.843174034809D-05 0.264555489223D-04  6 -2 1 25 -24 4 -4 4 0.19361651D-02 0.26174917D+00 0.19766264D+05 0.19766264D+05 0.19766264D+05 0.12343885D+01  1  2 11  8  6  5       21 0.380041669271D-02 0.100000000000D+01
  </mgrwgt>
  </event>
  <event>
  6     66 0.49582427E-03 0.17690261E+02 0.75467711E-02 0.12444146E+00
       21 -1    0    0  503  501 0.00000000E+00 0.00000000E+00 0.13117532E+03 0.13117746E+03 0.75000000E+00 0.0000E+00 0.9000E+01
        1 -1    0    0  502    0 0.00000000E+00 0.00000000E+00 -.30332907E+03 0.30332924E+03 0.32000000E+00 0.0000E+00 0.9000E+01
       25  1    1    2    0    0 0.21544778E+02 -.10803415E+01 0.45163901E+02 0.13464814E+03 0.12500000E+03 0.0000E+00 0.9000E+01
      -24  1    1    2    0    0 -.28784791E+02 -.15786216E+02 -.24211241E+03 0.25722247E+03 0.80419002E+02 0.0000E+00 0.9000E+01
        2  1    1    2  503    0 0.37120922E+01 -.28378948E+01 0.21901156E+02 0.22396346E+02 0.32000000E+00 0.0000E+00 0.9000E+01
       21  1    1    2  502  501 0.35279202E+01 0.19704452E+02 0.28935937E+01 0.20239739E+02 0.75000000E+00 0.0000E+00 0.9000E+01
#aMCatNLO 2  0  0  1  5 0.15933809D+02 0.00000000D+00  -5  6  0 0.00000000D+00 0.00000000D+00 0.00000000D+00 0.00000000D+00 0.00000000D+00
  <mgrwgt>
 0.3842511225D+00    1    2    0
 0.181766199226660D+03 0.000000000000000D+00 0.000000000000000D+00 0.181766199226660D+03
 0.181766199226660D+03 0.000000000000000D+00 0.000000000000000D+00 -.181766199226660D+03
 0.176975623796934D+03 0.233497437923381D+02 -.246540557995634D+01 0.123061296346464D+03
 0.162186408412168D+03 -.271287726838181D+02 -.170569775243168D+02 -.137150662884554D+03
 0.000000000000000D+00 0.000000000000000D+00 -.000000000000000D+00 0.000000000000000D+00
 0.243703662442176D+02 0.377902889148000D+01 0.195223831042732D+02 0.140893665380901D+02
 0.218708852150785D+03 0.000000000000000D+00 0.000000000000000D+00 0.218708852150785D+03
 0.181929024479149D+03 0.000000000000000D+00 0.000000000000000D+00 -.181929024479149D+03
 0.176732567822607D+03 0.215439306237415D+02 -.108486127207760D+01 0.123061296346464D+03
 0.162343667427787D+03 -.287856206122590D+02 -.157903171541261D+02 -.137150662884554D+03
 0.370754500782211D+02 0.371209217349649D+01 -.283789475542734D+01 0.367798276716361D+02
 0.244861913013191D+02 0.352959781502100D+01 0.197130731816310D+02 0.140893665380901D+02
0.728932484091D-04 0.000000000000D+00 0.000000000000D+00 0.216480830225D-04 0.231218551266D-06  6 21 1 25 -24 2 21 4 0.20180919D-01 0.46666012D-01 0.14209794D+05 0.14209794D+05 0.14209794D+05 0.12505109D+01  1  2  1  4  5  1       -2 0.384251122472D+00 0.100000000000D+01
  </mgrwgt>
  </event>
  <event>
  5     66 0.49582427E-03 0.11056084E+03 0.75467711E-02 0.10880380E+00
       -2 -1    0    0    0  501 0.00000000E+00 0.00000000E+00 0.23962218E+03 0.23962239E+03 0.32000000E+00 0.0000E+00 0.9000E+01
        1 -1    0    0  502    0 -.00000000E+00 -.00000000E+00 -.59797079E+03 0.59797088E+03 0.32000000E+00 0.0000E+00 0.9000E+01
       25  1    1    2    0    0 0.18477237E+03 0.37043646E+01 0.71152200E+02 0.23418409E+03 0.12500000E+03 0.0000E+00 0.9000E+01
      -24  1    1    2    0    0 -.21597195E+03 -.10977120E+03 -.13484599E+03 0.28869405E+03 0.80419002E+02 0.0000E+00 0.9000E+01
       21  1    1    2  502  501 0.31199574E+02 0.10606683E+03 -.29465482E+03 0.31471513E+03 0.75000000E+00 0.0000E+00 0.9000E+01
#aMCatNLO 1  0  0  5  2 0.29180517D+00 0.00000000D+00  -5  6  0 0.00000000D+00 0.00000000D+00 0.00000000D+00 0.00000000D+00 0.00000000D+00
  <mgrwgt>
 0.3184985391D-02    1    2    0
 0.378532942988479D+03 0.000000000000000D+00 0.000000000000000D+00 0.378532942988479D+03
 0.378532942988479D+03 -.000000000000000D+00 -.000000000000000D+00 -.378532942988479D+03
 0.292773047359538D+03 0.184772296659452D+03 0.370409979457339D+01 0.189569341645990D+03
 0.255574089330598D+03 -.215972016257125D+03 -.109771426633303D+03 -.125387906719614D+02
 0.208718749286822D+03 0.311997195976732D+02 0.106067326838730D+03 -.177030550974028D+03
 0.000000000000000D+00 0.000000000000000D+00 0.000000000000000D+00 0.000000000000000D+00
 0.378532942988479D+03 0.000000000000000D+00 0.000000000000000D+00 0.378532942988479D+03
 0.378532942988479D+03 -.000000000000000D+00 -.000000000000000D+00 -.378532942988479D+03
 0.290943371974538D+03 0.185390037853985D+03 0.580418780905714D+01 0.186064211938485D+03
 0.254503252008759D+03 -.215432206555519D+03 -.107936276420759D+03 -.156017287409181D+02
 0.188073278986414D+03 0.418288297417810D+02 0.829678952333429D+02 -.163518303659509D+03
 0.235459830072475D+02 -.117866610402475D+02 0.191641933783586D+02 -.694417953805758D+01
0.782693367962D-04 0.000000000000D+00 0.000000000000D+00 0.140561877688D-05 0.000000000000D+00  6 -2 1 25 -24 21 21 4 0.36864974D-01 0.91995529D-01 0.86712703D+05 0.86712703D+05 0.86712703D+05 0.11693027D+01  1  2 14  3  6  5       21 0.318498539086D-02 0.100000000000D+01
  </mgrwgt>
  </event>
  <event>
  5     66 0.49582427E-03 0.49931105E+02 0.75467711E-02 0.11315488E+00
       -2 -1    0    0    0  501 0.00000000E+00 0.00000000E+00 0.11062034E+03 0.11062081E+03 0.32000000E+00 0.0000E+00 0.9000E+01
        1 -1    0    0  502    0 -.00000000E+00 -.00000000E+00 -.53786404E+03 0.53786413E+03 0.32000000E+00 0.0000E+00 0.9000E+01
       25  1    1    2    0    0 -.13652893E+03 -.44125315E+02 -.29680828E+03 0.35257247E+03 0.12500000E+03 0.0000E+00 0.9000E+01
      -24  1    1    2    0    0 0.18620977E+03 0.39180857E+02 -.71356624E+02 0.21855938E+03 0.80419002E+02 0.0000E+00 0.9000E+01
       21  1    1    2  502  501 -.49680845E+02 0.49444585E+01 -.59078792E+02 0.77353088E+02 0.75000000E+00 0.0000E+00 0.9000E+01
#aMCatNLO 1  0  0  5  2 0.10719585D+02 0.00000000D+00  -5  6  0 0.00000000D+00 0.00000000D+00 0.00000000D+00 0.00000000D+00 0.00000000D+00
  <mgrwgt>
 0.1512508169D+00   20    2    0
 0.243923932335742D+03 0.000000000000000D+00 0.000000000000000D+00 0.243923932335742D+03
 0.243923932335742D+03 -.000000000000000D+00 -.000000000000000D+00 -.243923932335742D+03
 0.208728313900887D+03 -.136526635854778D+03 -.441255431113187D+02 -.857666786766009D+02
 0.228036023113929D+03 0.186212275864087D+03 0.391806073919780D+02 0.965560987465781D+02
 0.510835276566670D+02 -.496856400093088D+02 0.494493571934077D+01 -.107894200699772D+02
 0.000000000000000D+00 0.000000000000000D+00 0.000000000000000D+00 0.000000000000000D+00
 0.243923932335742D+03 0.000000000000000D+00 0.000000000000000D+00 0.243923932335742D+03
 0.243923932335742D+03 -.000000000000000D+00 -.000000000000000D+00 -.243923932335742D+03
 0.211139721938262D+03 -.139845916187123D+03 -.437951935802502D+02 -.864874726490439D+02
 0.224851863587524D+03 0.182631956033164D+03 0.395369367341234D+02 0.957786190837730D+02
 0.396705825687527D+02 -.375928825653545D+02 -.666509648348358D+01 -.107752861046725D+02
 0.121856965769446D+02 -.519315728068680D+01 0.109233533296103D+02 0.148413966994338D+01
0.495347239156D-03 0.000000000000D+00 0.000000000000D+00 0.538963443859D-05 0.000000000000D+00  6 -2 1 25 -24 21 21 2 0.17018557D-01 0.82748356D-01 0.49909680D+05 0.49909680D+05 0.49909680D+05 0.11923595D+01  1  2  2  3  6  5       21 0.701106484661D-01 0.100000000000D+01
0.587118798372D-04 0.261401919715D-04 -.190226382628D-05 0.538963443859D-05 0.000000000000D+00  6 -2 1 25 -24 21 21 4 0.17018557D-01 0.82748356D-01 0.49909680D+05 0.49909680D+05 0.49909680D+05 0.11923595D+01  1  2  3  3  6  5       21 0.118144818135D-01 0.100000000000D+01
0.107041267852D-04 0.000000000000D+00 0.000000000000D+00 0.538963443859D-05 0.000000000000D+00  6 -2 1 25 -24 21 21 4 0.17018557D-01 0.82748356D-01 0.49909680D+05 0.49909680D+05 0.49909680D+05 0.11923595D+01  1  2 15  3  6  5       21 0.215397142083D-02 0.100000000000D+01
0.258968693439D-03 0.000000000000D+00 0.000000000000D+00 0.539048704008D-05 0.000000000000D+00  6 -2 1 25 -24 21 21 4 0.17018557D-01 0.82748356D-01 0.49800401D+05 0.49800401D+05 0.49800401D+05 0.11924538D+01  1  2 12  3  6  5       21 0.521278677073D-01 0.100000000000D+01
0.249573613259D-03 0.000000000000D+00 0.000000000000D+00 0.539048704008D-05 0.000000000000D+00  6 -2 1 25 -24 21 21 4 0.17018557D-01 0.82748356D-01 0.49800401D+05 0.49800401D+05 0.49800401D+05 0.11924538D+01  1  2 12  3  6  5       21 0.502367298629D-01 0.100000000000D+01
-.559510423624D-03 0.000000000000D+00 0.000000000000D+00 0.538963443859D-05 0.000000000000D+00  6 -2 1 25 -24 21 21 4 0.17018557D-01 0.82748356D-01 0.49909680D+05 0.49909680D+05 0.49909680D+05 0.11923595D+01  1  2  4  3  6  5       21 -.112589236500D+00 0.100000000000D+01
-.701039784898D-03 0.000000000000D+00 0.000000000000D+00 0.538963443859D-05 0.000000000000D+00  6 -2 1 25 -24 21 21 4 0.17018557D-01 0.82748356D-01 0.49909680D+05 0.49909680D+05 0.49909680D+05 0.11923595D+01  1  2  5  3  6  5       21 -.141068925270D+00 0.100000000000D+01
0.109729666031D-02 0.000000000000D+00 -.000000000000D+00 0.538963443859D-05 0.000000000000D+00  6 -2 1 25 -24 21 21 4 0.17018557D-01 0.82748356D-01 0.49909680D+05 0.49909680D+05 0.49909680D+05 0.11923595D+01  1  2  6  3  6  5       21 0.220806955477D+00 0.100000000000D+01
0.714616481701D-05 0.000000000000D+00 0.000000000000D+00 0.539048704008D-05 0.000000000000D+00  6 -2 1 25 -24 1 -1 4 0.17018557D-01 0.82748356D-01 0.49800401D+05 0.49800401D+05 0.49800401D+05 0.11924538D+01  1  2 12  6  6  5       21 0.143845315528D-02 0.100000000000D+01
0.699115473003D-05 0.000000000000D+00 0.000000000000D+00 0.539048704008D-05 0.000000000000D+00  6 -2 1 25 -24 1 -1 4 0.17018557D-01 0.82748356D-01 0.49800401D+05 0.49800401D+05 0.49800401D+05 0.11924538D+01  1  2 12  6  6  5       21 0.140725113932D-02 0.100000000000D+01
-.170509128152D-04 0.000000000000D+00 0.000000000000D+00 0.538963443859D-05 0.000000000000D+00  6 -2 1 25 -24 1 -1 4 0.17018557D-01 0.82748356D-01 0.49909680D+05 0.49909680D+05 0.49909680D+05 0.11923595D+01  1  2  5  6  6  5       21 -.343112330786D-02 0.100000000000D+01
0.714616481701D-05 0.000000000000D+00 0.000000000000D+00 0.539048704008D-05 0.000000000000D+00  6 -2 1 25 -24 2 -2 4 0.17018557D-01 0.82748356D-01 0.49800401D+05 0.49800401D+05 0.49800401D+05 0.11924538D+01  1  2 12  7  6  5       21 0.143845315528D-02 0.100000000000D+01
0.699115473003D-05 0.000000000000D+00 0.000000000000D+00 0.539048704008D-05 0.000000000000D+00  6 -2 1 25 -24 2 -2 4 0.17018557D-01 0.82748356D-01 0.49800401D+05 0.49800401D+05 0.49800401D+05 0.11924538D+01  1  2 12  7  6  5       21 0.140725113932D-02 0.100000000000D+01
-.170509128152D-04 0.000000000000D+00 0.000000000000D+00 0.538963443859D-05 0.000000000000D+00  6 -2 1 25 -24 2 -2 4 0.17018557D-01 0.82748356D-01 0.49909680D+05 0.49909680D+05 0.49909680D+05 0.11923595D+01  1  2  5  7  6  5       21 -.343112330786D-02 0.100000000000D+01
0.714616481701D-05 0.000000000000D+00 0.000000000000D+00 0.539048704008D-05 0.000000000000D+00  6 -2 1 25 -24 3 -3 4 0.17018557D-01 0.82748356D-01 0.49800401D+05 0.49800401D+05 0.49800401D+05 0.11924538D+01  1  2 12  8  6  5       21 0.143845315528D-02 0.100000000000D+01
0.714616481701D-05 0.000000000000D+00 0.000000000000D+00 0.539048704008D-05 0.000000000000D+00  6 -2 1 25 -24 4 -4 4 0.17018557D-01 0.82748356D-01 0.49800401D+05 0.49800401D+05 0.49800401D+05 0.11924538D+01  1  2 12  8  6  5       21 0.143845315528D-02 0.100000000000D+01
0.699115473003D-05 0.000000000000D+00 0.000000000000D+00 0.539048704008D-05 0.000000000000D+00  6 -2 1 25 -24 3 -3 4 0.17018557D-01 0.82748356D-01 0.49800401D+05 0.49800401D+05 0.49800401D+05 0.11924538D+01  1  2 12  8  6  5       21 0.140725113932D-02 0.100000000000D+01
0.699115473003D-05 0.000000000000D+00 0.000000000000D+00 0.539048704008D-05 0.000000000000D+00  6 -2 1 25 -24 4 -4 4 0.17018557D-01 0.82748356D-01 0.49800401D+05 0.49800401D+05 0.49800401D+05 0.11924538D+01  1  2 12  8  6  5       21 0.140725113932D-02 0.100000000000D+01
-.170509128152D-04 0.000000000000D+00 0.000000000000D+00 0.538963443859D-05 0.000000000000D+00  6 -2 1 25 -24 3 -3 4 0.17018557D-01 0.82748356D-01 0.49909680D+05 0.49909680D+05 0.49909680D+05 0.11923595D+01  1  2  5  8  6  5       21 -.343112330786D-02 0.100000000000D+01
-.170509128152D-04 0.000000000000D+00 0.000000000000D+00 0.538963443859D-05 0.000000000000D+00  6 -2 1 25 -24 4 -4 4 0.17018557D-01 0.82748356D-01 0.49909680D+05 0.49909680D+05 0.49909680D+05 0.11923595D+01  1  2  5  8  6  5       21 -.343112330786D-02 0.100000000000D+01
  </mgrwgt>
  </event>
  <event>
  5     66 0.49582427E-03 0.49293098E+02 0.75467711E-02 0.10177824E+00
       -2 -1    0    0    0  501 0.00000000E+00 0.00000000E+00 0.13646567E+03 0.13646604E+03 0.32000000E+00 0.0000E+00 0.9000E+01
        1 -1    0    0  502    0 0.00000000E+00 0.00000000E+00 -.47552941E+03 0.47552951E+03 0.32000000E+00 0.0000E+00 0.9000E+01
       25  1    1    2    0    0 -.51989624E+02 -.12631315E+03 -.23228852E+03 0.29705368E+03 0.12500000E+03 0.0000E+00 0.9000E+01
      -24  1    1    2    0    0 0.10084478E+03 0.11976176E+03 -.16318998E+03 0.24002236E+03 0.80419002E+02 0.0000E+00 0.9000E+01
       21  1    1    2  502  501 -.48855151E+02 0.65513951E+01 0.56414759E+02 0.74919517E+02 0.75000000E+00 0.0000E+00 0.9000E+01
#aMCatNLO 1  0  0  1  5 0.39272010D+02 0.00000000D+00  -5  6  0 0.00000000D+00 0.00000000D+00 0.00000000D+00 0.00000000D+00 0.00000000D+00
  <mgrwgt>
 0.1048768669D+00    3    2    0
 0.254742195580563D+03 0.000000000000000D+00 0.000000000000000D+00 0.254742195580563D+03
 0.254742195580563D+03 0.000000000000000D+00 0.000000000000000D+00 -.254742195580563D+03
 0.202233980434895D+03 -.519892889292191D+02 -.126313199940330D+03 -.813367825771960D+02
 0.179712981376201D+03 0.100845073183392D+03 0.119761719904973D+03 -.362896869756632D+02
 0.127537429350029D+03 -.488557842541726D+02 0.655148003535744D+01 0.117626469552859D+03
 0.000000000000000D+00 0.000000000000000D+00 -.000000000000000D+00 -.000000000000000D+00
 0.383285229710600D+03 0.000000000000000D+00 0.000000000000000D+00 0.383285229710600D+03
 0.941729278399671D+03 0.000000000000000D+00 0.000000000000000D+00 -.941729278399671D+03
 0.183504224678990D+03 -.106692102114404D+03 -.706566496778018D+01 -.813367825771960D+02
 0.278118806969669D+03 0.359184300453886D+02 0.261296344861815D+03 -.362896869756632D+02
 0.181154094789237D+03 -.926323522813263D+02 0.101980718914247D+03 0.117626469552859D+03
 0.682237381672375D+03 0.163406024350341D+03 -.356211398808281D+03 -.558444048689070D+03
0.768549914669D-03 0.000000000000D+00 0.000000000000D+00 0.862718142784D-05 0.000000000000D+00  6 -2 1 25 -24 21 21 2 0.20994755D-01 0.73158407D-01 0.42119432D+05 0.42119432D+05 0.42119432D+05 0.11997299D+01  1  2  2  1  6  1       -2 0.907794811487D-01 0.100000000000D+01
0.572026895093D-04 0.405574932513D-04 -.295143403617D-05 0.862718142784D-05 0.000000000000D+00  6 -2 1 25 -24 21 21 4 0.20994755D-01 0.73158407D-01 0.42119432D+05 0.42119432D+05 0.42119432D+05 0.11997299D+01  1  2  3  1  6  1       -2 0.972521103019D-02 0.100000000000D+01
0.257166811295D-04 0.000000000000D+00 0.000000000000D+00 0.862718142784D-05 0.000000000000D+00  6 -2 1 25 -24 21 21 4 0.20994755D-01 0.73158407D-01 0.42119432D+05 0.42119432D+05 0.42119432D+05 0.11997299D+01  1  2 15  1  6  1       -2 0.437217468490D-02 0.100000000000D+01
  </mgrwgt>
  </event>
  <event>
  5     66 0.49582427E-03 0.23464224E+02 0.75467711E-02 0.11237176E+00
       -2 -1    0    0    0  501 0.00000000E+00 0.00000000E+00 0.14922495E+03 0.14922529E+03 0.32000000E+00 0.0000E+00 0.9000E+01
        1 -1    0    0  502    0 0.00000000E+00 0.00000000E+00 -.12343439E+03 0.12343480E+03 0.32000000E+00 0.0000E+00 0.9000E+01
       25  1    1    2    0    0 0.35279462E+02 0.62025969E+01 0.62943630E+02 0.14446457E+03 0.12500000E+03 0.0000E+00 0.9000E+01
      -24  1    1    2    0    0 -.57568848E+02 0.10960474E+01 -.33621859E+02 0.10446540E+03 0.80419002E+02 0.0000E+00 0.9000E+01
       21  1    1    2  502  501 0.22289386E+02 -.72986443E+01 -.35312067E+01 0.23730126E+02 0.75000000E+00 0.0000E+00 0.9000E+01
#aMCatNLO 1  0  0  1  5 0.71301843D+01 0.00000000D+00  -5  6  0 0.00000000D+00 0.00000000D+00 0.00000000D+00 0.00000000D+00 0.00000000D+00
  <mgrwgt>
 0.1992406290D+00    3    2    0
 0.135718803298065D+03 0.000000000000000D+00 0.000000000000000D+00 0.135718803298065D+03
 0.135718803298065D+03 0.000000000000000D+00 0.000000000000000D+00 -.135718803298065D+03
 0.139133831238633D+03 0.352739581052112D+02 0.620439902355392D+01 0.495022858814507D+02
 0.108132294648111D+03 -.575731247591796D+02 0.109744791306670D+01 -.436979187723781D+02
 0.241714807093852D+02 0.222991666539684D+02 -.730184693662062D+01 -.580436710907264D+01
 0.000000000000000D+00 -.000000000000000D+00 -.000000000000000D+00 -.000000000000000D+00
 0.210691216884482D+03 0.000000000000000D+00 0.000000000000000D+00 0.210691216884482D+03
 0.294619545994617D+03 0.000000000000000D+00 0.000000000000000D+00 -.294619545994617D+03
 0.180091767083821D+03 0.929656366571042D+02 0.755973456202238D+02 0.495022858814507D+02
 0.104817580863797D+03 -.190880037968910D+02 0.473882824101130D+02 -.436979187723781D+02
 0.336801227123495D+02 0.327543310450991D+02 0.527387771664187D+01 -.580436710907264D+01
 0.186721292219131D+03 -.106631963905312D+03 -.128259505746979D+03 -.839283291101352D+02
0.252975193465D-03 0.000000000000D+00 0.000000000000D+00 0.363267201543D-04 0.000000000000D+00  6 -2 1 25 -24 21 21 2 0.22957743D-01 0.18989964D-01 0.15926881D+05 0.15926881D+05 0.15926881D+05 0.12448649D+01  1  2  2  1  6  1       -2 0.148157920164D+00 0.100000000000D+01
0.434331389372D-04 0.133498677261D-04 -.971491352806D-06 0.363267201543D-04 0.000000000000D+00  6 -2 1 25 -24 21 21 4 0.22957743D-01 0.18989964D-01 0.15926881D+05 0.15926881D+05 0.15926881D+05 0.12448649D+01  1  2  3  1  6  1       -2 0.394196342307D-01 0.100000000000D+01
0.128505489655D-04 0.000000000000D+00 0.000000000000D+00 0.363267201543D-04 0.000000000000D+00  6 -2 1 25 -24 21 21 4 0.22957743D-01 0.18989964D-01 0.15926881D+05 0.15926881D+05 0.15926881D+05 0.12448649D+01  1  2 15  1  6  1       -2 0.116630746080D-01 0.100000000000D+01
  </mgrwgt>
  </event>
  <event>
  5     66 -.49582427E-03 0.24238943E+02 0.75467711E-02 0.11823541E+00
       -2 -1    0    0    0  501 0.00000000E+00 0.00000000E+00 0.31562998E+02 0.31564620E+02 0.32000000E+00 0.0000E+00 0.9000E+01
        1 -1    0    0  502    0 -.00000000E+00 -.00000000E+00 -.87364852E+03 0.87364857E+03 0.32000000E+00 0.0000E+00 0.9000E+01
       25  1    1    2    0    0 -.20815912E+02 0.11666932E+03 -.40991285E+03 0.44463308E+03 0.12500000E+03 0.0000E+00 0.9000E+01
      -24  1    1    2    0    0 -.19674508E+01 -.10842767E+03 -.36703144E+03 0.39107509E+03 0.80419002E+02 0.0000E+00 0.9000E+01
       21  1    1    2  502  501 0.22783363E+02 -.82416564E+01 -.65141226E+02 0.69505024E+02 0.75000000E+00 0.0000E+00 0.9000E+01
#aMCatNLO 1  0  0  5  2 0.35382141D+01 0.00000000D+00  -5  6  0 0.00000000D+00 0.00000000D+00 0.00000000D+00 0.00000000D+00 0.00000000D+00
  <mgrwgt>
 -.5088466093D+00   20    2    0
 0.166059407325014D+03 0.000000000000000D+00 0.000000000000000D+00 0.166059407325014D+03
 0.166059407325014D+03 -.000000000000000D+00 -.000000000000000D+00 -.166059407325014D+03
 0.172548940563328D+03 -.208215653583461D+02 0.116671366507469D+03 0.101188706304159D+02
 0.135295126523157D+03 -.197188361566864D+01 -.108426061566562D+03 -.880091783378266D+01
 0.242747475635424D+02 0.227934489740147D+02 -.824530494090671D+01 -.131795279663327D+01
 0.000000000000000D+00 0.000000000000000D+00 0.000000000000000D+00 0.000000000000000D+00
 0.166059407325014D+03 0.000000000000000D+00 0.000000000000000D+00 0.166059407325014D+03
 0.166059407325014D+03 -.000000000000000D+00 -.000000000000000D+00 -.166059407325014D+03
 0.172215550304159D+03 -.199107051370434D+02 0.116341871822757D+03 0.100662032707120D+02
 0.135496787512161D+03 -.125645731951915D+01 -.108684859959961D+03 -.884228489889291D+01
 0.195746018031115D+02 0.173144520919803D+02 -.816063263739323D+01 -.409620061305712D+01
 0.483187503059599D+01 0.385271036458230D+01 0.503620774597044D+00 0.287228224123804D+01
0.120724231743D-03 0.000000000000D+00 0.000000000000D+00 0.322116969799D-04 0.000000000000D+00  6 -2 1 25 -24 21 21 2 0.48559751D-02 0.13440759D+00 0.27472980D+05 0.27472980D+05 0.27472980D+05 0.12189298D+01  1  2  2  3  6  5       21 0.637386007654D-01 0.100000000000D+01
0.311609374438D-04 0.637079273675D-05 -.463612837315D-06 0.322116969799D-04 0.000000000000D+00  6 -2 1 25 -24 21 21 4 0.48559751D-02 0.13440759D+00 0.27472980D+05 0.27472980D+05 0.27472980D+05 0.12189298D+01  1  2  3  3  6  5       21 0.244442095733D-01 0.100000000000D+01
0.448210792188D-05 0.000000000000D+00 0.000000000000D+00 0.322116969799D-04 0.000000000000D+00  6 -2 1 25 -24 21 21 4 0.48559751D-02 0.13440759D+00 0.27472980D+05 0.27472980D+05 0.27472980D+05 0.12189298D+01  1  2 15  3  6  5       21 0.351599131349D-02 0.100000000000D+01
0.152760075372D-05 0.000000000000D+00 0.000000000000D+00 0.322314805307D-04 0.000000000000D+00  6 -2 1 25 -24 21 21 4 0.48559751D-02 0.13440759D+00 0.27250709D+05 0.27250709D+05 0.27250709D+05 0.12193041D+01  1  2 12  3  6  5       21 0.119964883460D-02 0.100000000000D+01
0.152220524001D-05 0.000000000000D+00 0.000000000000D+00 0.322314805307D-04 0.000000000000D+00  6 -2 1 25 -24 21 21 4 0.48559751D-02 0.13440759D+00 0.27250709D+05 0.27250709D+05 0.27250709D+05 0.12193041D+01  1  2 12  3  6  5       21 0.119541165305D-02 0.100000000000D+01
-.931070049957D-03 0.000000000000D+00 0.000000000000D+00 0.322116969799D-04 0.000000000000D+00  6 -2 1 25 -24 21 21 4 0.48559751D-02 0.13440759D+00 0.27472980D+05 0.27472980D+05 0.27472980D+05 0.12189298D+01  1  2  4  3  6  5       21 -.730378265083D+00 0.100000000000D+01
-.380029069717D-03 0.000000000000D+00 0.000000000000D+00 0.322116969799D-04 0.000000000000D+00  6 -2 1 25 -24 21 21 4 0.48559751D-02 0.13440759D+00 0.27472980D+05 0.27472980D+05 0.27472980D+05 0.12189298D+01  1  2  5  3  6  5       21 -.298113952472D+00 0.100000000000D+01
0.556966100991D-03 0.000000000000D+00 -.000000000000D+00 0.322116969799D-04 0.000000000000D+00  6 -2 1 25 -24 21 21 4 0.48559751D-02 0.13440759D+00 0.27472980D+05 0.27472980D+05 0.27472980D+05 0.12189298D+01  1  2  6  3  6  5       21 0.436912275903D+00 0.100000000000D+01
0.131615893862D-06 0.000000000000D+00 0.000000000000D+00 0.322314805307D-04 0.000000000000D+00  6 -2 1 25 -24 1 -1 4 0.48559751D-02 0.13440759D+00 0.27250709D+05 0.27250709D+05 0.27250709D+05 0.12193041D+01  1  2 12  6  6  5       21 0.103360026042D-03 0.100000000000D+01
0.131363284668D-06 0.000000000000D+00 0.000000000000D+00 0.322314805307D-04 0.000000000000D+00  6 -2 1 25 -24 1 -1 4 0.48559751D-02 0.13440759D+00 0.27250709D+05 0.27250709D+05 0.27250709D+05 0.12193041D+01  1  2 12  6  6  5       21 0.103161648080D-03 0.100000000000D+01
-.388380725140D-05 0.000000000000D+00 0.000000000000D+00 0.322116969799D-04 0.000000000000D+00  6 -2 1 25 -24 1 -1 4 0.48559751D-02 0.13440759D+00 0.27472980D+05 0.27472980D+05 0.27472980D+05 0.12189298D+01  1  2  5  6  6  5       21 -.304665411838D-02 0.100000000000D+01
0.131615893862D-06 0.000000000000D+00 0.000000000000D+00 0.322314805307D-04 0.000000000000D+00  6 -2 1 25 -24 2 -2 4 0.48559751D-02 0.13440759D+00 0.27250709D+05 0.27250709D+05 0.27250709D+05 0.12193041D+01  1  2 12  7  6  5       21 0.103360026042D-03 0.100000000000D+01
0.131363284668D-06 0.000000000000D+00 0.000000000000D+00 0.322314805307D-04 0.000000000000D+00  6 -2 1 25 -24 2 -2 4 0.48559751D-02 0.13440759D+00 0.27250709D+05 0.27250709D+05 0.27250709D+05 0.12193041D+01  1  2 12  7  6  5       21 0.103161648080D-03 0.100000000000D+01
-.388380725140D-05 0.000000000000D+00 0.000000000000D+00 0.322116969799D-04 0.000000000000D+00  6 -2 1 25 -24 2 -2 4 0.48559751D-02 0.13440759D+00 0.27472980D+05 0.27472980D+05 0.27472980D+05 0.12189298D+01  1  2  5  7  6  5       21 -.304665411838D-02 0.100000000000D+01
0.131615893862D-06 0.000000000000D+00 0.000000000000D+00 0.322314805307D-04 0.000000000000D+00  6 -2 1 25 -24 3 -3 4 0.48559751D-02 0.13440759D+00 0.27250709D+05 0.27250709D+05 0.27250709D+05 0.12193041D+01  1  2 12  8  6  5       21 0.103360026042D-03 0.100000000000D+01
0.131615893862D-06 0.000000000000D+00 0.000000000000D+00 0.322314805307D-04 0.000000000000D+00  6 -2 1 25 -24 4 -4 4 0.48559751D-02 0.13440759D+00 0.27250709D+05 0.27250709D+05 0.27250709D+05 0.12193041D+01  1  2 12  8  6  5       21 0.103360026042D-03 0.100000000000D+01
0.131363284668D-06 0.000000000000D+00 0.000000000000D+00 0.322314805307D-04 0.000000000000D+00  6 -2 1 25 -24 3 -3 4 0.48559751D-02 0.13440759D+00 0.27250709D+05 0.27250709D+05 0.27250709D+05 0.12193041D+01  1  2 12  8  6  5       21 0.103161648080D-03 0.100000000000D+01
0.131363284668D-06 0.000000000000D+00 0.000000000000D+00 0.322314805307D-04 0.000000000000D+00  6 -2 1 25 -24 4 -4 4 0.48559751D-02 0.13440759D+00 0.27250709D+05 0.27250709D+05 0.27250709D+05 0.12193041D+01  1  2 12  8  6  5       21 0.103161648080D-03 0.100000000000D+01
-.388380725140D-05 0.000000000000D+00 0.000000000000D+00 0.322116969799D-04 0.000000000000D+00  6 -2 1 25 -24 3 -3 4 0.48559751D-02 0.13440759D+00 0.27472980D+05 0.27472980D+05 0.27472980D+05 0.12189298D+01  1  2  5  8  6  5       21 -.304665411838D-02 0.100000000000D+01
-.388380725140D-05 0.000000000000D+00 0.000000000000D+00 0.322116969799D-04 0.000000000000D+00  6 -2 1 25 -24 4 -4 4 0.48559751D-02 0.13440759D+00 0.27472980D+05 0.27472980D+05 0.27472980D+05 0.12189298D+01  1  2  5  8  6  5       21 -.304665411838D-02 0.100000000000D+01
  </mgrwgt>
  </event>
  <event>
  5     66 0.49582427E-03 0.20193846E+02 0.75467711E-02 0.12433064E+00
       -2 -1    0    0    0  501 0.00000000E+00 0.00000000E+00 0.75769442E+02 0.75770117E+02 0.32000000E+00 0.0000E+00 0.9000E+01
        1 -1    0    0  502    0 -.00000000E+00 -.00000000E+00 -.40787552E+03 0.40787565E+03 0.32000000E+00 0.0000E+00 0.9000E+01
       25  1    1    2    0    0 -.63779369E+00 -.25781726E+02 -.24420037E+03 0.27554296E+03 0.12500000E+03 0.0000E+00 0.9000E+01
      -24  1    1    2    0    0 0.13366641E+02 0.41458268E+02 -.13142768E+03 0.16011841E+03 0.80419002E+02 0.0000E+00 0.9000E+01
       21  1    1    2  502  501 -.12728847E+02 -.15676542E+02 0.43521968E+02 0.47984390E+02 0.75000000E+00 0.0000E+00 0.9000E+01
#aMCatNLO 1  0  0  5  1 0.17115609D+02 0.00000000D+00  -5  6  0 0.00000000D+00 0.00000000D+00 0.00000000D+00 0.00000000D+00 0.00000000D+00
  <mgrwgt>
 0.4782889573D+00    7    2    0
 0.175797310180580D+03 0.000000000000000D+00 0.000000000000000D+00 0.175797310180580D+03
 0.175797310180580D+03 -.000000000000000D+00 -.000000000000000D+00 -.175797310180580D+03
 0.148366731861720D+03 -.637662025346741D+00 -.257815641023758D+02 -.756478120166345D+02
 0.961128375614323D+02 0.133667262695882D+02 0.414583732826794D+02 -.295464973106400D+02
 0.107115050938008D+03 -.127290642442415D+02 -.156768091803037D+02 0.105194309327275D+03
 0.000000000000000D+00 0.000000000000000D+00 0.000000000000000D+00 -.000000000000000D+00
 0.175797310180580D+03 0.000000000000000D+00 0.000000000000000D+00 0.175797310180580D+03
 0.175797310180580D+03 -.000000000000000D+00 -.000000000000000D+00 -.175797310180580D+03
 0.148310817776970D+03 -.651666016286891D+00 -.257988110805918D+02 -.755320815806411D+02
 0.960837342473772D+02 0.133576540662698D+02 0.414472001754078D+02 -.294715236799121D+02
 0.252848278282309D+00 0.124938516896114D+00 0.218800365578861D+00 0.211900649064325D-01
 0.106947220058531D+03 -.128309265668790D+02 -.158671894603948D+02 0.104982415195647D+03
0.746497566075D-03 0.000000000000D+00 0.000000000000D+00 0.896138360742D-04 0.000000000000D+00  6 -2 1 25 -24 21 21 2 0.11656899D-01 0.62750142D-01 0.14314345D+05 0.14314345D+05 0.14314345D+05 0.12501457D+01  1  2  2  3  6  5       21 0.303700212082D+00 0.100000000000D+01
0.145959500087D-03 0.393937588442D-04 -.286674721105D-05 0.896138360742D-04 0.000000000000D+00  6 -2 1 25 -24 21 21 4 0.11656899D-01 0.62750142D-01 0.14314345D+05 0.14314345D+05 0.14314345D+05 0.12501457D+01  1  2  3  3  6  5       21 0.928047742548D-01 0.100000000000D+01
0.296576761151D-04 0.000000000000D+00 0.000000000000D+00 0.896138360742D-04 0.000000000000D+00  6 -2 1 25 -24 21 21 4 0.11656899D-01 0.62750142D-01 0.14314345D+05 0.14314345D+05 0.14314345D+05 0.12501457D+01  1  2 15  3  6  5       21 0.188571071779D-01 0.100000000000D+01
0.185069321328D-04 0.000000000000D+00 0.000000000000D+00 0.895863534960D-04 0.222958312875D-05  6 -2 1 25 -24 1 -1 4 0.11656899D-01 0.62750142D-01 0.14369573D+05 0.14369573D+05 0.14369573D+05 0.12499540D+01  1  2 11  6  6  5       21 0.117609301181D-01 0.100000000000D+01
0.274793126029D-04 0.000000000000D+00 0.000000000000D+00 0.895863534960D-04 0.228029124755D-05  6 -2 1 25 -24 2 -2 4 0.11656899D-01 0.62750142D-01 0.14369573D+05 0.14369573D+05 0.14369573D+05 0.12499540D+01  1  2 11  7  6  5       21 0.174627687019D-01 0.100000000000D+01
0.265175534550D-04 0.000000000000D+00 0.000000000000D+00 0.895863534960D-04 0.214585290962D-05  6 -2 1 25 -24 3 -3 4 0.11656899D-01 0.62750142D-01 0.14369573D+05 0.14369573D+05 0.14369573D+05 0.12499540D+01  1  2 11  8  6  5       21 0.168515824692D-01 0.100000000000D+01
0.265175534550D-04 0.000000000000D+00 0.000000000000D+00 0.895863534960D-04 0.214585290962D-05  6 -2 1 25 -24 4 -4 4 0.11656899D-01 0.62750142D-01 0.14369573D+05 0.14369573D+05 0.14369573D+05 0.12499540D+01  1  2 11  8  6  5       21 0.168515824692D-01 0.100000000000D+01
  </mgrwgt>
  </event>
  <event>
  5     66 0.49582427E-03 0.33970295E+02 0.75467711E-02 0.12047352E+00
       -2 -1    0    0    0  501 0.00000000E+00 0.00000000E+00 0.31384940E+02 0.31386571E+02 0.32000000E+00 0.0000E+00 0.9000E+01
        1 -1    0    0  502    0 -.00000000E+00 -.00000000E+00 -.90975461E+03 0.90975466E+03 0.32000000E+00 0.0000E+00 0.9000E+01
       25  1    1    2    0    0 0.59861719E+01 0.47494969E+02 -.53801948E+03 0.55442003E+03 0.12500000E+03 0.0000E+00 0.9000E+01
      -24  1    1    2    0    0 -.39750802E+02 -.51218734E+02 -.33711898E+03 0.35259028E+03 0.80419002E+02 0.0000E+00 0.9000E+01
       21  1    1    2  502  501 0.33764630E+02 0.37237651E+01 -.32312057E+01 0.34130922E+02 0.75000000E+00 0.0000E+00 0.9000E+01
#aMCatNLO 1  0  0  5  2 0.31764039D+02 0.00000000D+00  -5  6  0 0.00000000D+00 0.00000000D+00 0.00000000D+00 0.00000000D+00 0.00000000D+00
  <mgrwgt>
 0.9479329905D-01   15    2    0
 0.168977477122426D+03 0.000000000000000D+00 0.000000000000000D+00 0.168977477122426D+03
 0.168977477122426D+03 -.000000000000000D+00 -.000000000000000D+00 -.168977477122426D+03
 0.145604360050410D+03 0.598562690304312D+01 0.474949089715417D+02 -.573065053728792D+02
 0.105701341976918D+03 -.397511975664204D+02 -.512187778515056D+02 -.224061783618787D+02
 0.866492522175247D+02 0.337655706633772D+02 0.372386887996384D+01 0.797126837347579D+02
 0.000000000000000D+00 0.000000000000000D+00 0.000000000000000D+00 0.000000000000000D+00
 0.168977477122426D+03 0.000000000000000D+00 0.000000000000000D+00 0.168977477122426D+03
 0.168977477122426D+03 -.000000000000000D+00 -.000000000000000D+00 -.168977477122426D+03
 0.142170774576300D+03 0.105114956868671D+02 0.479940488228093D+02 -.466219785041754D+02
 0.102949387946144D+03 -.364697263353990D+02 -.508568775975599D+02 -.146593855997819D+02
 0.526212622887061D+02 -.663837348598017D+01 -.173678238502707D+02 0.492269025739321D+02
 0.402135294337021D+02 0.325966041345120D+02 0.202306526250213D+02 0.120544615300252D+02
0.143701835492D-03 0.000000000000D+00 0.000000000000D+00 0.248324824716D-04 0.000000000000D+00  6 -2 1 25 -24 21 21 2 0.48285821D-02 0.13996238D+00 0.18376844D+05 0.18376844D+05 0.18376844D+05 0.12378935D+01  1  2  2  3  6  5       21 0.735201250270D-01 0.100000000000D+01
0.962530808313D-05 0.758335419980D-05 -.551852885851D-06 0.248324824716D-04 0.000000000000D+00  6 -2 1 25 -24 21 21 4 0.48285821D-02 0.13996238D+00 0.18376844D+05 0.18376844D+05 0.18376844D+05 0.12378935D+01  1  2  3  3  6  5       21 0.754614513344D-02 0.100000000000D+01
0.474154506071D-05 0.000000000000D+00 0.000000000000D+00 0.248324824716D-04 0.000000000000D+00  6 -2 1 25 -24 21 21 4 0.48285821D-02 0.13996238D+00 0.18376844D+05 0.18376844D+05 0.18376844D+05 0.12378935D+01  1  2 15  3  6  5       21 0.371732383793D-02 0.100000000000D+01
0.490800167544D-04 0.000000000000D+00 0.000000000000D+00 0.245332447714D-04 0.000000000000D+00  6 -2 1 25 -24 21 21 4 0.48285821D-02 0.13996238D+00 0.21486711D+05 0.21486711D+05 0.21486711D+05 0.12304125D+01  1  2 12  3  6  5       21 0.376494915125D-01 0.100000000000D+01
-.752922424348D-04 0.000000000000D+00 0.000000000000D+00 0.248324824716D-04 0.000000000000D+00  6 -2 1 25 -24 21 21 4 0.48285821D-02 0.13996238D+00 0.18376844D+05 0.18376844D+05 0.18376844D+05 0.12378935D+01  1  2  4  3  6  5       21 -.590283639680D-01 0.100000000000D+01
-.671807756906D-04 0.000000000000D+00 0.000000000000D+00 0.248324824716D-04 0.000000000000D+00  6 -2 1 25 -24 21 21 4 0.48285821D-02 0.13996238D+00 0.18376844D+05 0.18376844D+05 0.18376844D+05 0.12378935D+01  1  2  5  3  6  5       21 -.526690552822D-01 0.100000000000D+01
0.106959810196D-03 0.000000000000D+00 -.000000000000D+00 0.248324824716D-04 0.000000000000D+00  6 -2 1 25 -24 21 21 4 0.48285821D-02 0.13996238D+00 0.18376844D+05 0.18376844D+05 0.18376844D+05 0.12378935D+01  1  2  6  3  6  5       21 0.838554199217D-01 0.100000000000D+01
0.140477924980D-05 0.000000000000D+00 0.000000000000D+00 0.245332447714D-04 0.000000000000D+00  6 -2 1 25 -24 1 -1 4 0.48285821D-02 0.13996238D+00 0.21486711D+05 0.21486711D+05 0.21486711D+05 0.12304125D+01  1  2 12  6  6  5       21 0.107761219208D-02 0.100000000000D+01
-.131004093877D-05 0.000000000000D+00 0.000000000000D+00 0.248324824716D-04 0.000000000000D+00  6 -2 1 25 -24 1 -1 4 0.48285821D-02 0.13996238D+00 0.18376844D+05 0.18376844D+05 0.18376844D+05 0.12378935D+01  1  2  5  6  6  5       21 -.102705897508D-02 0.100000000000D+01
0.140477924980D-05 0.000000000000D+00 0.000000000000D+00 0.245332447714D-04 0.000000000000D+00  6 -2 1 25 -24 2 -2 4 0.48285821D-02 0.13996238D+00 0.21486711D+05 0.21486711D+05 0.21486711D+05 0.12304125D+01  1  2 12  7  6  5       21 0.107761219208D-02 0.100000000000D+01
-.131004093877D-05 0.000000000000D+00 0.000000000000D+00 0.248324824716D-04 0.000000000000D+00  6 -2 1 25 -24 2 -2 4 0.48285821D-02 0.13996238D+00 0.18376844D+05 0.18376844D+05 0.18376844D+05 0.12378935D+01  1  2  5  7  6  5       21 -.102705897508D-02 0.100000000000D+01
0.140477924980D-05 0.000000000000D+00 0.000000000000D+00 0.245332447714D-04 0.000000000000D+00  6 -2 1 25 -24 3 -3 4 0.48285821D-02 0.13996238D+00 0.21486711D+05 0.21486711D+05 0.21486711D+05 0.12304125D+01  1  2 12  8  6  5       21 0.107761219208D-02 0.100000000000D+01
0.140477924980D-05 0.000000000000D+00 0.000000000000D+00 0.245332447714D-04 0.000000000000D+00  6 -2 1 25 -24 4 -4 4 0.48285821D-02 0.13996238D+00 0.21486711D+05 0.21486711D+05 0.21486711D+05 0.12304125D+01  1  2 12  8  6  5       21 0.107761219208D-02 0.100000000000D+01
-.131004093877D-05 0.000000000000D+00 0.000000000000D+00 0.248324824716D-04 0.000000000000D+00  6 -2 1 25 -24 3 -3 4 0.48285821D-02 0.13996238D+00 0.18376844D+05 0.18376844D+05 0.18376844D+05 0.12378935D+01  1  2  5  8  6  5       21 -.102705897508D-02 0.100000000000D+01
-.131004093877D-05 0.000000000000D+00 0.000000000000D+00 0.248324824716D-04 0.000000000000D+00  6 -2 1 25 -24 4 -4 4 0.48285821D-02 0.13996238D+00 0.18376844D+05 0.18376844D+05 0.18376844D+05 0.12378935D+01  1  2  5  8  6  5       21 -.102705897508D-02 0.100000000000D+01
  </mgrwgt>
  </event>
  <event>
  5     66 0.49582427E-03 0.27760017E+02 0.75467711E-02 0.11648112E+00
       -2 -1    0    0    0  501 0.00000000E+00 0.00000000E+00 0.52830608E+02 0.52831577E+02 0.32000000E+00 0.0000E+00 0.9000E+01
        1 -1    0    0  502    0 -.00000000E+00 -.00000000E+00 -.92156612E+03 0.92156618E+03 0.32000000E+00 0.0000E+00 0.9000E+01
       25  1    1    2    0    0 0.13486605E+03 -.59577180E+02 -.36038214E+03 0.40894814E+03 0.12500000E+03 0.0000E+00 0.9000E+01
      -24  1    1    2    0    0 -.11341230E+03 0.41961634E+02 -.16034497E+03 0.21633505E+03 0.80419002E+02 0.0000E+00 0.9000E+01
       21  1    1    2  502  501 -.21453756E+02 0.17615546E+02 -.34800841E+03 0.34911457E+03 0.75000000E+00 0.0000E+00 0.9000E+01
#aMCatNLO 1  0  0  5  2 0.25185137D+01 0.00000000D+00  -5  6  0 0.00000000D+00 0.00000000D+00 0.00000000D+00 0.00000000D+00 0.00000000D+00
  <mgrwgt>
 0.8744154408D-01   25    2    0
 0.220652210175170D+03 0.000000000000000D+00 0.000000000000000D+00 0.220652210175170D+03
 0.220652210175170D+03 -.000000000000000D+00 -.000000000000000D+00 -.220652210175170D+03
 0.193520751262094D+03 0.134866411189986D+03 -.595774752920419D+02 0.931969632579319D+01
 0.162017675280563D+03 -.113411994265752D+03 0.419613871000211D+02 0.718294695668482D+02
 0.857659938076822D+02 -.214544169242344D+02 0.176160881920208D+02 -.811491658926415D+02
 0.000000000000000D+00 -.000000000000000D+00 0.000000000000000D+00 0.000000000000000D+00
 0.220652210175170D+03 0.000000000000000D+00 0.000000000000000D+00 0.220652210175170D+03
 0.220652210175170D+03 -.000000000000000D+00 -.000000000000000D+00 -.220652210175170D+03
 0.193461835159278D+03 0.134814266869537D+03 -.595346599150971D+02 0.912246569839304D+01
 0.161984400412868D+03 -.113455652220021D+03 0.419972343745199D+02 0.716643377627045D+02
 0.783447437211337D+02 -.173052518037430D+02 0.153428395564493D+02 -.748533526509282D+02
 0.751344105706048D+01 -.405336284577294D+01 0.219458598412788D+01 -.593345081016933D+01
0.490052875515D-04 0.000000000000D+00 0.000000000000D+00 0.248094219578D-04 0.000000000000D+00  6 -2 1 25 -24 21 21 2 0.81278647D-02 0.14177948D+00 0.33540455D+05 0.33540455D+05 0.33540455D+05 0.12098463D+01  1  2  2  3  6  5       21 0.106565026541D-01 0.100000000000D+01
0.808383161660D-05 0.258608007263D-05 -.188193207586D-06 0.248094219578D-04 0.000000000000D+00  6 -2 1 25 -24 21 21 4 0.81278647D-02 0.14177948D+00 0.33540455D+05 0.33540455D+05 0.33540455D+05 0.12098463D+01  1  2  3  3  6  5       21 0.257305697345D-02 0.100000000000D+01
0.256933981342D-05 0.000000000000D+00 0.000000000000D+00 0.248094219578D-04 0.000000000000D+00  6 -2 1 25 -24 21 21 4 0.81278647D-02 0.14177948D+00 0.33540455D+05 0.33540455D+05 0.33540455D+05 0.12098463D+01  1  2 15  3  6  5       21 0.817812398578D-03 0.100000000000D+01
0.145279420757D-05 0.000000000000D+00 0.000000000000D+00 0.248097086308D-04 0.000000000000D+00  6 -2 1 25 -24 21 21 4 0.81278647D-02 0.14177948D+00 0.33535245D+05 0.33535245D+05 0.33535245D+05 0.12098533D+01  1  2 12  3  6  5       21 0.462430008301D-03 0.100000000000D+01
0.115796895595D-05 0.000000000000D+00 0.000000000000D+00 0.248097086308D-04 0.000000000000D+00  6 -2 1 25 -24 21 21 4 0.81278647D-02 0.14177948D+00 0.33535245D+05 0.33535245D+05 0.33535245D+05 0.12098533D+01  1  2 12  3  6  5       21 0.368585991823D-03 0.100000000000D+01
-.174848005854D-02 0.000000000000D+00 0.000000000000D+00 0.248094219578D-04 0.000000000000D+00  6 -2 1 25 -24 21 21 4 0.81278647D-02 0.14177948D+00 0.33540455D+05 0.33540455D+05 0.33540455D+05 0.12098463D+01  1  2  4  3  6  5       21 -.556535442712D+00 0.100000000000D+01
-.255496220839D-02 0.000000000000D+00 0.000000000000D+00 0.248094219578D-04 0.000000000000D+00  6 -2 1 25 -24 21 21 4 0.81278647D-02 0.14177948D+00 0.33540455D+05 0.33540455D+05 0.33540455D+05 0.12098463D+01  1  2  5  3  6  5       21 -.813236054261D+00 0.100000000000D+01
0.282092790055D-02 0.000000000000D+00 -.000000000000D+00 0.248094219578D-04 0.000000000000D+00  6 -2 1 25 -24 21 21 4 0.81278647D-02 0.14177948D+00 0.33540455D+05 0.33540455D+05 0.33540455D+05 0.12098463D+01  1  2  6  3  6  5       21 0.897892057920D+00 0.100000000000D+01
0.172821527351D-02 0.000000000000D+00 0.000000000000D+00 0.248094219578D-04 0.203853053583D-04  6 -2 1 25 -24 21 21 4 0.81278647D-02 0.14177948D+00 0.33535245D+05 0.33535245D+05 0.33535245D+05 0.12098533D+01  1  2 11  3  6  5       21 0.550097597520D+00 0.100000000000D+01
0.438849032985D-07 0.000000000000D+00 0.000000000000D+00 0.248097086308D-04 0.000000000000D+00  6 -2 1 25 -24 1 -1 4 0.81278647D-02 0.14177948D+00 0.33535245D+05 0.33535245D+05 0.33535245D+05 0.12098533D+01  1  2 12  6  6  5       21 0.139687342439D-04 0.100000000000D+01
0.405870560819D-07 0.000000000000D+00 0.000000000000D+00 0.248097086308D-04 0.000000000000D+00  6 -2 1 25 -24 1 -1 4 0.81278647D-02 0.14177948D+00 0.33535245D+05 0.33535245D+05 0.33535245D+05 0.12098533D+01  1  2 12  6  6  5       21 0.129190167355D-04 0.100000000000D+01
-.147541382914D-04 0.000000000000D+00 0.000000000000D+00 0.248094219578D-04 0.000000000000D+00  6 -2 1 25 -24 1 -1 4 0.81278647D-02 0.14177948D+00 0.33540455D+05 0.33540455D+05 0.33540455D+05 0.12098463D+01  1  2  5  6  6  5       21 -.469619361442D-02 0.100000000000D+01
0.104824340979D-04 0.000000000000D+00 0.000000000000D+00 0.248094219578D-04 0.235810352541D-06  6 -2 1 25 -24 1 -1 4 0.81278647D-02 0.14177948D+00 0.33535245D+05 0.33535245D+05 0.33535245D+05 0.12098533D+01  1  2 11  6  6  5       21 0.333659926621D-02 0.100000000000D+01
0.438849032985D-07 0.000000000000D+00 0.000000000000D+00 0.248097086308D-04 0.000000000000D+00  6 -2 1 25 -24 2 -2 4 0.81278647D-02 0.14177948D+00 0.33535245D+05 0.33535245D+05 0.33535245D+05 0.12098533D+01  1  2 12  7  6  5       21 0.139687342439D-04 0.100000000000D+01
0.405870560819D-07 0.000000000000D+00 0.000000000000D+00 0.248097086308D-04 0.000000000000D+00  6 -2 1 25 -24 2 -2 4 0.81278647D-02 0.14177948D+00 0.33535245D+05 0.33535245D+05 0.33535245D+05 0.12098533D+01  1  2 12  7  6  5       21 0.129190167355D-04 0.100000000000D+01
-.147541382914D-04 0.000000000000D+00 0.000000000000D+00 0.248094219578D-04 0.000000000000D+00  6 -2 1 25 -24 2 -2 4 0.81278647D-02 0.14177948D+00 0.33540455D+05 0.33540455D+05 0.33540455D+05 0.12098463D+01  1  2  5  7  6  5       21 -.469619361442D-02 0.100000000000D+01
0.100840578234D-04 0.000000000000D+00 0.000000000000D+00 0.248094219578D-04 0.224488390699D-06  6 -2 1 25 -24 2 -2 4 0.81278647D-02 0.14177948D+00 0.33535245D+05 0.33535245D+05 0.33535245D+05 0.12098533D+01  1  2 11  7  6  5       21 0.320979455913D-02 0.100000000000D+01
0.438849032985D-07 0.000000000000D+00 0.000000000000D+00 0.248097086308D-04 0.000000000000D+00  6 -2 1 25 -24 3 -3 4 0.81278647D-02 0.14177948D+00 0.33535245D+05 0.33535245D+05 0.33535245D+05 0.12098533D+01  1  2 12  8  6  5       21 0.139687342439D-04 0.100000000000D+01
0.438849032985D-07 0.000000000000D+00 0.000000000000D+00 0.248097086308D-04 0.000000000000D+00  6 -2 1 25 -24 4 -4 4 0.81278647D-02 0.14177948D+00 0.33535245D+05 0.33535245D+05 0.33535245D+05 0.12098533D+01  1  2 12  8  6  5       21 0.139687342439D-04 0.100000000000D+01
0.405870560819D-07 0.000000000000D+00 0.000000000000D+00 0.248097086308D-04 0.000000000000D+00  6 -2 1 25 -24 3 -3 4 0.81278647D-02 0.14177948D+00 0.33535245D+05 0.33535245D+05 0.33535245D+05 0.12098533D+01  1  2 12  8  6  5       21 0.129190167355D-04 0.100000000000D+01
0.405870560819D-07 0.000000000000D+00 0.000000000000D+00 0.248097086308D-04 0.000000000000D+00  6 -2 1 25 -24 4 -4 4 0.81278647D-02 0.14177948D+00 0.33535245D+05 0.33535245D+05 0.33535245D+05 0.12098533D+01  1  2 12  8  6  5       21 0.129190167355D-04 0.100000000000D+01
-.147541382914D-04 0.000000000000D+00 0.000000000000D+00 0.248094219578D-04 0.000000000000D+00  6 -2 1 25 -24 3 -3 4 0.81278647D-02 0.14177948D+00 0.33540455D+05 0.33540455D+05 0.33540455D+05 0.12098463D+01  1  2  5  8  6  5       21 -.469619361442D-02 0.100000000000D+01
-.147541382914D-04 0.000000000000D+00 0.000000000000D+00 0.248094219578D-04 0.000000000000D+00  6 -2 1 25 -24 4 -4 4 0.81278647D-02 0.14177948D+00 0.33540455D+05 0.33540455D+05 0.33540455D+05 0.12098463D+01  1  2  5  8  6  5       21 -.469619361442D-02 0.100000000000D+01
0.101723980903D-04 0.000000000000D+00 0.000000000000D+00 0.248094219578D-04 0.226091976858D-06  6 -2 1 25 -24 3 -3 4 0.81278647D-02 0.14177948D+00 0.33535245D+05 0.33535245D+05 0.33535245D+05 0.12098533D+01  1  2 11  8  6  5       21 0.323791360734D-02 0.100000000000D+01
0.101723980903D-04 0.000000000000D+00 0.000000000000D+00 0.248094219578D-04 0.226091976858D-06  6 -2 1 25 -24 4 -4 4 0.81278647D-02 0.14177948D+00 0.33535245D+05 0.33535245D+05 0.33535245D+05 0.12098533D+01  1  2 11  8  6  5       21 0.323791360734D-02 0.100000000000D+01
  </mgrwgt>
  </event>
  <event>
  6     66 -.49582427E-03 0.13005241E+02 0.75467711E-02 0.12309762E+00
       -2 -1    0    0    0  501 0.00000000E+00 0.00000000E+00 0.11787473E+03 0.11787516E+03 0.32000000E+00 0.0000E+00 0.9000E+01
        1 -1    0    0  502    0 -.00000000E+00 -.00000000E+00 -.15159838E+03 0.15159872E+03 0.32000000E+00 0.0000E+00 0.9000E+01
       25  1    1    2    0    0 -.42704335E+02 0.38668924E+02 -.50582713E+02 0.14663750E+03 0.12500000E+03 0.0000E+00 0.9000E+01
      -24  1    1    2    0    0 0.19138502E+02 -.39022567E+02 0.24357480E+01 0.91445021E+02 0.80419002E+02 0.0000E+00 0.9000E+01
       21  1    1    2  502  503 0.16892740E+02 -.18493142E+01 0.16826683E+02 0.23926646E+02 0.75000000E+00 0.0000E+00 0.9000E+01
       21  1    1    2  503  501 0.66730926E+01 0.22029574E+01 -.24033686E+01 0.74647081E+01 0.75000000E+00 0.0000E+00 0.9000E+01
#aMCatNLO 2  0  0  5  2 0.59016066D+01 0.00000000D+00  -5  6  0 0.00000000D+00 0.00000000D+00 0.00000000D+00 0.00000000D+00 0.00000000D+00
  <mgrwgt>
 -.6066221572D+00    3    2    0
 0.133677676811204D+03 0.000000000000000D+00 0.000000000000000D+00 0.133677676811204D+03
 0.133677676811204D+03 -.000000000000000D+00 -.000000000000000D+00 -.133677676811204D+03
 0.142132093035517D+03 -.441734484689570D+02 0.386468771161080D+02 -.336401131120225D+02
 0.921788471465480D+02 0.181817783821357D+02 -.390369238898479D+02 0.132387844977269D+02
 0.330444134403432D+02 0.259916700868212D+02 0.390046773739905D+00 0.204013286142956D+02
 0.000000000000000D+00 0.000000000000000D+00 0.000000000000000D+00 0.000000000000000D+00
 0.133677676811204D+03 0.000000000000000D+00 0.000000000000000D+00 0.133677676811204D+03
 0.133677676811204D+03 -.000000000000000D+00 -.000000000000000D+00 -.133677676811204D+03
 0.141405500030093D+03 -.426759752735977D+02 0.386693491075830D+02 -.324647195090884D+02
 0.924827965587743D+02 0.191570489227011D+02 -.390222883882968D+02 0.140042918591028D+02
 0.259923292355169D+02 0.165565416375775D+02 -.192635048913114D+01 0.199442042178597D+02
 0.747472779802390D+01 0.696238471331908D+01 0.227928976984496D+01 -.148377656787410D+01
-.152048130060D-03 0.000000000000D+00 0.000000000000D+00 0.349077821084D-04 0.000000000000D+00  6 -2 1 25 -24 21 21 4 0.18134633D-01 0.23322887D-01 0.16007169D+05 0.16007169D+05 0.16007169D+05 0.12446178D+01  1  2 13  3  6  5       21 -.158581165127D+00 0.100000000000D+01
-.174806981699D-03 0.000000000000D+00 0.000000000000D+00 0.349077821084D-04 0.000000000000D+00  6 -2 1 25 -24 21 21 4 0.18134633D-01 0.23322887D-01 0.16007169D+05 0.16007169D+05 0.16007169D+05 0.12446178D+01  1  2 13  3  6  5       21 -.182317893809D+00 0.100000000000D+01
-.255347683239D-03 0.000000000000D+00 0.000000000000D+00 0.348585829809D-04 0.000000000000D+00  6 -2 1 25 -24 21 21 4 0.18134633D-01 0.23322887D-01 0.16295994D+05 0.16295994D+05 0.16295994D+05 0.12437404D+01  1  2  8  3  6  5       21 -.265723098237D+00 0.100000000000D+01
  </mgrwgt>
  </event>
</LesHouchesEvents>
