<event>
 5    0  0.1911311E+001  0.2832291E+03  0.7546771E-02  0.1093938E+00
         21   -1    0    0  502  501  0.00000000000E+00  0.00000000000E+00  0.44709264310E+03  0.44709264310E+03  0.00000000000E+00 0. -1.
         21   -1    0    0  504  502 -0.00000000000E+00 -0.00000000000E+00 -0.89237458718E+03  0.89237458718E+03  0.00000000000E+00 0. -1.
         25    1    1    2    0    0  0.16243286786E+02  0.23175980356E+03  0.18357449642E+03  0.32140480184E+03  0.12500000000E+03 0.  0.
         21    1    1    2  503  501 -0.89205645947E+01  0.24023203375E+02  0.17376143570E+03  0.17564090443E+03  0.00000000000E+00 0. -1.
         21    1    1    2  504  503 -0.73227221908E+01 -0.25578300694E+03 -0.80261787620E+03  0.84242152400E+03  0.00000000000E+00 0. -1.
<mgrwt>
<rscale>  4 0.28322908E+03</rscale>
<asrwt>0</asrwt>
<pdfrwt beam="1">  1       21 0.68783484E-01 0.28322908E+03</pdfrwt>
<pdfrwt beam="2">  1       21 0.13728840E+00 0.28322908E+03</pdfrwt>
<totfact> 0.66793553E+02</totfact>
</mgrwt>
</event>
<event>
 5    0  0.1911311E+001  0.2775121E+03  0.7546771E-02  0.1097056E+00
         21   -1    0    0  504  501  0.00000000000E+00  0.00000000000E+00  0.71094888267E+03  0.71094888267E+03  0.00000000000E+00 0. -1.
         21   -1    0    0  503  502 -0.00000000000E+00 -0.00000000000E+00 -0.10809670391E+03  0.10809670391E+03  0.00000000000E+00 0. -1.
         25    1    1    2    0    0 -0.24460543783E+03 -0.39448051108E+02  0.23516925499E+03  0.36375479027E+03  0.12500000000E+03 0.  0.
         21    1    1    2  503  501  0.18098923160E+03  0.73234748388E+02  0.24842561754E+03  0.31596790625E+03  0.00000000000E+00 0. -1.
         21    1    1    2  504  502  0.63616206227E+02 -0.33786697280E+02  0.11925730623E+03  0.13932289006E+03  0.00000000000E+00 0.  1.
<mgrwt>
<rscale>  4 0.27751211E+03</rscale>
<asrwt>0</asrwt>
<pdfrwt beam="1">  1       21 0.10937675E+00 0.27751211E+03</pdfrwt>
<pdfrwt beam="2">  1       21 0.16630263E-01 0.27751211E+03</pdfrwt>
<totfact> 0.20550881E+04</totfact>
</mgrwt>
</event>
<event>
 5    0  0.1911311E+001  0.2013382E+03  0.7546771E-02  0.1148615E+00
         21   -1    0    0  503  501  0.00000000000E+00  0.00000000000E+00  0.41555591015E+03  0.41555591015E+03  0.00000000000E+00 0.  1.
         21   -1    0    0  504  502 -0.00000000000E+00 -0.00000000000E+00 -0.26716138560E+03  0.26716138560E+03  0.00000000000E+00 0.  1.
         25    1    1    2    0    0  0.11609991029E+03 -0.17127866446E+03 -0.56371243152E+02  0.24823031064E+03  0.12500000000E+03 0.  0.
         21    1    1    2  503  502 -0.10285369148E+03  0.17587244403E+02 -0.65567654467E+02  0.12323680590E+03  0.00000000000E+00 0.  1.
         21    1    1    2  504  501 -0.13246218811E+02  0.15369142006E+03  0.27033342217E+03  0.31125017921E+03  0.00000000000E+00 0.  1.
<mgrwt>
<rscale>  4 0.20133821E+03</rscale>
<asrwt>0</asrwt>
<pdfrwt beam="1">  1       21 0.63931678E-01 0.20133821E+03</pdfrwt>
<pdfrwt beam="2">  1       21 0.41101752E-01 0.20133821E+03</pdfrwt>
<totfact> 0.12807737E+04</totfact>
</mgrwt>
</event>
<event>
 5    0  0.1911311E+001  0.5528785E+03  0.7546771E-02  0.1000830E+00
         21   -1    0    0  502  501  0.00000000000E+00  0.00000000000E+00  0.17823671335E+04  0.17823671335E+04  0.00000000000E+00 0. -1.
         21   -1    0    0  504  502 -0.00000000000E+00 -0.00000000000E+00 -0.30321944054E+03  0.30321944054E+03  0.00000000000E+00 0. -1.
         25    1    1    2    0    0 -0.45294897232E+03  0.27542702451E+03  0.13778475611E+04  0.14815909419E+04  0.12500000000E+03 0.  0.
         21    1    1    2  503  501  0.16354116722E+01  0.21716667688E+02  0.57952611648E+02  0.61909558419E+02  0.00000000000E+00 0.  1.
         21    1    1    2  504  503  0.45131356065E+03 -0.29714369220E+03  0.43347520181E+02  0.54208607374E+03  0.00000000000E+00 0. -1.
<mgrwt>
<rscale>  4 0.55287845E+03</rscale>
<asrwt>0</asrwt>
<pdfrwt beam="1">  1       21 0.27421032E+00 0.55287845E+03</pdfrwt>
<pdfrwt beam="2">  1       21 0.46649146E-01 0.55287845E+03</pdfrwt>
<totfact> 0.15753523E+02</totfact>
</mgrwt>
</event>
