<event>
 5    0  0.1781295E-001  0.2895762E+03  0.7546771E-02  0.1090571E+00
         21   -1    0    0  501  502  0.00000000000E+00  0.00000000000E+00  0.34711319910E+03  0.34711319910E+03  0.00000000000E+00 0.  1.
         21   -1    0    0  502  503 -0.00000000000E+00 -0.00000000000E+00 -0.27971844841E+03  0.27971844841E+03  0.00000000000E+00 0.  1.
         25    1    1    2    0    0  0.94157011214E+02 -0.24364699031E+03 -0.99811900244E+02  0.30629530535E+03  0.12500000000E+03 0.  0.
          4    1    1    2  501    0 -0.40028895654E+02  0.16166085126E+03  0.14261833652E+03  0.21926361583E+03  0.00000000000E+00 0. -1.
         -4    1    1    2    0  503 -0.54128115560E+02  0.81986139057E+02  0.24588314415E+02  0.10127272632E+03  0.00000000000E+00 0.  1.
<mgrwt>
<rscale>  4 0.28957624E+03</rscale>
<asrwt>0</asrwt>
<pdfrwt beam="1">  1       21 0.53402030E-01 0.28957624E+03</pdfrwt>
<pdfrwt beam="2">  1       21 0.43033608E-01 0.28957624E+03</pdfrwt>
<totfact> 0.16384447E+04</totfact>
</mgrwt>
</event>
<event>
 5    0  0.1781295E-001  0.3506559E+03  0.7546771E-02  0.1062364E+00
         21   -1    0    0  501  502  0.00000000000E+00  0.00000000000E+00  0.58991945500E+03  0.58991945500E+03  0.00000000000E+00 0. -1.
         21   -1    0    0  502  503 -0.00000000000E+00 -0.00000000000E+00 -0.21376888086E+03  0.21376888086E+03  0.00000000000E+00 0. -1.
         25    1    1    2    0    0  0.22704514275E+03 -0.23593236842E+03  0.12394418893E+03  0.37175360292E+03  0.12500000000E+03 0.  0.
          3    1    1    2  501    0 -0.13765210939E+03  0.68427906104E+02  0.70452740055E+02  0.16909781233E+03  0.00000000000E+00 0. -1.
         -3    1    1    2    0  503 -0.89393033360E+02  0.16750446232E+03  0.18175364515E+03  0.26283692061E+03  0.00000000000E+00 0.  1.
<mgrwt>
<rscale>  4 0.35061275E+03</rscale>
<asrwt>0</asrwt>
<pdfrwt beam="1">  1       21 0.90756838E-01 0.35065589E+03</pdfrwt>
<pdfrwt beam="2">  1       21 0.32887520E-01 0.35065589E+03</pdfrwt>
<totfact> 0.84249081E+03</totfact>
</mgrwt>
</event>
<event>
 5    0  0.1781295E-001  0.2583300E+03  0.7546771E-02  0.1108151E+00
         21   -1    0    0  501  502  0.00000000000E+00  0.00000000000E+00  0.32385783246E+03  0.32385783246E+03  0.00000000000E+00 0. -1.
         21   -1    0    0  502  503 -0.00000000000E+00 -0.00000000000E+00 -0.20447349488E+03  0.20447349488E+03  0.00000000000E+00 0. -1.
         25    1    1    2    0    0 -0.21985502011E+03  0.52660944104E+02 -0.16938508457E+02  0.25888475808E+03  0.12500000000E+03 0.  0.
          3    1    1    2  501    0  0.18108351145E+03 -0.63024539196E+02  0.11951618150E+03  0.22593682369E+03  0.00000000000E+00 0. -1.
         -3    1    1    2    0  503  0.38771508657E+02  0.10363595092E+02  0.16806664535E+02  0.43509745571E+02  0.00000000000E+00 0.  1.
<mgrwt>
<rscale>  4 0.25833003E+03</rscale>
<asrwt>0</asrwt>
<pdfrwt beam="1">  1       21 0.49824282E-01 0.25833003E+03</pdfrwt>
<pdfrwt beam="2">  1       21 0.31457461E-01 0.25833003E+03</pdfrwt>
<totfact> 0.36144574E+04</totfact>
</mgrwt>
</event>
<event>
 5    0  0.1781295E-001  0.2502577E+03  0.7546771E-02  0.1113142E+00
         21   -1    0    0  501  502  0.00000000000E+00  0.00000000000E+00  0.81385843324E+03  0.81385843324E+03  0.00000000000E+00 0. -1.
         21   -1    0    0  502  503 -0.00000000000E+00 -0.00000000000E+00 -0.13304171939E+03  0.13304171939E+03  0.00000000000E+00 0. -1.
         25    1    1    2    0    0  0.19921551350E+03 -0.10838449111E+03  0.60050293369E+03  0.65395931991E+03  0.12500000000E+03 0.  0.
          4    1    1    2  501    0  0.38891352259E+00  0.27821912798E+02  0.72381520542E+02  0.77545435723E+02  0.00000000000E+00 0.  1.
         -4    1    1    2    0  503 -0.19960442702E+03  0.80562578311E+02  0.79322596215E+01  0.21539539701E+03  0.00000000000E+00 0. -1.
<mgrwt>
<rscale>  4 0.25025773E+03</rscale>
<asrwt>0</asrwt>
<pdfrwt beam="1">  1       21 0.12520899E+00 0.25025773E+03</pdfrwt>
<pdfrwt beam="2">  1       21 0.20467957E-01 0.25025773E+03</pdfrwt>
<totfact> 0.10112003E+04</totfact>
</mgrwt>
</event>
<event>
 5    0  0.1781295E-001  0.5735128E+03  0.7546771E-02  0.9970554E-01
         21   -1    0    0  501  502  0.00000000000E+00  0.00000000000E+00  0.11292521889E+04  0.11292521889E+04  0.00000000000E+00 0. -1.
         21   -1    0    0  502  503 -0.00000000000E+00 -0.00000000000E+00 -0.30942980659E+03  0.30942980659E+03  0.00000000000E+00 0. -1.
         25    1    1    2    0    0  0.33896822680E+03 -0.42530304527E+03  0.61313799733E+03  0.82906293058E+03  0.12500000000E+03 0.  0.
          4    1    1    2  501    0 -0.20114636715E+03  0.16037839564E+03  0.21324811106E+02  0.25813918412E+03  0.00000000000E+00 0. -1.
         -4    1    1    2    0  503 -0.13782185965E+03  0.26492464963E+03  0.18535957390E+03  0.35147988081E+03  0.00000000000E+00 0.  1.
<mgrwt>
<rscale>  4 0.56960452E+03</rscale>
<asrwt>0</asrwt>
<pdfrwt beam="1">  1       21 0.17373110E+00 0.57351283E+03</pdfrwt>
<pdfrwt beam="2">  1       21 0.47604586E-01 0.57351283E+03</pdfrwt>
<totfact> 0.67339137E+02</totfact>
</mgrwt>
</event>
<event>
 5    0  0.1781295E-001  0.2874960E+03  0.7546771E-02  0.1091664E+00
         21   -1    0    0  501  502  0.00000000000E+00  0.00000000000E+00  0.37252926618E+03  0.37252926618E+03  0.00000000000E+00 0. -1.
         21   -1    0    0  502  503 -0.00000000000E+00 -0.00000000000E+00 -0.21629904449E+03  0.21629904449E+03  0.00000000000E+00 0. -1.
         25    1    1    2    0    0 -0.17669831604E+03  0.18922649994E+03  0.90484623510E+02  0.30139912120E+03  0.12500000000E+03 0.  0.
          1    1    1    2  501    0  0.79481540593E+02 -0.14339621296E+03  0.51177297824E+01  0.16403042505E+03  0.00000000000E+00 0. -1.
         -1    1    1    2    0  503  0.97216775447E+02 -0.45830286983E+02  0.60627868395E+02  0.12339876442E+03  0.00000000000E+00 0.  1.
<mgrwt>
<rscale>  4 0.28749602E+03</rscale>
<asrwt>0</asrwt>
<pdfrwt beam="1">  1       21 0.57312195E-01 0.28749602E+03</pdfrwt>
<pdfrwt beam="2">  1       21 0.33276776E-01 0.28749602E+03</pdfrwt>
<totfact> 0.23729612E+04</totfact>
</mgrwt>
</event>
<event>
 5    0  0.1781295E-001  0.2855731E+03  0.7546771E-02  0.1092683E+00
         21   -1    0    0  501  502  0.00000000000E+00  0.00000000000E+00  0.10950651727E+03  0.10950651727E+03  0.00000000000E+00 0. -1.
         21   -1    0    0  502  503 -0.00000000000E+00 -0.00000000000E+00 -0.12709754500E+04  0.12709754500E+04  0.00000000000E+00 0.  1.
         25    1    1    2    0    0 -0.23346158853E+03  0.10687701687E+03 -0.12682524897E+03  0.31246864456E+03  0.12500000000E+03 0.  0.
          2    1    1    2  501    0  0.95066283995E+02 -0.30890067387E+02 -0.52657213307E+03  0.53597575126E+03  0.00000000000E+00 0. -1.
         -2    1    1    2    0  503  0.13839530454E+03 -0.75986949484E+02 -0.50807155071E+03  0.53203757147E+03  0.00000000000E+00 0.  1.
<mgrwt>
<rscale>  4 0.28557313E+03</rscale>
<asrwt>0</asrwt>
<pdfrwt beam="1">  1       21 0.16847157E-01 0.28557313E+03</pdfrwt>
<pdfrwt beam="2">  1       21 0.19553467E+00 0.28557313E+03</pdfrwt>
<totfact> 0.42335831E+03</totfact>
</mgrwt>
</event>
<event>
 5    0  0.1781295E-001  0.3065497E+03  0.7546771E-02  0.1082012E+00
         21   -1    0    0  501  502  0.00000000000E+00  0.00000000000E+00  0.54325820759E+03  0.54325820759E+03  0.00000000000E+00 0.  1.
         21   -1    0    0  502  503 -0.00000000000E+00 -0.00000000000E+00 -0.23097963037E+03  0.23097963037E+03  0.00000000000E+00 0.  1.
         25    1    1    2    0    0  0.17626717768E+03  0.21743413023E+03  0.35798622597E+03  0.47130335974E+03  0.12500000000E+03 0.  0.
          1    1    1    2  501    0 -0.45623772648E+02 -0.55121731645E+02  0.34795365400E+02  0.79565390614E+02  0.00000000000E+00 0. -1.
         -1    1    1    2    0  503 -0.13064340503E+03 -0.16231239858E+03 -0.80503014148E+02  0.22336908761E+03  0.00000000000E+00 0.  1.
<mgrwt>
<rscale>  4 0.30654970E+03</rscale>
<asrwt>0</asrwt>
<pdfrwt beam="1">  1       21 0.83578186E-01 0.30654970E+03</pdfrwt>
<pdfrwt beam="2">  1       21 0.35535328E-01 0.30654970E+03</pdfrwt>
<totfact> 0.89090426E+03</totfact>
</mgrwt>
</event>
<event>
 5    0  0.1781295E-001  0.2791756E+03  0.7546771E-02  0.1096140E+00
         21   -1    0    0  501  502  0.00000000000E+00  0.00000000000E+00  0.20885307693E+03  0.20885307693E+03  0.00000000000E+00 0. -1.
         21   -1    0    0  502  503 -0.00000000000E+00 -0.00000000000E+00 -0.37265343716E+03  0.37265343716E+03  0.00000000000E+00 0. -1.
         25    1    1    2    0    0 -0.14558724634E+03  0.20277664024E+03 -0.16483700007E+03  0.32420710775E+03  0.12500000000E+03 0.  0.
          3    1    1    2  501    0  0.68031579144E+01 -0.22771031243E+02  0.17342094274E+02  0.29420249069E+02  0.00000000000E+00 0.  1.
         -3    1    1    2    0  503  0.13878408843E+03 -0.18000560900E+03 -0.16305454439E+02  0.22787915727E+03  0.00000000000E+00 0. -1.
<mgrwt>
<rscale>  4 0.27917559E+03</rscale>
<asrwt>0</asrwt>
<pdfrwt beam="1">  1       21 0.32131243E-01 0.27917559E+03</pdfrwt>
<pdfrwt beam="2">  1       21 0.57331297E-01 0.27917559E+03</pdfrwt>
<totfact> 0.25507436E+04</totfact>
</mgrwt>
</event>
<event>
 5    0  0.1781295E-001  0.2621399E+03  0.7546771E-02  0.1105864E+00
         21   -1    0    0  501  502  0.00000000000E+00  0.00000000000E+00  0.95881202400E+02  0.95881202400E+02  0.00000000000E+00 0. -1.
         21   -1    0    0  502  503 -0.00000000000E+00 -0.00000000000E+00 -0.72729897720E+03  0.72729897720E+03  0.00000000000E+00 0. -1.
         25    1    1    2    0    0 -0.13356872198E+03  0.18775444706E+03 -0.46903524106E+03  0.53731870732E+03  0.12500000000E+03 0.  0.
          3    1    1    2  501    0  0.42482426517E+02 -0.41128013162E+02 -0.21039592030E+02  0.62760931017E+02  0.00000000000E+00 0.  1.
         -3    1    1    2    0  503  0.91086295465E+02 -0.14662643390E+03 -0.14134294172E+03  0.22310054127E+03  0.00000000000E+00 0. -1.
<mgrwt>
<rscale>  4 0.26213992E+03</rscale>
<asrwt>0</asrwt>
<pdfrwt beam="1">  1       21 0.14750954E-01 0.26213992E+03</pdfrwt>
<pdfrwt beam="2">  1       21 0.11189215E+00 0.26213992E+03</pdfrwt>
<totfact> 0.24413755E+04</totfact>
</mgrwt>
</event>
<event>
 5    0  0.1781295E-001  0.3785324E+03  0.7546771E-02  0.1051478E+00
         21   -1    0    0  501  502  0.00000000000E+00  0.00000000000E+00  0.13723031677E+04  0.13723031677E+04  0.00000000000E+00 0. -1.
         21   -1    0    0  502  503 -0.00000000000E+00 -0.00000000000E+00 -0.12377647664E+03  0.12377647664E+03  0.00000000000E+00 0. -1.
         25    1    1    2    0    0  0.31725764472E+03 -0.16434516872E+03  0.93545285862E+03  0.10091376508E+04  0.12500000000E+03 0.  0.
          1    1    1    2  501    0 -0.67787382576E+02 -0.66064884483E+01  0.80398616307E+02  0.10536940937E+03  0.00000000000E+00 0.  1.
         -1    1    1    2    0  503 -0.24947026214E+03  0.17095165716E+03  0.23267521615E+03  0.38157258417E+03  0.00000000000E+00 0. -1.
<mgrwt>
<rscale>  4 0.37853236E+03</rscale>
<asrwt>0</asrwt>
<pdfrwt beam="1">  1       21 0.21112355E+00 0.37853236E+03</pdfrwt>
<pdfrwt beam="2">  1       21 0.19042536E-01 0.37853236E+03</pdfrwt>
<totfact> 0.25258469E+03</totfact>
</mgrwt>
</event>
<event>
 5    0  0.1781295E-001  0.2633417E+03  0.7546771E-02  0.1105152E+00
         21   -1    0    0  501  502  0.00000000000E+00  0.00000000000E+00  0.17378443062E+04  0.17378443062E+04  0.00000000000E+00 0. -1.
         21   -1    0    0  502  503 -0.00000000000E+00 -0.00000000000E+00 -0.43541889000E+02  0.43541889000E+02  0.00000000000E+00 0. -1.
         25    1    1    2    0    0  0.21433178760E+03  0.88236750598E+02  0.12582063433E+04  0.12854695802E+04  0.12500000000E+03 0.  0.
          3    1    1    2  501    0 -0.19356432239E+03 -0.91888215399E+02  0.38437049894E+03  0.44005825919E+03  0.00000000000E+00 0. -1.
         -3    1    1    2    0  503 -0.20767465206E+02  0.36514648010E+01  0.51725574914E+02  0.55858355744E+02  0.00000000000E+00 0.  1.
<mgrwt>
<rscale>  4 0.26334168E+03</rscale>
<asrwt>0</asrwt>
<pdfrwt beam="1">  1       21 0.26736061E+00 0.26334168E+03</pdfrwt>
<pdfrwt beam="2">  1       21 0.66987535E-02 0.26334168E+03</pdfrwt>
<totfact> 0.80739811E+03</totfact>
</mgrwt>
</event>
<event>
 5    0  0.1781295E-001  0.2321583E+03  0.7546771E-02  0.1125130E+00
         21   -1    0    0  501  502  0.00000000000E+00  0.00000000000E+00  0.59544018494E+02  0.59544018494E+02  0.00000000000E+00 0.  1.
         21   -1    0    0  502  503 -0.00000000000E+00 -0.00000000000E+00 -0.11377229352E+04  0.11377229352E+04  0.00000000000E+00 0. -1.
         25    1    1    2    0    0 -0.80351439470E+02  0.18920872262E+03 -0.29065846575E+03  0.37731106299E+03  0.12500000000E+03 0.  0.
          1    1    1    2  501    0  0.38397246372E+02 -0.17256366475E+03 -0.69327541872E+03  0.71546025265E+03  0.00000000000E+00 0.  1.
         -1    1    1    2    0  503  0.41954193098E+02 -0.16645057873E+02 -0.94245032193E+02  0.10449563801E+03  0.00000000000E+00 0. -1.
<mgrwt>
<rscale>  4 0.23215826E+03</rscale>
<asrwt>0</asrwt>
<pdfrwt beam="1">  1       21 0.91606187E-02 0.23215826E+03</pdfrwt>
<pdfrwt beam="2">  1       21 0.17503429E+00 0.23215826E+03</pdfrwt>
<totfact> 0.18140512E+04</totfact>
</mgrwt>
</event>
<event>
 5    0  0.1781295E-001  0.4025459E+03  0.7546771E-02  0.1042902E+00
         21   -1    0    0  501  502  0.00000000000E+00  0.00000000000E+00  0.14734838564E+04  0.14734838564E+04  0.00000000000E+00 0.  1.
         21   -1    0    0  502  503 -0.00000000000E+00 -0.00000000000E+00 -0.10710269747E+03  0.10710269747E+03  0.00000000000E+00 0.  1.
         25    1    1    2    0    0 -0.23336289750E+03 -0.30324897092E+03  0.62557474428E+03  0.74389981918E+03  0.12500000000E+03 0.  0.
          3    1    1    2  501    0  0.39403354578E+02  0.56390930346E+02  0.19826823097E+03  0.20986389110E+03  0.00000000000E+00 0. -1.
         -3    1    1    2    0  503  0.19395954292E+03  0.24685804057E+03  0.54253818365E+03  0.62682284356E+03  0.00000000000E+00 0.  1.
<mgrwt>
<rscale>  4 0.40254587E+03</rscale>
<asrwt>0</asrwt>
<pdfrwt beam="1">  1       21 0.22668981E+00 0.40254587E+03</pdfrwt>
<pdfrwt beam="2">  1       21 0.16477339E-01 0.40254587E+03</pdfrwt>
<totfact> 0.26051326E+03</totfact>
</mgrwt>
</event>
<event>
 5    0  0.1781295E-001  0.2287745E+03  0.7546771E-02  0.1127505E+00
         21   -1    0    0  501  502  0.00000000000E+00  0.00000000000E+00  0.60850730606E+03  0.60850730606E+03  0.00000000000E+00 0.  1.
         21   -1    0    0  502  503 -0.00000000000E+00 -0.00000000000E+00 -0.20553435550E+03  0.20553435550E+03  0.00000000000E+00 0.  1.
         25    1    1    2    0    0 -0.11437435452E+03  0.21450796955E+03  0.31043940223E+01  0.27336751679E+03  0.12500000000E+03 0.  0.
          4    1    1    2  501    0  0.45753586085E+02 -0.17930890521E+03  0.42170400100E+03  0.46052072547E+03  0.00000000000E+00 0. -1.
         -4    1    1    2    0  503  0.68620768437E+02 -0.35199064337E+02 -0.21835444463E+02  0.80153419303E+02  0.00000000000E+00 0.  1.
<mgrwt>
<rscale>  4 0.22877453E+03</rscale>
<asrwt>0</asrwt>
<pdfrwt beam="1">  1       21 0.93616508E-01 0.22877453E+03</pdfrwt>
<pdfrwt beam="2">  1       21 0.31620670E-01 0.22877453E+03</pdfrwt>
<totfact> 0.89941238E+03</totfact>
</mgrwt>
</event>
<event>
 5    0  0.1781295E-001  0.2815561E+03  0.7546771E-02  0.1094842E+00
         21   -1    0    0  501  502  0.00000000000E+00  0.00000000000E+00  0.74909331454E+03  0.74909331454E+03  0.00000000000E+00 0.  1.
         21   -1    0    0  502  503 -0.00000000000E+00 -0.00000000000E+00 -0.23894294886E+03  0.23894294886E+03  0.00000000000E+00 0. -1.
         25    1    1    2    0    0  0.23140549878E+03  0.10050038452E+03  0.63488244110E+03  0.69451389199E+03  0.12500000000E+03 0.  0.
          3    1    1    2  501    0 -0.44684060860E+02  0.13805463948E+02 -0.21467537921E+02  0.51459802897E+02  0.00000000000E+00 0.  1.
         -3    1    1    2    0  503 -0.18672143792E+03 -0.11430584847E+03 -0.10326453749E+03  0.24206256851E+03  0.00000000000E+00 0. -1.
<mgrwt>
<rscale>  4 0.28155609E+03</rscale>
<asrwt>0</asrwt>
<pdfrwt beam="1">  1       21 0.11524512E+00 0.28155609E+03</pdfrwt>
<pdfrwt beam="2">  1       21 0.36760454E-01 0.28155609E+03</pdfrwt>
<totfact> 0.39103729E+03</totfact>
</mgrwt>
</event>
<event>
 5    0  0.1781295E-001  0.2011716E+03  0.7546771E-02  0.1148754E+00
         21   -1    0    0  501  502  0.00000000000E+00  0.00000000000E+00  0.49318217107E+03  0.49318217107E+03  0.00000000000E+00 0.  1.
         21   -1    0    0  502  503 -0.00000000000E+00 -0.00000000000E+00 -0.35374412499E+03  0.35374412499E+03  0.00000000000E+00 0. -1.
         25    1    1    2    0    0  0.11092410024E+03 -0.21496933285E+03  0.34141195256E+03  0.43669565081E+03  0.12500000000E+03 0.  0.
          3    1    1    2  501    0 -0.80115522566E+02  0.64663950236E+02  0.50590995412E+02  0.11471430701E+03  0.00000000000E+00 0.  1.
         -3    1    1    2    0  503 -0.30808577672E+02  0.15030538262E+03 -0.25256490190E+03  0.29551633825E+03  0.00000000000E+00 0. -1.
<mgrwt>
<rscale>  4 0.20117158E+03</rscale>
<asrwt>0</asrwt>
<pdfrwt beam="1">  1       21 0.75874180E-01 0.20117158E+03</pdfrwt>
<pdfrwt beam="2">  1       21 0.54422173E-01 0.20117158E+03</pdfrwt>
<totfact> 0.49086982E+03</totfact>
</mgrwt>
</event>
<event>
 5    0  0.1781295E-001  0.3839294E+03  0.7546771E-02  0.1049491E+00
         21   -1    0    0  501  502  0.00000000000E+00  0.00000000000E+00  0.38014759503E+03  0.38014759503E+03  0.00000000000E+00 0. -1.
         21   -1    0    0  502  503 -0.00000000000E+00 -0.00000000000E+00 -0.55727715246E+03  0.55727715246E+03  0.00000000000E+00 0. -1.
         25    1    1    2    0    0  0.38358511728E+03 -0.17326512060E+03 -0.11627080443E+03  0.45420506842E+03  0.12500000000E+03 0.  0.
          3    1    1    2  501    0 -0.29402867591E+03  0.14218095034E+03 -0.14417949728E+03  0.35700982106E+03  0.00000000000E+00 0. -1.
         -3    1    1    2    0  503 -0.89556441370E+02  0.31084170263E+02  0.83320744283E+02  0.12620985801E+03  0.00000000000E+00 0.  1.
<mgrwt>
<rscale>  4 0.38392945E+03</rscale>
<asrwt>0</asrwt>
<pdfrwt beam="1">  1       21 0.58484245E-01 0.38392945E+03</pdfrwt>
<pdfrwt beam="2">  1       21 0.85734947E-01 0.38392945E+03</pdfrwt>
<totfact> 0.28682761E+03</totfact>
</mgrwt>
</event>
<event>
 5    0  0.1781295E-001  0.2958105E+03  0.7546771E-02  0.1087354E+00
         21   -1    0    0  501  502  0.00000000000E+00  0.00000000000E+00  0.34858787204E+03  0.34858787204E+03  0.00000000000E+00 0. -1.
         21   -1    0    0  502  503 -0.00000000000E+00 -0.00000000000E+00 -0.81207096180E+03  0.81207096180E+03  0.00000000000E+00 0. -1.
         25    1    1    2    0    0 -0.54067587254E+01  0.29888814939E+03  0.21880485993E+03  0.39097816514E+03  0.12500000000E+03 0.  0.
          3    1    1    2  501    0  0.62388802651E+02 -0.17438121011E+03 -0.22019386981E+03  0.28772644897E+03  0.00000000000E+00 0.  1.
         -3    1    1    2    0  503 -0.56982043925E+02 -0.12450693928E+03 -0.46209407988E+03  0.48195421974E+03  0.00000000000E+00 0. -1.
<mgrwt>
<rscale>  4 0.29581054E+03</rscale>
<asrwt>0</asrwt>
<pdfrwt beam="1">  1       21 0.53628904E-01 0.29581054E+03</pdfrwt>
<pdfrwt beam="2">  1       21 0.12493399E+00 0.29581054E+03</pdfrwt>
<totfact> 0.14487790E+03</totfact>
</mgrwt>
</event>
<event>
 5    0  0.1781295E-001  0.2755351E+03  0.7546771E-02  0.1098153E+00
         21   -1    0    0  501  502  0.00000000000E+00  0.00000000000E+00  0.12810734681E+04  0.12810734681E+04  0.00000000000E+00 0.  1.
         21   -1    0    0  502  503 -0.00000000000E+00 -0.00000000000E+00 -0.31155585583E+03  0.31155585583E+03  0.00000000000E+00 0.  1.
         25    1    1    2    0    0  0.21747842708E+03  0.11400745241E+03  0.12102824636E+04  0.12412506625E+04  0.12500000000E+03 0.  0.
          1    1    1    2  501    0 -0.76559736395E+02 -0.80033460103E+02 -0.97146463143E+02  0.14732339690E+03  0.00000000000E+00 0. -1.
         -1    1    1    2    0  503 -0.14091869069E+03 -0.33973992312E+02 -0.14361838822E+03  0.20405526451E+03  0.00000000000E+00 0.  1.
<mgrwt>
<rscale>  4 0.27553505E+03</rscale>
<asrwt>0</asrwt>
<pdfrwt beam="1">  1       21 0.19708822E+00 0.27553505E+03</pdfrwt>
<pdfrwt beam="2">  1       21 0.47931671E-01 0.27553505E+03</pdfrwt>
<totfact> 0.53648932E+02</totfact>
</mgrwt>
</event>
<event>
 5    0  0.1781295E-001  0.2481170E+03  0.7546771E-02  0.1114501E+00
         21   -1    0    0  501  502  0.00000000000E+00  0.00000000000E+00  0.48835761104E+03  0.48835761104E+03  0.00000000000E+00 0.  1.
         21   -1    0    0  502  503 -0.00000000000E+00 -0.00000000000E+00 -0.13424984406E+03  0.13424984406E+03  0.00000000000E+00 0.  1.
         25    1    1    2    0    0 -0.22145122426E+03 -0.42818100384E+01  0.16880179814E+03  0.30525075869E+03  0.12500000000E+03 0.  0.
          3    1    1    2  501    0  0.20733021678E+03 -0.38443104619E+02  0.16612043078E+03  0.26843935741E+03  0.00000000000E+00 0.  1.
         -3    1    1    2    0  503  0.14121007478E+02  0.42724914658E+02  0.19185538066E+02  0.48917339008E+02  0.00000000000E+00 0. -1.
<mgrwt>
<rscale>  4 0.24811699E+03</rscale>
<asrwt>0</asrwt>
<pdfrwt beam="1">  1       21 0.75131939E-01 0.24811699E+03</pdfrwt>
<pdfrwt beam="2">  1       21 0.20653822E-01 0.24811699E+03</pdfrwt>
<totfact> 0.33484804E+04</totfact>
</mgrwt>
</event>
<event>
 5    0  0.1781295E-001  0.2782200E+03  0.7546771E-02  0.1096665E+00
         21   -1    0    0  501  502  0.00000000000E+00  0.00000000000E+00  0.88525467497E+03  0.88525467497E+03  0.00000000000E+00 0. -1.
         21   -1    0    0  502  503 -0.00000000000E+00 -0.00000000000E+00 -0.98814271910E+02  0.98814271910E+02  0.00000000000E+00 0. -1.
         25    1    1    2    0    0  0.30214963390E+02  0.24671523474E+03  0.22207781710E+03  0.35598442089E+03  0.12500000000E+03 0.  0.
          1    1    1    2  501    0  0.51422480471E+01 -0.15193339299E+03  0.20793785993E+03  0.25758173889E+03  0.00000000000E+00 0. -1.
         -1    1    1    2    0  503 -0.35357211437E+02 -0.94781841750E+02  0.35642472603E+03  0.37050278710E+03  0.00000000000E+00 0.  1.
<mgrwt>
<rscale>  4 0.27821997E+03</rscale>
<asrwt>0</asrwt>
<pdfrwt beam="1">  1       21 0.13619302E+00 0.27821997E+03</pdfrwt>
<pdfrwt beam="2">  1       21 0.15202196E-01 0.27821997E+03</pdfrwt>
<totfact> 0.13973235E+04</totfact>
</mgrwt>
</event>
<event>
 5    0  0.1781295E-001  0.2475520E+03  0.7546771E-02  0.1114862E+00
         21   -1    0    0  501  502  0.00000000000E+00  0.00000000000E+00  0.51311006964E+03  0.51311006964E+03  0.00000000000E+00 0.  1.
         21   -1    0    0  502  503 -0.00000000000E+00 -0.00000000000E+00 -0.17324453802E+03  0.17324453802E+03  0.00000000000E+00 0. -1.
         25    1    1    2    0    0 -0.43594900819E+02  0.20918046083E+03  0.38597918747E+03  0.45854325176E+03  0.12500000000E+03 0.  0.
          2    1    1    2  501    0  0.17870703966E+01 -0.27090661463E+02 -0.29738262601E+02  0.40267379126E+02  0.00000000000E+00 0.  1.
         -2    1    1    2    0  503  0.41807830422E+02 -0.18208979937E+03 -0.16375393254E+02  0.18754397677E+03  0.00000000000E+00 0. -1.
<mgrwt>
<rscale>  4 0.24755198E+03</rscale>
<asrwt>0</asrwt>
<pdfrwt beam="1">  1       21 0.78940010E-01 0.24755198E+03</pdfrwt>
<pdfrwt beam="2">  1       21 0.26653006E-01 0.24755198E+03</pdfrwt>
<totfact> 0.18411920E+04</totfact>
</mgrwt>
</event>
<event>
 5    0  0.1781295E-001  0.2515214E+03  0.7546771E-02  0.1112347E+00
         21   -1    0    0  501  502  0.00000000000E+00  0.00000000000E+00  0.18146687744E+04  0.18146687744E+04  0.00000000000E+00 0.  1.
         21   -1    0    0  502  503 -0.00000000000E+00 -0.00000000000E+00 -0.38640193409E+02  0.38640193409E+02  0.00000000000E+00 0.  1.
         25    1    1    2    0    0  0.18576454721E+03  0.11458432708E+03  0.54589233047E+03  0.60105030694E+03  0.12500000000E+03 0.  0.
          2    1    1    2  501    0 -0.50780720299E+02 -0.70185226952E+02  0.34059743835E+03  0.35144169167E+03  0.00000000000E+00 0. -1.
         -2    1    1    2    0  503 -0.13498382691E+03 -0.44399100130E+02  0.88953881213E+03  0.90081696914E+03  0.00000000000E+00 0.  1.
<mgrwt>
<rscale>  4 0.25152144E+03</rscale>
<asrwt>0</asrwt>
<pdfrwt beam="1">  1       21 0.27917975E+00 0.25152144E+03</pdfrwt>
<pdfrwt beam="2">  1       21 0.59446465E-02 0.25152144E+03</pdfrwt>
<totfact> 0.85359364E+03</totfact>
</mgrwt>
</event>
<event>
 5    0  0.1781295E-001  0.2287990E+03  0.7546771E-02  0.1127488E+00
         21   -1    0    0  501  502  0.00000000000E+00  0.00000000000E+00  0.39282144824E+03  0.39282144824E+03  0.00000000000E+00 0.  1.
         21   -1    0    0  502  503 -0.00000000000E+00 -0.00000000000E+00 -0.14434160062E+03  0.14434160062E+03  0.00000000000E+00 0.  1.
         25    1    1    2    0    0  0.19488158724E+03  0.67395184404E+02  0.14565988381E+03  0.28171394299E+03  0.12500000000E+03 0.  0.
          3    1    1    2  501    0 -0.16264020464E+03 -0.86626334547E+02  0.50521753818E+02  0.19107172897E+03  0.00000000000E+00 0.  1.
         -3    1    1    2    0  503 -0.32241382600E+02  0.19231150143E+02  0.52298209994E+02  0.64377376899E+02  0.00000000000E+00 0. -1.
<mgrwt>
<rscale>  4 0.22879901E+03</rscale>
<asrwt>0</asrwt>
<pdfrwt beam="1">  1       21 0.60434069E-01 0.22879901E+03</pdfrwt>
<pdfrwt beam="2">  1       21 0.22206400E-01 0.22879901E+03</pdfrwt>
<totfact> 0.47567699E+04</totfact>
</mgrwt>
</event>
<event>
 5    0  0.1781295E-001  0.2492376E+03  0.7546771E-02  0.1113788E+00
         21   -1    0    0  501  502  0.00000000000E+00  0.00000000000E+00  0.46295841186E+03  0.46295841186E+03  0.00000000000E+00 0.  1.
         21   -1    0    0  502  503 -0.00000000000E+00 -0.00000000000E+00 -0.12579124353E+03  0.12579124353E+03  0.00000000000E+00 0.  1.
         25    1    1    2    0    0  0.10017480887E+03 -0.19094346710E+03  0.23486720218E+03  0.34246460054E+03  0.12500000000E+03 0.  0.
          4    1    1    2  501    0 -0.85790728797E+02  0.12769425689E+03  0.46469951181E+02  0.16070260966E+03  0.00000000000E+00 0.  1.
         -4    1    1    2    0  503 -0.14384080073E+02  0.63249210220E+02  0.55830014981E+02  0.85582445196E+02  0.00000000000E+00 0. -1.
<mgrwt>
<rscale>  4 0.24923764E+03</rscale>
<asrwt>0</asrwt>
<pdfrwt beam="1">  1       21 0.71224370E-01 0.24923764E+03</pdfrwt>
<pdfrwt beam="2">  1       21 0.19352499E-01 0.24923764E+03</pdfrwt>
<totfact> 0.42623649E+04</totfact>
</mgrwt>
</event>
<event>
 5    0  0.1781295E-001  0.2604288E+03  0.7546771E-02  0.1106886E+00
         21   -1    0    0  501  502  0.00000000000E+00  0.00000000000E+00  0.25324332154E+04  0.25324332154E+04  0.00000000000E+00 0.  1.
         21   -1    0    0  502  503 -0.00000000000E+00 -0.00000000000E+00 -0.36907219445E+02  0.36907219445E+02  0.00000000000E+00 0.  1.
         25    1    1    2    0    0 -0.66485752283E+02  0.22072440729E+03  0.19689354823E+04  0.19863211102E+04  0.12500000000E+03 0.  0.
          1    1    1    2  501    0 -0.21791881923E+02 -0.15317932485E+02  0.58258580834E+02  0.64059249247E+02  0.00000000000E+00 0. -1.
         -1    1    1    2    0  503  0.88277634206E+02 -0.20540647481E+03  0.46833193285E+03  0.51896007546E+03  0.00000000000E+00 0.  1.
<mgrwt>
<rscale>  4 0.26042882E+03</rscale>
<asrwt>0</asrwt>
<pdfrwt beam="1">  1       21 0.38960497E+00 0.26042882E+03</pdfrwt>
<pdfrwt beam="2">  1       21 0.56780358E-02 0.26042882E+03</pdfrwt>
<totfact> 0.20127550E+03</totfact>
</mgrwt>
</event>
<event>
 5    0  0.1781295E-001  0.2626087E+03  0.7546771E-02  0.1105586E+00
         21   -1    0    0  501  502  0.00000000000E+00  0.00000000000E+00  0.44586437225E+03  0.44586437225E+03  0.00000000000E+00 0. -1.
         21   -1    0    0  502  503 -0.00000000000E+00 -0.00000000000E+00 -0.21020808541E+03  0.21020808541E+03  0.00000000000E+00 0. -1.
         25    1    1    2    0    0 -0.20480483364E+03  0.10673956778E+03  0.31259894490E+03  0.40826640269E+03  0.12500000000E+03 0.  0.
          3    1    1    2  501    0  0.16742547763E+03 -0.97414302898E+02 -0.79076009633E+02  0.20922201669E+03  0.00000000000E+00 0. -1.
         -3    1    1    2    0  503  0.37379356007E+02 -0.93252648812E+01  0.21333515672E+01  0.38584038274E+02  0.00000000000E+00 0.  1.
<mgrwt>
<rscale>  4 0.26260875E+03</rscale>
<asrwt>0</asrwt>
<pdfrwt beam="1">  1       21 0.68594519E-01 0.26260875E+03</pdfrwt>
<pdfrwt beam="2">  1       21 0.32339706E-01 0.26260875E+03</pdfrwt>
<totfact> 0.17150829E+04</totfact>
</mgrwt>
</event>
<event>
 5    0  0.1781295E-001  0.2520099E+03  0.7546771E-02  0.1112041E+00
         21   -1    0    0  501  502  0.00000000000E+00  0.00000000000E+00  0.20378357207E+04  0.20378357207E+04  0.00000000000E+00 0.  1.
         21   -1    0    0  502  503 -0.00000000000E+00 -0.00000000000E+00 -0.28340043411E+02  0.28340043411E+02  0.00000000000E+00 0.  1.
         25    1    1    2    0    0 -0.17236565703E+03  0.13481115316E+03  0.12431219300E+04  0.12684088851E+04  0.12500000000E+03 0.  0.
          2    1    1    2  501    0  0.28932846673E+02 -0.11418923411E+02  0.14140412135E+03  0.14478476081E+03  0.00000000000E+00 0. -1.
         -2    1    1    2    0  503  0.14343281036E+03 -0.12339222975E+03  0.62496962588E+03  0.65298211822E+03  0.00000000000E+00 0.  1.
<mgrwt>
<rscale>  4 0.25200985E+03</rscale>
<asrwt>0</asrwt>
<pdfrwt beam="1">  1       21 0.31351307E+00 0.25200985E+03</pdfrwt>
<pdfrwt beam="2">  1       21 0.43600083E-02 0.25200985E+03</pdfrwt>
<totfact> 0.91241399E+03</totfact>
</mgrwt>
</event>
<event>
 5    0  0.1781295E-001  0.3460302E+03  0.7546771E-02  0.1064256E+00
         21   -1    0    0  501  502  0.00000000000E+00  0.00000000000E+00  0.16954171496E+03  0.16954171496E+03  0.00000000000E+00 0. -1.
         21   -1    0    0  502  503 -0.00000000000E+00 -0.00000000000E+00 -0.68569281421E+03  0.68569281421E+03  0.00000000000E+00 0. -1.
         25    1    1    2    0    0  0.17671129607E+03  0.26997227120E+03 -0.21412805596E+03  0.40692472735E+03  0.12500000000E+03 0.  0.
          3    1    1    2  501    0 -0.36111274700E+01 -0.34826901218E+02 -0.12670376138E+02  0.37235624361E+02  0.00000000000E+00 0.  1.
         -3    1    1    2    0  503 -0.17310016860E+03 -0.23514536998E+03 -0.28935266714E+03  0.41107417746E+03  0.00000000000E+00 0. -1.
<mgrwt>
<rscale>  4 0.34603021E+03</rscale>
<asrwt>0</asrwt>
<pdfrwt beam="1">  1       21 0.26083341E-01 0.34603021E+03</pdfrwt>
<pdfrwt beam="2">  1       21 0.10549120E+00 0.34603021E+03</pdfrwt>
<totfact> 0.92876715E+03</totfact>
</mgrwt>
</event>
<event>
 5    0  0.1781295E-001  0.3130554E+03  0.7546771E-02  0.1078891E+00
         21   -1    0    0  501  502  0.00000000000E+00  0.00000000000E+00  0.76696454524E+02  0.76696454524E+02  0.00000000000E+00 0.  1.
         21   -1    0    0  502  503 -0.00000000000E+00 -0.00000000000E+00 -0.16632667061E+04  0.16632667061E+04  0.00000000000E+00 0.  1.
         25    1    1    2    0    0  0.14234117835E+03  0.27348405748E+03 -0.73485131110E+03  0.80665109568E+03  0.12500000000E+03 0.  0.
          3    1    1    2  501    0 -0.19339996007E+03 -0.19860874199E+03 -0.73499520767E+03  0.78553607953E+03  0.00000000000E+00 0.  1.
         -3    1    1    2    0  503  0.51058781720E+02 -0.74875315495E+02 -0.11672373280E+03  0.14777598539E+03  0.00000000000E+00 0. -1.
<mgrwt>
<rscale>  4 0.31305536E+03</rscale>
<asrwt>0</asrwt>
<pdfrwt beam="1">  1       21 0.11799455E-01 0.31305536E+03</pdfrwt>
<pdfrwt beam="2">  1       21 0.25588718E+00 0.31305536E+03</pdfrwt>
<totfact> 0.33505617E+03</totfact>
</mgrwt>
</event>
<event>
 5    0  0.1781295E-001  0.2670728E+03  0.7546771E-02  0.1102967E+00
         21   -1    0    0  501  502  0.00000000000E+00  0.00000000000E+00  0.16899703644E+04  0.16899703644E+04  0.00000000000E+00 0. -1.
         21   -1    0    0  502  503 -0.00000000000E+00 -0.00000000000E+00 -0.29452021709E+03  0.29452021709E+03  0.00000000000E+00 0. -1.
         25    1    1    2    0    0 -0.78879422612E+02 -0.22244301431E+03  0.16269586007E+04  0.16487334977E+04  0.12500000000E+03 0.  0.
          3    1    1    2  501    0  0.36318655208E+01  0.39948601338E+02 -0.15149026363E+02  0.42878598342E+02  0.00000000000E+00 0.  1.
         -3    1    1    2    0  503  0.75247557091E+02  0.18249441297E+03 -0.21635942701E+03  0.29287848550E+03  0.00000000000E+00 0. -1.
<mgrwt>
<rscale>  4 0.26707276E+03</rscale>
<asrwt>0</asrwt>
<pdfrwt beam="1">  1       21 0.25999544E+00 0.26707276E+03</pdfrwt>
<pdfrwt beam="2">  1       21 0.45310803E-01 0.26707276E+03</pdfrwt>
<totfact> 0.24804040E+02</totfact>
</mgrwt>
</event>
<event>
 5    0  0.1781295E-001  0.2497837E+03  0.7546771E-02  0.1113442E+00
         21   -1    0    0  501  502  0.00000000000E+00  0.00000000000E+00  0.22883575568E+03  0.22883575568E+03  0.00000000000E+00 0.  1.
         21   -1    0    0  502  503 -0.00000000000E+00 -0.00000000000E+00 -0.26188655475E+03  0.26188655475E+03  0.00000000000E+00 0.  1.
         25    1    1    2    0    0  0.46150290966E+02 -0.21127477829E+03  0.35187822677E+02  0.25225000330E+03  0.12500000000E+03 0.  0.
          4    1    1    2  501    0 -0.42346539807E+02  0.98961215279E+02 -0.65616468538E+02  0.12606376365E+03  0.00000000000E+00 0.  1.
         -4    1    1    2    0  503 -0.38037511588E+01  0.11231356301E+03 -0.26221532144E+01  0.11240854348E+03  0.00000000000E+00 0. -1.
<mgrwt>
<rscale>  4 0.24978367E+03</rscale>
<asrwt>0</asrwt>
<pdfrwt beam="1">  1       21 0.35205501E-01 0.24978367E+03</pdfrwt>
<pdfrwt beam="2">  1       21 0.40290239E-01 0.24978367E+03</pdfrwt>
<totfact> 0.44988083E+04</totfact>
</mgrwt>
</event>
<event>
 5    0  0.1781295E-001  0.3220294E+03  0.7546771E-02  0.1075983E+00
         21   -1    0    0  501  502  0.00000000000E+00  0.00000000000E+00  0.10407182438E+04  0.10407182438E+04  0.00000000000E+00 0.  1.
         21   -1    0    0  502  503 -0.00000000000E+00 -0.00000000000E+00 -0.34011062603E+03  0.34011062603E+03  0.00000000000E+00 0.  1.
         25    1    1    2    0    0  0.22802506068E+03 -0.17086658015E+03 -0.23592177212E+03  0.39048034403E+03  0.12500000000E+03 0.  0.
          3    1    1    2  501    0 -0.79918336676E+02  0.14340367420E+03  0.59174488765E+03  0.61409573062E+03  0.00000000000E+00 0.  1.
         -3    1    1    2    0  503 -0.14810672401E+03  0.27462905945E+02  0.34478450226E+03  0.37625279520E+03  0.00000000000E+00 0. -1.
<mgrwt>
<rscale>  4 0.31927498E+03</rscale>
<asrwt>0</asrwt>
<pdfrwt beam="1">  1       21 0.16011050E+00 0.32202935E+03</pdfrwt>
<pdfrwt beam="2">  1       21 0.52324712E-01 0.32202935E+03</pdfrwt>
<totfact> 0.78093394E+02</totfact>
</mgrwt>
</event>
