<event>
 5    0  0.3888462E+000  0.3156198E+03  0.7546771E-02  0.1077683E+00
         21   -1    0    0  501  502  0.00000000000E+00  0.00000000000E+00  0.40263035995E+02  0.40263035995E+02  0.00000000000E+00 0.  1.
          1   -1    0    0  503    0 -0.00000000000E+00 -0.00000000000E+00 -0.27246173995E+04  0.27246173995E+04  0.00000000000E+00 0. -1.
         25    1    1    2    0    0  0.22631763993E+03  0.19524097279E+03 -0.13399392870E+04  0.13785503271E+04  0.12500000000E+03 0.  0.
         21    1    1    2  503  502  0.88640248699E+01 -0.36169399248E+02 -0.35603830319E+03  0.35798054377E+03  0.00000000000E+00 0. -1.
          1    1    1    2  501    0 -0.23518166480E+03 -0.15907157354E+03 -0.98837677330E+03  0.10283495646E+04  0.00000000000E+00 0. -1.
<mgrwt>
<rscale>  4 0.31561982E+03</rscale>
<asrwt>0</asrwt>
<pdfrwt beam="1">  1       21 0.61943137E-02 0.31561982E+03</pdfrwt>
<pdfrwt beam="2">  1        1 0.41917187E+00 0.31561982E+03</pdfrwt>
<totfact> 0.22851185E+03</totfact>
</mgrwt>
</event>
<event>
 5    0  0.3888462E+000  0.2748454E+03  0.7546771E-02  0.1098538E+00
          1   -1    0    0  503    0 -0.00000000000E+00  0.00000000000E+00  0.13097052419E+04  0.13097052419E+04  0.00000000000E+00 0.  1.
         21   -1    0    0  501  502  0.00000000000E+00 -0.00000000000E+00 -0.63319820118E+03  0.63319820118E+03  0.00000000000E+00 0. -1.
         25    1    1    2    0    0  0.17308899526E+03  0.17415705323E+03 -0.50922157441E+03  0.57898367103E+03  0.12500000000E+03 0.  0.
         21    1    1    2  503  502 -0.17384541507E+03  0.13355153069E+03  0.11043960456E+03  0.24546923625E+03  0.00000000000E+00 0.  1.
          1    1    1    2  501    0  0.75641981125E+00 -0.30770858392E+03  0.10752890106E+04  0.11184505358E+04  0.00000000000E+00 0.  1.
<mgrwt>
<rscale>  4 0.27484543E+03</rscale>
<asrwt>0</asrwt>
<pdfrwt beam="1">  1       21 0.97415108E-01 0.27484543E+03</pdfrwt>
<pdfrwt beam="2">  1        1 0.20149311E+00 0.27484543E+03</pdfrwt>
<totfact> 0.89105122E+01</totfact>
</mgrwt>
</event>
<event>
 5    0  0.3888462E+000  0.6083552E+03  0.7546771E-02  0.9888222E-01
         21   -1    0    0  501  502  0.00000000000E+00  0.00000000000E+00  0.47677107729E+03  0.47677107729E+03  0.00000000000E+00 0. -1.
          2   -1    0    0  503    0 -0.00000000000E+00 -0.00000000000E+00 -0.13763858443E+04  0.13763858443E+04  0.00000000000E+00 0. -1.
         25    1    1    2    0    0 -0.31240045923E+03  0.58158021933E+03 -0.79866177152E+00  0.67190418685E+03  0.12500000000E+03 0.  0.
         21    1    1    2  503  502  0.11351181294E+03 -0.49036667893E+03 -0.42276425371E+03  0.65732337985E+03  0.00000000000E+00 0. -1.
          2    1    1    2  501    0  0.19888864630E+03 -0.91213540404E+02 -0.47605185154E+03  0.52392935490E+03  0.00000000000E+00 0. -1.
<mgrwt>
<rscale>  4 0.60835523E+03</rscale>
<asrwt>0</asrwt>
<pdfrwt beam="1">  1       21 0.73349397E-01 0.60835523E+03</pdfrwt>
<pdfrwt beam="2">  1        2 0.21175167E+00 0.60835523E+03</pdfrwt>
<totfact> 0.28723754E+02</totfact>
</mgrwt>
</event>
<event>
 5    0  0.3888462E+000  0.6056601E+03  0.7546771E-02  0.9893732E-01
          1   -1    0    0  503    0 -0.00000000000E+00  0.00000000000E+00  0.99129364296E+03  0.99129364296E+03  0.00000000000E+00 0. -1.
         21   -1    0    0  501  502  0.00000000000E+00 -0.00000000000E+00 -0.72445996955E+03  0.72445996955E+03  0.00000000000E+00 0. -1.
         25    1    1    2    0    0  0.46343822837E+03  0.35881917209E+03 -0.30438375552E+03  0.67216118632E+03  0.12500000000E+03 0.  0.
         21    1    1    2  503  502 -0.47495600722E+03 -0.37708843658E+03  0.15383941107E+03  0.62565602547E+03  0.00000000000E+00 0. -1.
          1    1    1    2  501    0  0.11517778848E+02  0.18269264498E+02  0.41737801785E+03  0.41793640072E+03  0.00000000000E+00 0. -1.
<mgrwt>
<rscale>  4 0.60566014E+03</rscale>
<asrwt>0</asrwt>
<pdfrwt beam="1">  1       21 0.11145538E+00 0.60566014E+03</pdfrwt>
<pdfrwt beam="2">  1        1 0.15250671E+00 0.60566014E+03</pdfrwt>
<totfact> 0.95284726E+01</totfact>
</mgrwt>
</event>
<event>
 5    0  0.3888462E+000  0.2181784E+03  0.7546771E-02  0.1135248E+00
         -1   -1    0    0    0  501 -0.00000000000E+00  0.00000000000E+00  0.67055322361E+03  0.67055322361E+03  0.00000000000E+00 0. -1.
         21   -1    0    0  503  502  0.00000000000E+00 -0.00000000000E+00 -0.20307932599E+03  0.20307932599E+03  0.00000000000E+00 0.  1.
         25    1    1    2    0    0  0.18729033895E+03  0.94935339900E+02 -0.74477890719E+02  0.25546496048E+03  0.12500000000E+03 0.  0.
         21    1    1    2  503  501 -0.49465455309E+02 -0.96533504818E+02  0.42113103327E+03  0.43487572479E+03  0.00000000000E+00 0. -1.
         -1    1    1    2    0  502 -0.13782488364E+03  0.15981649180E+01  0.12082075506E+03  0.18329186435E+03  0.00000000000E+00 0. -1.
<mgrwt>
<rscale>  4 0.21817838E+03</rscale>
<asrwt>0</asrwt>
<pdfrwt beam="1">  1       21 0.31242973E-01 0.21817838E+03</pdfrwt>
<pdfrwt beam="2">  1       -1 0.10316203E+00 0.21817838E+03</pdfrwt>
<totfact> 0.85975950E+02</totfact>
</mgrwt>
</event>
<event>
 5    0  0.3888462E+000  0.4565684E+03  0.7546771E-02  0.1025781E+00
         21   -1    0    0  501  502  0.00000000000E+00  0.00000000000E+00  0.10078887157E+04  0.10078887157E+04  0.00000000000E+00 0.  1.
          2   -1    0    0  503    0 -0.00000000000E+00 -0.00000000000E+00 -0.37786171519E+03  0.37786171519E+03  0.00000000000E+00 0. -1.
         25    1    1    2    0    0 -0.94906546864E+02 -0.46747025294E+03  0.64814264181E+03  0.81440135938E+03  0.12500000000E+03 0.  0.
         21    1    1    2  503  502 -0.11279464330E+03  0.16485456245E+03  0.26938741231E+02  0.20155732211E+03  0.00000000000E+00 0.  1.
          2    1    1    2  501    0  0.20770119016E+03  0.30261569049E+03 -0.45054382563E+02  0.36979174938E+03  0.00000000000E+00 0. -1.
<mgrwt>
<rscale>  4 0.45656844E+03</rscale>
<asrwt>0</asrwt>
<pdfrwt beam="1">  1       21 0.15505980E+00 0.45656844E+03</pdfrwt>
<pdfrwt beam="2">  1        2 0.58132572E-01 0.45656844E+03</pdfrwt>
<totfact> 0.25560556E+02</totfact>
</mgrwt>
</event>
<event>
 5    0  0.3888462E+000  0.3557150E+03  0.7546771E-02  0.1060294E+00
         21   -1    0    0  501  502  0.00000000000E+00  0.00000000000E+00  0.25205348416E+03  0.25205348416E+03  0.00000000000E+00 0. -1.
          2   -1    0    0  503    0 -0.00000000000E+00 -0.00000000000E+00 -0.19742601443E+04  0.19742601443E+04  0.00000000000E+00 0. -1.
         25    1    1    2    0    0  0.93245862150E+02 -0.32546420747E+03  0.86373704635E+02  0.37108915102E+03  0.12500000000E+03 0.  0.
         21    1    1    2  503  502 -0.63108579868E+02  0.28924115176E+03 -0.94336169895E+03  0.98872363771E+03  0.00000000000E+00 0. -1.
          2    1    1    2  501    0 -0.30137282282E+02  0.36223055701E+02 -0.86521866579E+03  0.86650083968E+03  0.00000000000E+00 0. -1.
<mgrwt>
<rscale>  4 0.35571504E+03</rscale>
<asrwt>0</asrwt>
<pdfrwt beam="1">  1       21 0.38777458E-01 0.35571504E+03</pdfrwt>
<pdfrwt beam="2">  1        2 0.30373234E+00 0.35571504E+03</pdfrwt>
<totfact> 0.58172957E+02</totfact>
</mgrwt>
</event>
<event>
 5    0  0.3888462E+000  0.2948709E+03  0.7546771E-02  0.1087833E+00
         21   -1    0    0  501  502  0.00000000000E+00  0.00000000000E+00  0.19512983058E+03  0.19512983058E+03  0.00000000000E+00 0.  1.
          1   -1    0    0  503    0 -0.00000000000E+00 -0.00000000000E+00 -0.25605060678E+04  0.25605060678E+04  0.00000000000E+00 0. -1.
         25    1    1    2    0    0  0.91819258737E+02 -0.25137190086E+03 -0.14876612368E+03  0.33071886607E+03  0.12500000000E+03 0.  0.
         21    1    1    2  503  502 -0.56216773500E+02  0.26177672705E+03 -0.68343061289E+02  0.27632979296E+03  0.00000000000E+00 0.  1.
          1    1    1    2  501    0 -0.35602485236E+02 -0.10404826188E+02 -0.21482670522E+04  0.21485872393E+04  0.00000000000E+00 0. -1.
<mgrwt>
<rscale>  4 0.29487094E+03</rscale>
<asrwt>0</asrwt>
<pdfrwt beam="1">  1       21 0.30019976E-01 0.29487094E+03</pdfrwt>
<pdfrwt beam="2">  1        1 0.39392398E+00 0.29487094E+03</pdfrwt>
<totfact> 0.16478585E+02</totfact>
</mgrwt>
</event>
<event>
 5    0  0.3888462E+000  0.3676500E+03  0.7546771E-02  0.1055595E+00
         -3   -1    0    0    0  501 -0.00000000000E+00  0.00000000000E+00  0.83365936885E+03  0.83365936885E+03  0.00000000000E+00 0. -1.
         21   -1    0    0  503  502  0.00000000000E+00 -0.00000000000E+00 -0.83223992788E+03  0.83223992788E+03  0.00000000000E+00 0. -1.
         25    1    1    2    0    0 -0.16771155424E+02 -0.37465741081E+03 -0.47928183958E+03  0.62127733653E+03  0.12500000000E+03 0.  0.
         21    1    1    2  503  501  0.22737262696E+02  0.30955646936E+03 -0.19447884917E+03  0.36628433438E+03  0.00000000000E+00 0. -1.
         -3    1    1    2    0  502 -0.59661072719E+01  0.65100941451E+02  0.67518012974E+03  0.67833762582E+03  0.00000000000E+00 0. -1.
<mgrwt>
<rscale>  4 0.36765003E+03</rscale>
<asrwt>0</asrwt>
<pdfrwt beam="1">  1       21 0.12803691E+00 0.36765003E+03</pdfrwt>
<pdfrwt beam="2">  1       -3 0.12825529E+00 0.36765003E+03</pdfrwt>
<totfact> 0.10258965E+01</totfact>
</mgrwt>
</event>
<event>
 5    0  0.3888462E+000  0.3532830E+03  0.7546771E-02  0.1061276E+00
          2   -1    0    0  503    0 -0.00000000000E+00  0.00000000000E+00  0.57377684589E+03  0.57377684589E+03  0.00000000000E+00 0.  1.
         21   -1    0    0  501  502  0.00000000000E+00 -0.00000000000E+00 -0.37889218388E+03  0.37889218388E+03  0.00000000000E+00 0.  1.
         25    1    1    2    0    0  0.33025025733E+03 -0.28780232022E+01 -0.17604442021E+03  0.39457591585E+03  0.12500000000E+03 0.  0.
         21    1    1    2  503  502 -0.33048323350E+03  0.24754336659E+02  0.20277620152E+03  0.38852301439E+03  0.00000000000E+00 0.  1.
          2    1    1    2  501    0  0.23297617445E+00 -0.21876313457E+02  0.16815288069E+03  0.16957009953E+03  0.00000000000E+00 0.  1.
<mgrwt>
<rscale>  4 0.35328299E+03</rscale>
<asrwt>0</asrwt>
<pdfrwt beam="1">  1       21 0.58291105E-01 0.35328299E+03</pdfrwt>
<pdfrwt beam="2">  1        2 0.88273361E-01 0.35328299E+03</pdfrwt>
<totfact> 0.17390106E+03</totfact>
</mgrwt>
</event>
<event>
 5    0  0.3888462E+000  0.2438115E+03  0.7546771E-02  0.1117279E+00
          1   -1    0    0  503    0 -0.00000000000E+00  0.00000000000E+00  0.18662841257E+04  0.18662841257E+04  0.00000000000E+00 0.  1.
         21   -1    0    0  501  502  0.00000000000E+00 -0.00000000000E+00 -0.47800536281E+03  0.47800536281E+03  0.00000000000E+00 0. -1.
         25    1    1    2    0    0  0.19317783739E+03  0.12936118460E+03  0.16372315874E+02  0.26447125679E+03  0.12500000000E+03 0.  0.
         21    1    1    2  503  502 -0.16966178470E+03 -0.11409715213E+03 -0.32430461838E+03  0.38337549063E+03  0.00000000000E+00 0. -1.
          1    1    1    2  501    0 -0.23516052694E+02 -0.15264032463E+02  0.16962110654E+04  0.16964427411E+04  0.00000000000E+00 0.  1.
<mgrwt>
<rscale>  4 0.24381146E+03</rscale>
<asrwt>0</asrwt>
<pdfrwt beam="1">  1       21 0.73539287E-01 0.24381146E+03</pdfrwt>
<pdfrwt beam="2">  1        1 0.28712063E+00 0.24381146E+03</pdfrwt>
<totfact> 0.74754448E+01</totfact>
</mgrwt>
</event>
<event>
 5    0  0.3888462E+000  0.2692548E+03  0.7546771E-02  0.1101707E+00
         21   -1    0    0  501  502  0.00000000000E+00  0.00000000000E+00  0.31321850940E+03  0.31321850940E+03  0.00000000000E+00 0.  1.
          2   -1    0    0  503    0 -0.00000000000E+00 -0.00000000000E+00 -0.50035630362E+03  0.50035630362E+03  0.00000000000E+00 0.  1.
         25    1    1    2    0    0 -0.22255989508E+03 -0.20652178591E+02  0.15007127431E+03  0.29682622316E+03  0.12500000000E+03 0.  0.
         21    1    1    2  503  502  0.29234129377E+03  0.30330537604E+01 -0.17865062175E+03  0.34262030896E+03  0.00000000000E+00 0.  1.
          2    1    1    2  501    0 -0.69781398691E+02  0.17619124831E+02 -0.15855844679E+03  0.17412828090E+03  0.00000000000E+00 0.  1.
<mgrwt>
<rscale>  4 0.26925484E+03</rscale>
<asrwt>0</asrwt>
<pdfrwt beam="1">  1       21 0.48187463E-01 0.26925484E+03</pdfrwt>
<pdfrwt beam="2">  1        2 0.76977893E-01 0.26925484E+03</pdfrwt>
<totfact> 0.31220890E+03</totfact>
</mgrwt>
</event>
<event>
 5    0  0.3888462E+000  0.4717408E+03  0.7546771E-02  0.1021430E+00
          2   -1    0    0  503    0 -0.00000000000E+00  0.00000000000E+00  0.14637517734E+04  0.14637517734E+04  0.00000000000E+00 0. -1.
         21   -1    0    0  501  502  0.00000000000E+00 -0.00000000000E+00 -0.81010271573E+03  0.81010271573E+03  0.00000000000E+00 0. -1.
         25    1    1    2    0    0  0.86432429656E+02  0.45075650711E+03 -0.66676926387E+03  0.81905936588E+03  0.12500000000E+03 0.  0.
         21    1    1    2  503  502 -0.71470341396E+02 -0.41334553111E+03  0.59358794549E+03  0.72684880603E+03  0.00000000000E+00 0. -1.
          2    1    1    2  501    0 -0.14962088260E+02 -0.37410976003E+02  0.72683037601E+03  0.72794631718E+03  0.00000000000E+00 0. -1.
<mgrwt>
<rscale>  4 0.47174076E+03</rscale>
<asrwt>0</asrwt>
<pdfrwt beam="1">  1       21 0.12463119E+00 0.47174076E+03</pdfrwt>
<pdfrwt beam="2">  1        2 0.22519258E+00 0.47174076E+03</pdfrwt>
<totfact> 0.74305495E+01</totfact>
</mgrwt>
</event>
<event>
 5    0  0.3888462E+000  0.2384996E+03  0.7546771E-02  0.1120796E+00
          2   -1    0    0  503    0 -0.00000000000E+00  0.00000000000E+00  0.19337603140E+04  0.19337603140E+04  0.00000000000E+00 0. -1.
         21   -1    0    0  501  502  0.00000000000E+00 -0.00000000000E+00 -0.75115000447E+02  0.75115000447E+02  0.00000000000E+00 0. -1.
         25    1    1    2    0    0  0.21426552043E+03  0.16446542300E+02  0.34793321939E+03  0.42762451654E+03  0.12500000000E+03 0.  0.
         21    1    1    2  503  502 -0.16735347396E+03 -0.12402411024E+03  0.30208719897E+03  0.36694119549E+03  0.00000000000E+00 0. -1.
          2    1    1    2  501    0 -0.46912046468E+02  0.10757756794E+03  0.12086248952E+04  0.12143096024E+04  0.00000000000E+00 0. -1.
<mgrwt>
<rscale>  4 0.23849964E+03</rscale>
<asrwt>0</asrwt>
<pdfrwt beam="1">  1       21 0.11556155E-01 0.23849964E+03</pdfrwt>
<pdfrwt beam="2">  1        2 0.29750155E+00 0.23849964E+03</pdfrwt>
<totfact> 0.64165578E+03</totfact>
</mgrwt>
</event>
<event>
 5    0  0.3888462E+000  0.2500381E+03  0.7546771E-02  0.1113281E+00
         21   -1    0    0  501  502  0.00000000000E+00  0.00000000000E+00  0.70886829561E+02  0.70886829561E+02  0.00000000000E+00 0. -1.
          2   -1    0    0  503    0 -0.00000000000E+00 -0.00000000000E+00 -0.24865888820E+04  0.24865888820E+04  0.00000000000E+00 0.  1.
         25    1    1    2    0    0  0.91884091940E+02 -0.21506821099E+03 -0.62431640821E+03  0.67830155483E+03  0.12500000000E+03 0.  0.
         21    1    1    2  503  502 -0.15029685354E+03  0.15242101193E+03 -0.22540090452E+03  0.31084863972E+03  0.00000000000E+00 0.  1.
          2    1    1    2  501    0  0.58412761599E+02  0.62647199062E+02 -0.15659847398E+04  0.15683255170E+04  0.00000000000E+00 0.  1.
<mgrwt>
<rscale>  4 0.25003807E+03</rscale>
<asrwt>0</asrwt>
<pdfrwt beam="1">  1       21 0.10905667E-01 0.25003807E+03</pdfrwt>
<pdfrwt beam="2">  1        2 0.38255211E+00 0.25003807E+03</pdfrwt>
<totfact> 0.35991265E+03</totfact>
</mgrwt>
</event>
<event>
 5    0  0.3888462E+000  0.1897406E+03  0.7546771E-02  0.1158696E+00
          4   -1    0    0  503    0 -0.00000000000E+00  0.00000000000E+00  0.24357739371E+03  0.24357739371E+03  0.00000000000E+00 0. -1.
         21   -1    0    0  501  502  0.00000000000E+00 -0.00000000000E+00 -0.17410412047E+04  0.17410412047E+04  0.00000000000E+00 0. -1.
         25    1    1    2    0    0 -0.16669863308E+03 -0.15624466329E+03 -0.14022667845E+04  0.14262461092E+04  0.12500000000E+03 0.  0.
         21    1    1    2  503  502  0.35495251827E+02  0.10295187791E+03 -0.29443820676E+03  0.31393129768E+03  0.00000000000E+00 0. -1.
          4    1    1    2  501    0  0.13120338126E+03  0.53292785375E+02  0.19924118024E+03  0.24444119155E+03  0.00000000000E+00 0. -1.
<mgrwt>
<rscale>  4 0.18974055E+03</rscale>
<asrwt>0</asrwt>
<pdfrwt beam="1">  1       21 0.26785249E+00 0.18974055E+03</pdfrwt>
<pdfrwt beam="2">  1        4 0.37473446E-01 0.18974055E+03</pdfrwt>
<totfact> 0.15252813E+01</totfact>
</mgrwt>
</event>
<event>
 5    0  0.3888462E+000  0.2415944E+03  0.7546771E-02  0.1118735E+00
         21   -1    0    0  503  502  0.00000000000E+00  0.00000000000E+00  0.18773546774E+03  0.18773546774E+03  0.00000000000E+00 0. -1.
         -3   -1    0    0    0  501 -0.00000000000E+00 -0.00000000000E+00 -0.87902881005E+03  0.87902881005E+03  0.00000000000E+00 0. -1.
         25    1    1    2    0    0  0.23018719450E+03 -0.24782461529E+02  0.39239096071E+02  0.26601695730E+03  0.12500000000E+03 0.  0.
         21    1    1    2  503  501 -0.15315111895E+03  0.60219993952E+02 -0.18066468785E+03  0.24437970936E+03  0.00000000000E+00 0. -1.
         -3    1    1    2    0  502 -0.77036075543E+02 -0.35437532423E+02 -0.54986775053E+03  0.55636761113E+03  0.00000000000E+00 0. -1.
<mgrwt>
<rscale>  4 0.24159440E+03</rscale>
<asrwt>0</asrwt>
<pdfrwt beam="1">  1       21 0.28882380E-01 0.24159440E+03</pdfrwt>
<pdfrwt beam="2">  1       -3 0.13523520E+00 0.24159440E+03</pdfrwt>
<totfact> 0.24856496E+02</totfact>
</mgrwt>
</event>
<event>
 5    0  0.3888462E+000  0.2844742E+03  0.7546771E-02  0.1093270E+00
          2   -1    0    0  503    0 -0.00000000000E+00  0.00000000000E+00  0.18178983423E+04  0.18178983423E+04  0.00000000000E+00 0. -1.
         21   -1    0    0  501  502  0.00000000000E+00 -0.00000000000E+00 -0.57377640065E+02  0.57377640065E+02  0.00000000000E+00 0. -1.
         25    1    1    2    0    0  0.24871594230E+03 -0.11669917518E+03  0.83370623824E+03  0.88666194749E+03  0.12500000000E+03 0.  0.
         21    1    1    2  503  502 -0.21093921720E+03  0.12432468357E+03  0.46798101750E+03  0.52816494870E+03  0.00000000000E+00 0. -1.
          2    1    1    2  501    0 -0.37776725094E+02 -0.76255083830E+01  0.45883344654E+03  0.46044908622E+03  0.00000000000E+00 0. -1.
<mgrwt>
<rscale>  4 0.28447420E+03</rscale>
<asrwt>0</asrwt>
<pdfrwt beam="1">  1       21 0.88273306E-02 0.28447420E+03</pdfrwt>
<pdfrwt beam="2">  1        2 0.27967662E+00 0.28447420E+03</pdfrwt>
<totfact> 0.11740959E+04</totfact>
</mgrwt>
</event>
<event>
 5    0  0.3888462E+000  0.5039470E+03  0.7546771E-02  0.1012754E+00
         -3   -1    0    0    0  501 -0.00000000000E+00  0.00000000000E+00  0.17279043029E+04  0.17279043029E+04  0.00000000000E+00 0. -1.
         21   -1    0    0  503  502  0.00000000000E+00 -0.00000000000E+00 -0.10476579618E+04  0.10476579618E+04  0.00000000000E+00 0. -1.
         25    1    1    2    0    0  0.19178068288E+03  0.33652666973E+03  0.42556700888E+02  0.40922622418E+03  0.12500000000E+03 0.  0.
         21    1    1    2  503  501 -0.51721961540E+00 -0.54216345656E+03 -0.76398154992E+03  0.93680803251E+03  0.00000000000E+00 0. -1.
         -3    1    1    2    0  502 -0.19126346326E+03  0.20563678683E+03  0.14016711901E+04  0.14295280080E+04  0.00000000000E+00 0. -1.
<mgrwt>
<rscale>  4 0.50394699E+03</rscale>
<asrwt>0</asrwt>
<pdfrwt beam="1">  1       21 0.16117815E+00 0.50394699E+03</pdfrwt>
<pdfrwt beam="2">  1       -3 0.26583143E+00 0.50394699E+03</pdfrwt>
<totfact> 0.67402071E-01</totfact>
</mgrwt>
</event>
<event>
 5    0  0.3888462E+000  0.2379082E+03  0.7546771E-02  0.1121194E+00
         21   -1    0    0  501  502  0.00000000000E+00  0.00000000000E+00  0.52181907422E+02  0.52181907422E+02  0.00000000000E+00 0. -1.
          2   -1    0    0  503    0 -0.00000000000E+00 -0.00000000000E+00 -0.15428533372E+04  0.15428533372E+04  0.00000000000E+00 0. -1.
         25    1    1    2    0    0 -0.86052928771E+02  0.18652047238E+03 -0.42641954191E+03  0.48954429717E+03  0.12500000000E+03 0.  0.
         21    1    1    2  503  502  0.12379589237E+03 -0.15942487818E+03 -0.49820786226E+03  0.53754329013E+03  0.00000000000E+00 0. -1.
          2    1    1    2  501    0 -0.37742963601E+02 -0.27095594199E+02 -0.56604402560E+03  0.56794765731E+03  0.00000000000E+00 0. -1.
<mgrwt>
<rscale>  4 0.23790819E+03</rscale>
<asrwt>0</asrwt>
<pdfrwt beam="1">  1       21 0.80279877E-02 0.23790819E+03</pdfrwt>
<pdfrwt beam="2">  1        2 0.23736199E+00 0.23790819E+03</pdfrwt>
<totfact> 0.19621045E+04</totfact>
</mgrwt>
</event>
<event>
 5    0  0.3888462E+000  0.2677252E+03  0.7546771E-02  0.1102589E+00
          2   -1    0    0  503    0 -0.00000000000E+00  0.00000000000E+00  0.80140666934E+03  0.80140666934E+03  0.00000000000E+00 0. -1.
         21   -1    0    0  501  502  0.00000000000E+00 -0.00000000000E+00 -0.58380253787E+03  0.58380253787E+03  0.00000000000E+00 0.  1.
         25    1    1    2    0    0 -0.24229036419E+03  0.28261625827E+02 -0.48457515525E+03  0.55672382844E+03  0.12500000000E+03 0.  0.
         21    1    1    2  503  502  0.20537239550E+03  0.20454116611E+02  0.11136431960E+03  0.23451695759E+03  0.00000000000E+00 0.  1.
          2    1    1    2  501    0  0.36917968687E+02 -0.48715742438E+02  0.59081496713E+03  0.59396842118E+03  0.00000000000E+00 0. -1.
<mgrwt>
<rscale>  4 0.26772516E+03</rscale>
<asrwt>0</asrwt>
<pdfrwt beam="1">  1       21 0.89815776E-01 0.26772516E+03</pdfrwt>
<pdfrwt beam="2">  1        2 0.12329333E+00 0.26772516E+03</pdfrwt>
<totfact> 0.45221037E+02</totfact>
</mgrwt>
</event>
<event>
 5    0  0.3888462E+000  0.3017343E+03  0.7546771E-02  0.1084377E+00
         21   -1    0    0  501  502  0.00000000000E+00  0.00000000000E+00  0.55883758544E+03  0.55883758544E+03  0.00000000000E+00 0. -1.
          1   -1    0    0  503    0 -0.00000000000E+00 -0.00000000000E+00 -0.23399856320E+03  0.23399856320E+03  0.00000000000E+00 0. -1.
         25    1    1    2    0    0  0.24295192620E+03  0.10316919561E+03  0.31724622618E+03  0.43120724645E+03  0.12500000000E+03 0.  0.
         21    1    1    2  503  502 -0.27390657712E+03 -0.11686977398E+03  0.55543805641E+02  0.30293311375E+03  0.00000000000E+00 0. -1.
          1    1    1    2  501    0  0.30954650923E+02  0.13700578367E+02 -0.47951009583E+02  0.58695788446E+02  0.00000000000E+00 0. -1.
<mgrwt>
<rscale>  4 0.30173433E+03</rscale>
<asrwt>0</asrwt>
<pdfrwt beam="1">  1       21 0.85975013E-01 0.30173433E+03</pdfrwt>
<pdfrwt beam="2">  1        1 0.35999779E-01 0.30173433E+03</pdfrwt>
<totfact> 0.14650329E+03</totfact>
</mgrwt>
</event>
<event>
 5    0  0.3888462E+000  0.3109051E+03  0.7546771E-02  0.1079913E+00
          2   -1    0    0  503    0 -0.00000000000E+00  0.00000000000E+00  0.45962431779E+03  0.45962431779E+03  0.00000000000E+00 0.  1.
         21   -1    0    0  501  502  0.00000000000E+00 -0.00000000000E+00 -0.38335772579E+03  0.38335772579E+03  0.00000000000E+00 0. -1.
         25    1    1    2    0    0  0.10332443418E+03 -0.33240293174E+03 -0.27436280275E+02  0.37087113288E+03  0.12500000000E+03 0.  0.
         21    1    1    2  503  502  0.10010670199E+03  0.17771380153E+03  0.61864093527E+02  0.21314481721E+03  0.00000000000E+00 0. -1.
          2    1    1    2  501    0 -0.20343113617E+03  0.15468913021E+03  0.41838778741E+02  0.25896609349E+03  0.00000000000E+00 0.  1.
<mgrwt>
<rscale>  4 0.31090509E+03</rscale>
<asrwt>0</asrwt>
<pdfrwt beam="1">  1       21 0.58978112E-01 0.31090509E+03</pdfrwt>
<pdfrwt beam="2">  1        2 0.70711434E-01 0.31090509E+03</pdfrwt>
<totfact> 0.22078251E+03</totfact>
</mgrwt>
</event>
<event>
 5    0  0.3888462E+000  0.2463142E+03  0.7546771E-02  0.1115657E+00
          1   -1    0    0  503    0 -0.00000000000E+00  0.00000000000E+00  0.28148282481E+03  0.28148282481E+03  0.00000000000E+00 0.  1.
         21   -1    0    0  501  502  0.00000000000E+00 -0.00000000000E+00 -0.39289027520E+03  0.39289027520E+03  0.00000000000E+00 0.  1.
         25    1    1    2    0    0  0.27799098040E+02  0.21463775232E+03 -0.24751508959E+03  0.35175399663E+03  0.12500000000E+03 0.  0.
         21    1    1    2  503  502  0.16227133734E+01 -0.20435722991E+03  0.23420268115E+02  0.20570128725E+03  0.00000000000E+00 0.  1.
          1    1    1    2  501    0 -0.29421811414E+02 -0.10280522406E+02  0.11268737108E+03  0.11691781613E+03  0.00000000000E+00 0.  1.
<mgrwt>
<rscale>  4 0.24631416E+03</rscale>
<asrwt>0</asrwt>
<pdfrwt beam="1">  1       21 0.60444658E-01 0.24631416E+03</pdfrwt>
<pdfrwt beam="2">  1        1 0.43305050E-01 0.24631416E+03</pdfrwt>
<totfact> 0.25967536E+03</totfact>
</mgrwt>
</event>
<event>
 5    0  0.3888462E+000  0.3103309E+03  0.7546771E-02  0.1080187E+00
          1   -1    0    0  503    0 -0.00000000000E+00  0.00000000000E+00  0.42939686277E+04  0.42939686277E+04  0.00000000000E+00 0.  1.
         21   -1    0    0  501  502  0.00000000000E+00 -0.00000000000E+00 -0.97371066854E+02  0.97371066854E+02  0.00000000000E+00 0.  1.
         25    1    1    2    0    0 -0.28448398682E+03 -0.79373786043E+02  0.19682001639E+03  0.37629038723E+03  0.12500000000E+03 0.  0.
         21    1    1    2  503  502  0.12271708039E+03  0.64020313751E+02  0.85977421306E+03  0.87084429139E+03  0.00000000000E+00 0.  1.
          1    1    1    2  501    0  0.16176690642E+03  0.15353472291E+02  0.31400033314E+04  0.31442050159E+04  0.00000000000E+00 0.  1.
<mgrwt>
<rscale>  4 0.31033092E+03</rscale>
<asrwt>0</asrwt>
<pdfrwt beam="1">  1       21 0.14980167E-01 0.31033092E+03</pdfrwt>
<pdfrwt beam="2">  1        1 0.66061041E+00 0.31033092E+03</pdfrwt>
<totfact> 0.29057715E+01</totfact>
</mgrwt>
</event>
<event>
 5    0  0.3888462E+000  0.1778378E+03  0.7546771E-02  0.1169912E+00
         21   -1    0    0  501  502  0.00000000000E+00  0.00000000000E+00  0.51758890795E+03  0.51758890795E+03  0.00000000000E+00 0. -1.
          2   -1    0    0  503    0 -0.00000000000E+00 -0.00000000000E+00 -0.75463451982E+03  0.75463451982E+03  0.00000000000E+00 0.  1.
         25    1    1    2    0    0 -0.19485793110E+03 -0.64018787857E+02  0.30245385285E+03  0.38622707261E+03  0.12500000000E+03 0.  0.
         21    1    1    2  503  502  0.75459364427E+02  0.26269770824E+02  0.15815499734E+03  0.17719260628E+03  0.00000000000E+00 0. -1.
          2    1    1    2  501    0  0.11939856668E+03  0.37749017033E+02 -0.69765446205E+03  0.70880374888E+03  0.00000000000E+00 0.  1.
<mgrwt>
<rscale>  4 0.17783785E+03</rscale>
<asrwt>0</asrwt>
<pdfrwt beam="1">  1       21 0.79629063E-01 0.17783785E+03</pdfrwt>
<pdfrwt beam="2">  1        2 0.11609762E+00 0.17783785E+03</pdfrwt>
<totfact> 0.67732991E+02</totfact>
</mgrwt>
</event>
<event>
 5    0  0.3888462E+000  0.2583946E+03  0.7546771E-02  0.1108112E+00
         -4   -1    0    0    0  501 -0.00000000000E+00  0.00000000000E+00  0.12853963730E+04  0.12853963730E+04  0.00000000000E+00 0.  1.
         21   -1    0    0  503  502  0.00000000000E+00 -0.00000000000E+00 -0.12707275685E+03  0.12707275685E+03  0.00000000000E+00 0.  1.
         25    1    1    2    0    0  0.12069647276E+03  0.16854114468E+03  0.82910472661E+03  0.86372067457E+03  0.12500000000E+03 0.  0.
         21    1    1    2  503  501 -0.13385158432E+03 -0.18557624798E+03  0.10236296160E+02  0.22904054706E+03  0.00000000000E+00 0.  1.
         -4    1    1    2    0  502  0.13155111560E+02  0.17035103298E+02  0.31898259334E+03  0.31970790819E+03  0.00000000000E+00 0.  1.
<mgrwt>
<rscale>  4 0.25839457E+03</rscale>
<asrwt>0</asrwt>
<pdfrwt beam="1">  1       21 0.19549656E-01 0.25839457E+03</pdfrwt>
<pdfrwt beam="2">  1       -4 0.19775328E+00 0.25839457E+03</pdfrwt>
<totfact> 0.14982648E+02</totfact>
</mgrwt>
</event>
