<event>
 5    0  0.1911311E+001  0.3099639E+03  0.7546771E-02  0.1080363E+00
         21   -1    0    0  502  501  0.00000000000E+00  0.00000000000E+00  0.44467122716E+03  0.44467122716E+03  0.00000000000E+00 0. -1.
         21   -1    0    0  504  502 -0.00000000000E+00 -0.00000000000E+00 -0.46981996004E+03  0.46981996004E+03  0.00000000000E+00 0. -1.
         25    1    1    2    0    0 -0.28389311562E+03 -0.30158087110E+02 -0.34928759237E+03  0.46811497893E+03  0.12500000000E+03 0.  0.
         21    1    1    2  503  501  0.26806720339E+03  0.52019081053E+02  0.31712703483E+03  0.41849201491E+03  0.00000000000E+00 0. -1.
         21    1    1    2  504  503  0.15825912230E+02 -0.21860993943E+02  0.70118246675E+01  0.27884193359E+02  0.00000000000E+00 0. -1.
<mgrwt>
<rscale>  4 0.30996392E+03</rscale>
<asrwt>0</asrwt>
<pdfrwt beam="1">  1       21 0.68410958E-01 0.30996392E+03</pdfrwt>
<pdfrwt beam="2">  1       21 0.72279994E-01 0.30996392E+03</pdfrwt>
<totfact> 0.31100656E+03</totfact>
</mgrwt>
</event>
<event>
 5    0  0.1911311E+001  0.2604048E+03  0.7546771E-02  0.1106900E+00
         21   -1    0    0  504  501  0.00000000000E+00  0.00000000000E+00  0.28776380548E+04  0.28776380548E+04  0.00000000000E+00 0.  1.
         21   -1    0    0  503  502 -0.00000000000E+00 -0.00000000000E+00 -0.91692344530E+02  0.91692344530E+02  0.00000000000E+00 0.  1.
         25    1    1    2    0    0  0.24120009686E+03  0.16545777609E+03  0.10109384902E+04  0.10597996949E+04  0.12500000000E+03 0.  0.
         21    1    1    2  503  501 -0.71002781742E+02 -0.21385216754E+03  0.14065408819E+03  0.26562702630E+03  0.00000000000E+00 0.  1.
         21    1    1    2  504  502 -0.17019731511E+03  0.48394391449E+02  0.16343531319E+04  0.16439036781E+04  0.00000000000E+00 0.  1.
<mgrwt>
<rscale>  4 0.26040482E+03</rscale>
<asrwt>0</asrwt>
<pdfrwt beam="1">  1       21 0.44271348E+00 0.26040482E+03</pdfrwt>
<pdfrwt beam="2">  1       21 0.14106517E-01 0.26040482E+03</pdfrwt>
<totfact> 0.18388178E+02</totfact>
</mgrwt>
</event>
<event>
 5    0  0.1911311E+001  0.2256923E+03  0.7546771E-02  0.1129709E+00
         21   -1    0    0  502  501  0.00000000000E+00  0.00000000000E+00  0.31039157214E+02  0.31039157214E+02  0.00000000000E+00 0.  1.
         21   -1    0    0  504  502 -0.00000000000E+00 -0.00000000000E+00 -0.21499554150E+04  0.21499554150E+04  0.00000000000E+00 0.  1.
         25    1    1    2    0    0  0.20366801391E+03  0.44696720250E+01 -0.97490979936E+03  0.10037802323E+04  0.12500000000E+03 0.  0.
         21    1    1    2  503  501 -0.17975839181E+03 -0.10249129501E+02 -0.47850451703E+03  0.51125795534E+03  0.00000000000E+00 0.  1.
         21    1    1    2  504  503 -0.23909622097E+02  0.57794574764E+01 -0.66550194141E+03  0.66595638460E+03  0.00000000000E+00 0.  1.
<mgrwt>
<rscale>  4 0.22569227E+03</rscale>
<asrwt>0</asrwt>
<pdfrwt beam="1">  1       21 0.47752533E-02 0.22569227E+03</pdfrwt>
<pdfrwt beam="2">  1       21 0.33076249E+00 0.22569227E+03</pdfrwt>
<totfact> 0.63509391E+03</totfact>
</mgrwt>
</event>
<event>
 5    0  0.1911311E+001  0.2642284E+03  0.7546771E-02  0.1104629E+00
         21   -1    0    0  504  501  0.00000000000E+00  0.00000000000E+00  0.39060318274E+03  0.39060318274E+03  0.00000000000E+00 0.  1.
         21   -1    0    0  503  502 -0.00000000000E+00 -0.00000000000E+00 -0.29228973155E+03  0.29228973155E+03  0.00000000000E+00 0.  1.
         25    1    1    2    0    0 -0.93162952897E+02  0.24881778662E+03  0.62615796410E+02  0.30022552305E+03  0.12500000000E+03 0.  0.
         21    1    1    2  503  501 -0.20906459725E+02 -0.22427084313E+03 -0.58491793487E+02  0.23271394681E+03  0.00000000000E+00 0.  1.
         21    1    1    2  504  502  0.11406941262E+03 -0.24546943491E+02  0.94189448274E+02  0.14995344443E+03  0.00000000000E+00 0.  1.
<mgrwt>
<rscale>  4 0.26422844E+03</rscale>
<asrwt>0</asrwt>
<pdfrwt beam="1">  1       21 0.60092798E-01 0.26422844E+03</pdfrwt>
<pdfrwt beam="2">  1       21 0.44967651E-01 0.26422844E+03</pdfrwt>
<totfact> 0.11752207E+04</totfact>
</mgrwt>
</event>
