<event>
 5    0  0.2465569E-003  0.1248545E+04  0.7546771E-02  0.9071395E-01
          1   -1    0    0  502    0  0.00000000000E+00  0.00000000000E+00  0.11777260880E+04  0.11777260880E+04  0.00000000000E+00 0. -1.
         -1   -1    0    0    0  501 -0.00000000000E+00 -0.00000000000E+00 -0.39032870141E+03  0.39032870141E+03  0.00000000000E+00 0.  1.
         25    1    1    2    0    0 -0.29864155373E+03 -0.38582838018E+03 -0.51025189113E+02  0.50623994952E+03  0.12500000000E+03 0.  0.
         21    1    1    2  502  503  0.29055919065E+03  0.34669064151E+03  0.88893284641E+03  0.99740696289E+03  0.00000000000E+00 0. -1.
         21    1    1    2  503  501  0.80823630787E+01  0.39137738674E+02 -0.50510270675E+02  0.64407877042E+02  0.00000000000E+00 0. -1.
<mgrwt>
<rscale>  4 0.12485451E+04</rscale>
<asrwt>0</asrwt>
<pdfrwt beam="1">  1        1 0.18118863E+00 0.12485451E+04</pdfrwt>
<pdfrwt beam="2">  1       -1 0.60050570E-01 0.12485451E+04</pdfrwt>
<totfact> 0.30733640E+01</totfact>
</mgrwt>
</event>
<event>
 5    0  0.2465569E-003  0.5369551E+03  0.7546771E-02  0.1004559E+00
         -2   -1    0    0    0  501 -0.00000000000E+00  0.00000000000E+00  0.14813056782E+03  0.14813056782E+03  0.00000000000E+00 0.  1.
          2   -1    0    0  502    0  0.00000000000E+00 -0.00000000000E+00 -0.12743879621E+04  0.12743879621E+04  0.00000000000E+00 0. -1.
         25    1    1    2    0    0  0.20991445648E+03  0.10990693285E+03 -0.60317187781E+03  0.65998858105E+03  0.12500000000E+03 0.  0.
         21    1    1    2  502  503 -0.15715622777E+03 -0.21817535356E+03 -0.57238273310E+03  0.63239272448E+03  0.00000000000E+00 0. -1.
         21    1    1    2  503  501 -0.52758228714E+02  0.10826842071E+03  0.49297216588E+02  0.13013722443E+03  0.00000000000E+00 0.  1.
<mgrwt>
<rscale>  4 0.53695512E+03</rscale>
<asrwt>0</asrwt>
<pdfrwt beam="1">  1        2 0.19605970E+00 0.53695512E+03</pdfrwt>
<pdfrwt beam="2">  1       -2 0.22789317E-01 0.53695512E+03</pdfrwt>
<totfact> 0.29713950E+02</totfact>
</mgrwt>
</event>
<event>
 5    0  0.2465569E-003  0.5202526E+03  0.7546771E-02  0.1008624E+00
          1   -1    0    0  502    0  0.00000000000E+00  0.00000000000E+00  0.22705167786E+03  0.22705167786E+03  0.00000000000E+00 0. -1.
         -1   -1    0    0    0  501 -0.00000000000E+00 -0.00000000000E+00 -0.63267344053E+03  0.63267344053E+03  0.00000000000E+00 0.  1.
         25    1    1    2    0    0  0.51823764671E+02  0.31099398030E+03 -0.34724592199E+03  0.48539436410E+03  0.12500000000E+03 0.  0.
         21    1    1    2  502  503 -0.18553422945E+02 -0.13600954445E+03  0.70655840026E+02  0.15438611794E+03  0.00000000000E+00 0. -1.
         21    1    1    2  503  501 -0.33270341726E+02 -0.17498443585E+03 -0.12903168070E+03  0.21994463634E+03  0.00000000000E+00 0. -1.
<mgrwt>
<rscale>  4 0.52025258E+03</rscale>
<asrwt>0</asrwt>
<pdfrwt beam="1">  1        1 0.34931028E-01 0.52025258E+03</pdfrwt>
<pdfrwt beam="2">  1       -1 0.97334375E-01 0.52025258E+03</pdfrwt>
<totfact> 0.13149259E+02</totfact>
</mgrwt>
</event>
<event>
 5    0  0.2465569E-003  0.8425062E+03  0.7546771E-02  0.9500450E-01
          2   -1    0    0  503    0  0.00000000000E+00  0.00000000000E+00  0.18465418432E+04  0.18465418432E+04  0.00000000000E+00 0.  1.
         -2   -1    0    0    0  501 -0.00000000000E+00 -0.00000000000E+00 -0.11651445423E+03  0.11651445423E+03  0.00000000000E+00 0. -1.
         25    1    1    2    0    0  0.52386350768E+02  0.22832762273E+03  0.14359937548E+04  0.14603358849E+04  0.12500000000E+03 0.  0.
         21    1    1    2  502  501 -0.13302835981E+03 -0.22638022935E+03  0.80776317395E+02  0.27471688373E+03  0.00000000000E+00 0. -1.
         21    1    1    2  503  502  0.80642009045E+02 -0.19473933719E+01  0.21325731681E+03  0.22800352878E+03  0.00000000000E+00 0. -1.
<mgrwt>
<rscale>  4 0.84250618E+03</rscale>
<asrwt>0</asrwt>
<pdfrwt beam="1">  1        2 0.28408334E+00 0.84250618E+03</pdfrwt>
<pdfrwt beam="2">  1       -2 0.17925302E-01 0.84250618E+03</pdfrwt>
<totfact> 0.21273593E+02</totfact>
</mgrwt>
</event>
<event>
 5    0  0.2465569E-003  0.6512090E+03  0.7546771E-02  0.9804513E-01
          2   -1    0    0  503    0  0.00000000000E+00  0.00000000000E+00  0.10763311783E+04  0.10763311783E+04  0.00000000000E+00 0.  1.
         -2   -1    0    0    0  501 -0.00000000000E+00 -0.00000000000E+00 -0.15974551877E+03  0.15974551877E+03  0.00000000000E+00 0. -1.
         25    1    1    2    0    0 -0.25639921579E+03  0.15962505004E+03  0.36950729844E+03  0.49333696199E+03  0.12500000000E+03 0.  0.
         21    1    1    2  502  501 -0.67829236343E+02 -0.16282284942E+03  0.16386381042E+03  0.24075596350E+03  0.00000000000E+00 0.  1.
         21    1    1    2  503  502  0.32422845213E+03  0.31977993746E+01  0.38321455069E+03  0.50198377161E+03  0.00000000000E+00 0. -1.
<mgrwt>
<rscale>  4 0.65120901E+03</rscale>
<asrwt>0</asrwt>
<pdfrwt beam="1">  1        2 0.16558941E+00 0.65120901E+03</pdfrwt>
<pdfrwt beam="2">  1       -2 0.24576234E-01 0.65120901E+03</pdfrwt>
<totfact> 0.33759877E+02</totfact>
</mgrwt>
</event>
<event>
 5    0  0.2465569E-003  0.6028067E+03  0.7546771E-02  0.9899600E-01
         -4   -1    0    0    0  501 -0.00000000000E+00  0.00000000000E+00  0.15892798740E+03  0.15892798740E+03  0.00000000000E+00 0.  1.
          4   -1    0    0  502    0  0.00000000000E+00 -0.00000000000E+00 -0.13385885025E+04  0.13385885025E+04  0.00000000000E+00 0. -1.
         25    1    1    2    0    0  0.96481508987E+02  0.18098710584E+03 -0.25662561460E+03  0.35149213380E+03  0.12500000000E+03 0.  0.
         21    1    1    2  502  503  0.32733866817E+02 -0.30877770315E+03 -0.91261504586E+03  0.96399242628E+03  0.00000000000E+00 0. -1.
         21    1    1    2  503  501 -0.12921537580E+03  0.12779059730E+03 -0.10419854643E+02  0.18203192982E+03  0.00000000000E+00 0.  1.
<mgrwt>
<rscale>  4 0.60280669E+03</rscale>
<asrwt>0</asrwt>
<pdfrwt beam="1">  1        4 0.20593670E+00 0.60280669E+03</pdfrwt>
<pdfrwt beam="2">  1       -4 0.24450459E-01 0.60280669E+03</pdfrwt>
<totfact> 0.38139484E+00</totfact>
</mgrwt>
</event>
<event>
 5    0  0.2465569E-003  0.1066867E+04  0.7546771E-02  0.9238102E-01
          2   -1    0    0  502    0  0.00000000000E+00  0.00000000000E+00  0.18034068543E+04  0.18034068543E+04  0.00000000000E+00 0.  1.
         -2   -1    0    0    0  501 -0.00000000000E+00 -0.00000000000E+00 -0.28481363444E+03  0.28481363444E+03  0.00000000000E+00 0. -1.
         25    1    1    2    0    0  0.29364613009E+03 -0.49557387453E+02  0.20922147578E+01  0.32297579124E+03  0.12500000000E+03 0.  0.
         21    1    1    2  502  503 -0.11780245804E+03  0.26364306616E+03  0.14524707038E+04  0.14808971034E+04  0.00000000000E+00 0.  1.
         21    1    1    2  503  501 -0.17584367204E+03 -0.21408567871E+03  0.64030301390E+02  0.28434759419E+03  0.00000000000E+00 0.  1.
<mgrwt>
<rscale>  4 0.10668665E+04</rscale>
<asrwt>0</asrwt>
<pdfrwt beam="1">  1        2 0.27744720E+00 0.10668665E+04</pdfrwt>
<pdfrwt beam="2">  1       -2 0.43817483E-01 0.10668665E+04</pdfrwt>
<totfact> 0.42265210E+01</totfact>
</mgrwt>
</event>
<event>
 5    0  0.2465569E-003  0.8283576E+03  0.7546771E-02  0.9519854E-01
          1   -1    0    0  502    0  0.00000000000E+00  0.00000000000E+00  0.14616862349E+04  0.14616862349E+04  0.00000000000E+00 0. -1.
         -1   -1    0    0    0  501 -0.00000000000E+00 -0.00000000000E+00 -0.21841873129E+03  0.21841873129E+03  0.00000000000E+00 0.  1.
         25    1    1    2    0    0  0.30031423693E+03 -0.22064210525E+03  0.38073834582E+03  0.54722780219E+03  0.12500000000E+03 0.  0.
         21    1    1    2  502  503  0.41977899489E+02 -0.18376783964E+02  0.67270301646E+03  0.67426196585E+03  0.00000000000E+00 0. -1.
         21    1    1    2  503  501 -0.34229213642E+03  0.23901888922E+03  0.18982614137E+03  0.45861519818E+03  0.00000000000E+00 0.  1.
<mgrwt>
<rscale>  4 0.82835760E+03</rscale>
<asrwt>0</asrwt>
<pdfrwt beam="1">  1        1 0.22487480E+00 0.82835760E+03</pdfrwt>
<pdfrwt beam="2">  1       -1 0.33602883E-01 0.82835760E+03</pdfrwt>
<totfact> 0.59120072E+01</totfact>
</mgrwt>
</event>
<event>
 5    0  0.2465569E-003  0.5028336E+03  0.7546771E-02  0.1013042E+00
         -3   -1    0    0    0  501 -0.00000000000E+00  0.00000000000E+00  0.10125885543E+04  0.10125885543E+04  0.00000000000E+00 0.  1.
          3   -1    0    0  503    0  0.00000000000E+00 -0.00000000000E+00 -0.16513614492E+03  0.16513614492E+03  0.00000000000E+00 0. -1.
         25    1    1    2    0    0 -0.86382148654E+02 -0.25279736340E+03  0.19080685607E+03  0.35128427074E+03  0.12500000000E+03 0.  0.
         21    1    1    2  502  501 -0.97320316061E+02  0.16219585824E+03  0.57607467067E+03  0.60633387382E+03  0.00000000000E+00 0.  1.
         21    1    1    2  503  502  0.18370246471E+03  0.90601505161E+02  0.80570882660E+02  0.22010655468E+03  0.00000000000E+00 0.  1.
<mgrwt>
<rscale>  4 0.50283357E+03</rscale>
<asrwt>0</asrwt>
<pdfrwt beam="1">  1        3 0.25405561E-01 0.50283357E+03</pdfrwt>
<pdfrwt beam="2">  1       -3 0.15578285E+00 0.50283357E+03</pdfrwt>
<totfact> 0.11365280E+01</totfact>
</mgrwt>
</event>
<event>
 5    0  0.2465569E-003  0.6471289E+03  0.7546771E-02  0.9812182E-01
          1   -1    0    0  502    0  0.00000000000E+00  0.00000000000E+00  0.88442345633E+03  0.88442345633E+03  0.00000000000E+00 0. -1.
         -1   -1    0    0    0  501 -0.00000000000E+00 -0.00000000000E+00 -0.15308499548E+03  0.15308499548E+03  0.00000000000E+00 0.  1.
         25    1    1    2    0    0 -0.31985138625E+03  0.64189865235E+02  0.29575264532E+03  0.45773341073E+03  0.12500000000E+03 0.  0.
         21    1    1    2  502  503  0.24868721907E+02 -0.82346033841E+02  0.11697328726E+03  0.14519666853E+03  0.00000000000E+00 0. -1.
         21    1    1    2  503  501  0.29498266434E+03  0.18156168606E+02  0.31861252828E+03  0.43457837256E+03  0.00000000000E+00 0.  1.
<mgrwt>
<rscale>  4 0.64712885E+03</rscale>
<asrwt>0</asrwt>
<pdfrwt beam="1">  1        1 0.13606514E+00 0.64712885E+03</pdfrwt>
<pdfrwt beam="2">  1       -1 0.23551538E-01 0.64712885E+03</pdfrwt>
<totfact> 0.29538724E+02</totfact>
</mgrwt>
</event>
<event>
 5    0  0.2465569E-003  0.7798270E+03  0.7546771E-02  0.9589685E-01
          2   -1    0    0  502    0  0.00000000000E+00  0.00000000000E+00  0.26700159758E+03  0.26700159758E+03  0.00000000000E+00 0. -1.
         -2   -1    0    0    0  501 -0.00000000000E+00 -0.00000000000E+00 -0.68249543192E+03  0.68249543192E+03  0.00000000000E+00 0.  1.
         25    1    1    2    0    0  0.42215534526E+02 -0.23504085945E+03 -0.49241097641E+03  0.56135543701E+03  0.12500000000E+03 0.  0.
         21    1    1    2  502  503  0.23018674440E+02  0.26259446205E+03  0.13536079747E+03  0.29632457941E+03  0.00000000000E+00 0. -1.
         21    1    1    2  503  501 -0.65234208966E+02 -0.27553602593E+02 -0.58443655399E+02  0.91817013084E+02  0.00000000000E+00 0. -1.
<mgrwt>
<rscale>  4 0.77982702E+03</rscale>
<asrwt>0</asrwt>
<pdfrwt beam="1">  1        2 0.41077169E-01 0.77982702E+03</pdfrwt>
<pdfrwt beam="2">  1       -2 0.10499930E+00 0.77982702E+03</pdfrwt>
<totfact> 0.92666561E+01</totfact>
</mgrwt>
</event>
<event>
 5    0  0.2465569E-003  0.1122521E+04  0.7546771E-02  0.9183515E-01
          1   -1    0    0  502    0  0.00000000000E+00  0.00000000000E+00  0.48334963017E+03  0.48334963017E+03  0.00000000000E+00 0. -1.
         -1   -1    0    0    0  501 -0.00000000000E+00 -0.00000000000E+00 -0.11310260384E+04  0.11310260384E+04  0.00000000000E+00 0.  1.
         25    1    1    2    0    0 -0.30805747946E+03  0.27476174017E+03 -0.22722972615E+03  0.48749540814E+03  0.12500000000E+03 0.  0.
         21    1    1    2  502  503  0.36450637813E+03 -0.58641107732E+03 -0.42377803531E+03  0.81014237916E+03  0.00000000000E+00 0.  1.
         21    1    1    2  503  501 -0.56448898673E+02  0.31164933715E+03  0.33313532457E+01  0.31673788126E+03  0.00000000000E+00 0. -1.
<mgrwt>
<rscale>  4 0.11225207E+04</rscale>
<asrwt>0</asrwt>
<pdfrwt beam="1">  1        1 0.74361482E-01 0.11225207E+04</pdfrwt>
<pdfrwt beam="2">  1       -1 0.17400400E+00 0.11225207E+04</pdfrwt>
<totfact> 0.10607550E+01</totfact>
</mgrwt>
</event>
<event>
 5    0  0.2465569E-003  0.1822874E+04  0.7546771E-02  0.8694229E-01
          1   -1    0    0  503    0  0.00000000000E+00  0.00000000000E+00  0.20759808184E+04  0.20759808184E+04  0.00000000000E+00 0.  1.
         -1   -1    0    0    0  501 -0.00000000000E+00 -0.00000000000E+00 -0.71505661335E+03  0.71505661335E+03  0.00000000000E+00 0. -1.
         25    1    1    2    0    0 -0.63341976224E+03 -0.27144110554E+03  0.55655946834E+03  0.89458611144E+03  0.12500000000E+03 0.  0.
         21    1    1    2  502  501 -0.20966076294E+03 -0.46853452262E+03 -0.47603534176E+01  0.51332727900E+03  0.00000000000E+00 0. -1.
         21    1    1    2  503  502  0.84308052518E+03  0.73997562816E+03  0.80912509014E+03  0.13831240413E+04  0.00000000000E+00 0. -1.
<mgrwt>
<rscale>  4 0.18228739E+04</rscale>
<asrwt>0</asrwt>
<pdfrwt beam="1">  1        1 0.31938166E+00 0.18228739E+04</pdfrwt>
<pdfrwt beam="2">  1       -1 0.11000871E+00 0.18228739E+04</pdfrwt>
<totfact> 0.18765331E+00</totfact>
</mgrwt>
</event>
<event>
 5    0  0.2465569E-003  0.6200409E+03  0.7546771E-02  0.9864678E-01
          2   -1    0    0  503    0  0.00000000000E+00  0.00000000000E+00  0.57790048439E+03  0.57790048439E+03  0.00000000000E+00 0.  1.
         -2   -1    0    0    0  501 -0.00000000000E+00 -0.00000000000E+00 -0.21564500440E+03  0.21564500440E+03  0.00000000000E+00 0. -1.
         25    1    1    2    0    0 -0.96458794256E+02  0.24165476150E+03  0.10349263998E+03  0.30665460909E+03  0.12500000000E+03 0.  0.
         21    1    1    2  502  501  0.72349333707E+02 -0.32036969590E+03  0.18868305625E+03  0.37877759154E+03  0.00000000000E+00 0.  1.
         21    1    1    2  503  502  0.24109460549E+02  0.78714934402E+02  0.70079783750E+02  0.10811328816E+03  0.00000000000E+00 0. -1.
<mgrwt>
<rscale>  4 0.62004086E+03</rscale>
<asrwt>0</asrwt>
<pdfrwt beam="1">  1        2 0.88907766E-01 0.62004086E+03</pdfrwt>
<pdfrwt beam="2">  1       -2 0.33176155E-01 0.62004086E+03</pdfrwt>
<totfact> 0.44429840E+02</totfact>
</mgrwt>
</event>
<event>
 5    0  0.2465569E-003  0.7593165E+03  0.7546771E-02  0.9620846E-01
          1   -1    0    0  502    0  0.00000000000E+00  0.00000000000E+00  0.74316956689E+03  0.74316956689E+03  0.00000000000E+00 0. -1.
         -1   -1    0    0    0  501 -0.00000000000E+00 -0.00000000000E+00 -0.43468579736E+03  0.43468579736E+03  0.00000000000E+00 0.  1.
         25    1    1    2    0    0  0.12870814945E+03 -0.17846000996E+03  0.23041066161E+03  0.34223944231E+03  0.12500000000E+03 0.  0.
         21    1    1    2  502  503 -0.16519505099E+02 -0.63544746712E+02  0.40692179414E+03  0.41218463755E+03  0.00000000000E+00 0. -1.
         21    1    1    2  503  501 -0.11218864435E+03  0.24200475667E+03 -0.32884868622E+03  0.42343128439E+03  0.00000000000E+00 0.  1.
<mgrwt>
<rscale>  4 0.75931655E+03</rscale>
<asrwt>0</asrwt>
<pdfrwt beam="1">  1        1 0.11433378E+00 0.75931655E+03</pdfrwt>
<pdfrwt beam="2">  1       -1 0.66874738E-01 0.75931655E+03</pdfrwt>
<totfact> 0.57460524E+01</totfact>
</mgrwt>
</event>
<event>
 5    0  0.2465569E-003  0.1162964E+04  0.7546771E-02  0.9145906E-01
          2   -1    0    0  502    0  0.00000000000E+00  0.00000000000E+00  0.30565985624E+04  0.30565985624E+04  0.00000000000E+00 0. -1.
         -2   -1    0    0    0  501 -0.00000000000E+00 -0.00000000000E+00 -0.12021367296E+03  0.12021367296E+03  0.00000000000E+00 0.  1.
         25    1    1    2    0    0  0.19859878753E+03  0.34468441706E+03  0.26077012960E+04  0.26408293914E+04  0.12500000000E+03 0.  0.
         21    1    1    2  502  503 -0.30969500162E+02 -0.38460519145E+02  0.11877983766E+03  0.12863503142E+03  0.00000000000E+00 0. -1.
         21    1    1    2  503  501 -0.16762928737E+03 -0.30622389791E+03  0.20990375582E+03  0.40734781250E+03  0.00000000000E+00 0.  1.
<mgrwt>
<rscale>  4 0.11629643E+04</rscale>
<asrwt>0</asrwt>
<pdfrwt beam="1">  1        2 0.47024587E+00 0.11629643E+04</pdfrwt>
<pdfrwt beam="2">  1       -2 0.18494414E-01 0.11629643E+04</pdfrwt>
<totfact> 0.39533883E+01</totfact>
</mgrwt>
</event>
