<event>
 5    0  0.1911311E+001  0.2039147E+03  0.7546771E-02  0.1146478E+00
         21   -1    0    0  504  501  0.00000000000E+00  0.00000000000E+00  0.56337920933E+03  0.56337920933E+03  0.00000000000E+00 0.  1.
         21   -1    0    0  503  502 -0.00000000000E+00 -0.00000000000E+00 -0.13222609636E+04  0.13222609636E+04  0.00000000000E+00 0.  1.
         25    1    1    2    0    0  0.22556902961E+03  0.84738981298E+02  0.12214554816E+03  0.29766863625E+03  0.12500000000E+03 0.  0.
         21    1    1    2  503  501 -0.14661381888E+03 -0.61924483152E+02 -0.12245017061E+04  0.12348014747E+04  0.00000000000E+00 0.  1.
         21    1    1    2  504  502 -0.78955210732E+02 -0.22814498146E+02  0.34347440376E+03  0.35317006197E+03  0.00000000000E+00 0.  1.
<mgrwt>
<rscale>  4 0.20391468E+03</rscale>
<asrwt>0</asrwt>
<pdfrwt beam="1">  1       21 0.86673725E-01 0.20391468E+03</pdfrwt>
<pdfrwt beam="2">  1       21 0.20342476E+00 0.20391468E+03</pdfrwt>
<totfact> 0.14406388E+02</totfact>
</mgrwt>
</event>
<event>
 5    0  0.1911311E+001  0.3148535E+03  0.7546771E-02  0.1078043E+00
         21   -1    0    0  504  501  0.00000000000E+00  0.00000000000E+00  0.67007282843E+03  0.67007282843E+03  0.00000000000E+00 0. -1.
         21   -1    0    0  503  502 -0.00000000000E+00 -0.00000000000E+00 -0.19819702529E+03  0.19819702529E+03  0.00000000000E+00 0. -1.
         25    1    1    2    0    0 -0.21496044432E+03  0.21422606278E+03  0.52368096254E+02  0.33236759184E+03  0.12500000000E+03 0.  0.
         21    1    1    2  503  501  0.40771931520E+01 -0.23140621017E+02 -0.57678622566E+01  0.24194629157E+02  0.00000000000E+00 0. -1.
         21    1    1    2  504  502  0.21088325117E+03 -0.19108544176E+03  0.42527556914E+03  0.51170763272E+03  0.00000000000E+00 0. -1.
<mgrwt>
<rscale>  4 0.31485350E+03</rscale>
<asrwt>0</asrwt>
<pdfrwt beam="1">  1       21 0.10308813E+00 0.31485350E+03</pdfrwt>
<pdfrwt beam="2">  1       21 0.30491850E-01 0.31485350E+03</pdfrwt>
<totfact> 0.73329019E+03</totfact>
</mgrwt>
</event>
<event>
 5    0  0.1911311E+001  0.2821458E+03  0.7546771E-02  0.1094523E+00
         21   -1    0    0  502  501  0.00000000000E+00  0.00000000000E+00  0.30013461095E+03  0.30013461095E+03  0.00000000000E+00 0.  1.
         21   -1    0    0  504  502 -0.00000000000E+00 -0.00000000000E+00 -0.41357453719E+03  0.41357453719E+03  0.00000000000E+00 0.  1.
         25    1    1    2    0    0  0.14479080705E+03  0.22714940969E+03 -0.12348335458E+03  0.32161214372E+03  0.12500000000E+03 0.  0.
         21    1    1    2  503  501 -0.56757258524E+02 -0.24428839857E+03  0.95359887615E+02  0.26831272098E+03  0.00000000000E+00 0.  1.
         21    1    1    2  504  503 -0.88033548526E+02  0.17138988883E+02 -0.85316459273E+02  0.12378428345E+03  0.00000000000E+00 0.  1.
<mgrwt>
<rscale>  4 0.28214581E+03</rscale>
<asrwt>0</asrwt>
<pdfrwt beam="1">  1       21 0.46174555E-01 0.28214581E+03</pdfrwt>
<pdfrwt beam="2">  1       21 0.63626852E-01 0.28214581E+03</pdfrwt>
<totfact> 0.97354492E+03</totfact>
</mgrwt>
</event>
