<event>
 5    0  0.2159162E+000  0.2635692E+03  0.7546771E-02  0.1105018E+00
         21   -1    0    0  502  501  0.00000000000E+00  0.00000000000E+00  0.18317374306E+03  0.18317374306E+03  0.00000000000E+00 0. -1.
         21   -1    0    0  503  502 -0.00000000000E+00 -0.00000000000E+00 -0.44640757467E+03  0.44640757467E+03  0.00000000000E+00 0. -1.
         25    1    1    2    0    0 -0.10668001307E+03  0.20606570873E+03  0.10419071382E+02  0.26377501502E+03  0.12500000000E+03 0.  0.
         21    1    1    2  503  504  0.40559225761E+02 -0.95053849606E+02 -0.70709364719E+02  0.12522020355E+03  0.00000000000E+00 0. -1.
         21    1    1    2  504  501  0.66120787311E+02 -0.11101185912E+03 -0.20294353828E+03  0.24058609916E+03  0.00000000000E+00 0. -1.
<mgrwt>
<rscale>  4 0.26356916E+03</rscale>
<asrwt>0</asrwt>
<pdfrwt beam="1">  1       21 0.28180576E-01 0.26356916E+03</pdfrwt>
<pdfrwt beam="2">  1       21 0.68678089E-01 0.26356916E+03</pdfrwt>
<totfact> 0.22408008E+04</totfact>
</mgrwt>
</event>
<event>
 5    0  0.2159162E+000  0.2306091E+03  0.7546771E-02  0.1126212E+00
         21   -1    0    0  502  501  0.00000000000E+00  0.00000000000E+00  0.44512351281E+02  0.44512351281E+02  0.00000000000E+00 0.  1.
         21   -1    0    0  503  502 -0.00000000000E+00 -0.00000000000E+00 -0.21512249703E+04  0.21512249703E+04  0.00000000000E+00 0.  1.
         25    1    1    2    0    0 -0.19812672162E+03 -0.63836231639E+02 -0.38152496009E+03  0.45223396319E+03  0.12500000000E+03 0.  0.
         21    1    1    2  503  504  0.12091892699E+03  0.10252783331E+03 -0.13002364008E+04  0.13098656578E+04  0.00000000000E+00 0.  1.
         21    1    1    2  504  501  0.77207794632E+02 -0.38691601676E+02 -0.42495125820E+03  0.43363770066E+03  0.00000000000E+00 0.  1.
<mgrwt>
<rscale>  4 0.23060911E+03</rscale>
<asrwt>0</asrwt>
<pdfrwt beam="1">  1       21 0.68480559E-02 0.23060911E+03</pdfrwt>
<pdfrwt beam="2">  1       21 0.33095760E+00 0.23060911E+03</pdfrwt>
<totfact> 0.33962540E+03</totfact>
</mgrwt>
</event>
<event>
 5    0  0.2159162E+000  0.2953288E+03  0.7546771E-02  0.1087599E+00
         21   -1    0    0  502  501  0.00000000000E+00  0.00000000000E+00  0.11158678196E+03  0.11158678196E+03  0.00000000000E+00 0.  1.
         21   -1    0    0  503  502 -0.00000000000E+00 -0.00000000000E+00 -0.18550454284E+04  0.18550454284E+04  0.00000000000E+00 0.  1.
         25    1    1    2    0    0 -0.26531661442E+03  0.34658212669E+02 -0.12354019758E+03  0.32012697170E+03  0.12500000000E+03 0.  0.
         21    1    1    2  503  504  0.12395169742E+03 -0.76822142880E+02 -0.88392816037E+03  0.89587647454E+03  0.00000000000E+00 0.  1.
         21    1    1    2  504  501  0.14136491700E+03  0.42163930210E+02 -0.73599028850E+03  0.75062876413E+03  0.00000000000E+00 0.  1.
<mgrwt>
<rscale>  4 0.29532880E+03</rscale>
<asrwt>0</asrwt>
<pdfrwt beam="1">  1       21 0.17167199E-01 0.29532880E+03</pdfrwt>
<pdfrwt beam="2">  1       21 0.28539158E+00 0.29532880E+03</pdfrwt>
<totfact> 0.11408358E+03</totfact>
</mgrwt>
</event>
<event>
 5    0  0.2888020E+000  0.2485316E+03  0.7546771E-02  0.1114236E+00
         21   -1    0    0  502  501  0.00000000000E+00  0.00000000000E+00  0.48287418980E+03  0.48287418980E+03  0.00000000000E+00 0.  1.
         21   -1    0    0  503  502 -0.00000000000E+00 -0.00000000000E+00 -0.11267509613E+03  0.11267509613E+03  0.00000000000E+00 0.  1.
         25    1    1    2    0    0  0.49973396169E+02 -0.20891534107E+03  0.19772357888E+03  0.31758868636E+03  0.12500000000E+03 0.  0.
         21    1    1    2  503  504 -0.52816022641E+02  0.18820089320E+03  0.16485227371E+03  0.25570565225E+03  0.00000000000E+00 0.  1.
         21    1    1    2  504  501  0.28426264725E+01  0.20714447868E+02  0.76232410746E+01  0.22254947320E+02  0.00000000000E+00 0. -1.
<mgrwt>
<rscale>  4 0.24853161E+03</rscale>
<asrwt>0</asrwt>
<pdfrwt beam="1">  1       21 0.74288336E-01 0.24853161E+03</pdfrwt>
<pdfrwt beam="2">  1       21 0.17334630E-01 0.24853161E+03</pdfrwt>
<totfact> 0.47642590E+04</totfact>
</mgrwt>
</event>
<event>
 5    0  0.2159162E+000  0.2377419E+03  0.7546771E-02  0.1121306E+00
         21   -1    0    0  502  501  0.00000000000E+00  0.00000000000E+00  0.45982733757E+02  0.45982733757E+02  0.00000000000E+00 0. -1.
         21   -1    0    0  503  502 -0.00000000000E+00 -0.00000000000E+00 -0.13641029467E+04  0.13641029467E+04  0.00000000000E+00 0.  1.
         25    1    1    2    0    0 -0.18440110900E+03  0.83020829470E+02 -0.93763234385E+03  0.96730328199E+03  0.12500000000E+03 0.  0.
         21    1    1    2  503  504  0.13090623513E+03 -0.42886465603E+01 -0.23151006964E+03  0.26599200595E+03  0.00000000000E+00 0.  1.
         21    1    1    2  504  501  0.53494873869E+02 -0.78732182910E+02 -0.14897779950E+03  0.17679039256E+03  0.00000000000E+00 0.  1.
<mgrwt>
<rscale>  4 0.23774193E+03</rscale>
<asrwt>0</asrwt>
<pdfrwt beam="1">  1       21 0.70742677E-02 0.23774193E+03</pdfrwt>
<pdfrwt beam="2">  1       21 0.20986196E+00 0.23774193E+03</pdfrwt>
<totfact> 0.16700943E+04</totfact>
</mgrwt>
</event>
<event>
 5    0  0.2159162E+000  0.2908893E+03  0.7546771E-02  0.1089886E+00
         21   -1    0    0  502  501  0.00000000000E+00  0.00000000000E+00  0.82265348599E+02  0.82265348599E+02  0.00000000000E+00 0. -1.
         21   -1    0    0  503  502 -0.00000000000E+00 -0.00000000000E+00 -0.10149089898E+04  0.10149089898E+04  0.00000000000E+00 0. -1.
         25    1    1    2    0    0  0.16490721411E+03 -0.20444355546E+03 -0.61905953425E+03  0.68399653769E+03  0.12500000000E+03 0.  0.
         21    1    1    2  503  504 -0.13909680822E+03  0.13949713431E+03 -0.25327064003E+03  0.32086350625E+03  0.00000000000E+00 0.  1.
         21    1    1    2  504  501 -0.25810405888E+02  0.64946421147E+02 -0.60313466961E+02  0.92314294498E+02  0.00000000000E+00 0. -1.
<mgrwt>
<rscale>  4 0.29088925E+03</rscale>
<asrwt>0</asrwt>
<pdfrwt beam="1">  1       21 0.12656206E-01 0.29088925E+03</pdfrwt>
<pdfrwt beam="2">  1       21 0.15613986E+00 0.29088925E+03</pdfrwt>
<totfact> 0.13506272E+04</totfact>
</mgrwt>
</event>
<event>
 5    0  0.2220208E+000  0.3632655E+03  0.7546771E-02  0.1057298E+00
         21   -1    0    0  502  501  0.00000000000E+00  0.00000000000E+00  0.59722741142E+03  0.59722741142E+03  0.00000000000E+00 0. -1.
         21   -1    0    0  503  502 -0.00000000000E+00 -0.00000000000E+00 -0.27464182061E+03  0.27464182061E+03  0.00000000000E+00 0.  1.
         25    1    1    2    0    0  0.25019947800E+03  0.23181253094E+03  0.37321089224E+03  0.52081493679E+03  0.12500000000E+03 0.  0.
         21    1    1    2  503  504 -0.21255470913E+03 -0.16803136683E+03 -0.22688401817E+02  0.27189852554E+03  0.00000000000E+00 0.  1.
         21    1    1    2  504  501 -0.37644768868E+02 -0.63781164105E+02 -0.27936899614E+02  0.79155769705E+02  0.00000000000E+00 0. -1.
<mgrwt>
<rscale>  4 0.36326551E+03</rscale>
<asrwt>0</asrwt>
<pdfrwt beam="1">  1       21 0.91881140E-01 0.36326551E+03</pdfrwt>
<pdfrwt beam="2">  1       21 0.42252588E-01 0.36326551E+03</pdfrwt>
<totfact> 0.48946853E+03</totfact>
</mgrwt>
</event>
<event>
 5    0  0.2228717E+000  0.2380914E+03  0.7546771E-02  0.1121071E+00
         21   -1    0    0  502  501  0.00000000000E+00  0.00000000000E+00  0.79801133091E+02  0.79801133091E+02  0.00000000000E+00 0.  1.
         21   -1    0    0  503  502 -0.00000000000E+00 -0.00000000000E+00 -0.63511677500E+03  0.63511677500E+03  0.00000000000E+00 0.  1.
         25    1    1    2    0    0  0.18829249632E+02  0.20176220742E+03 -0.32636718720E+03  0.40398399704E+03  0.12500000000E+03 0.  0.
         21    1    1    2  503  504  0.17623777541E+02 -0.33763031462E+02 -0.34474992277E+02  0.51371830032E+02  0.00000000000E+00 0.  1.
         21    1    1    2  504  501 -0.36453027173E+02 -0.16799917596E+03 -0.19447346244E+03  0.25956208102E+03  0.00000000000E+00 0.  1.
<mgrwt>
<rscale>  4 0.23809143E+03</rscale>
<asrwt>0</asrwt>
<pdfrwt beam="1">  1       21 0.12277098E-01 0.23809143E+03</pdfrwt>
<pdfrwt beam="2">  1       21 0.97710271E-01 0.23809143E+03</pdfrwt>
<totfact> 0.47786165E+04</totfact>
</mgrwt>
</event>
<event>
 5    0  0.2159162E+000  0.3986026E+03  0.7546771E-02  0.1044265E+00
         21   -1    0    0  502  501  0.00000000000E+00  0.00000000000E+00  0.84513065340E+03  0.84513065340E+03  0.00000000000E+00 0.  1.
         21   -1    0    0  503  502 -0.00000000000E+00 -0.00000000000E+00 -0.47754530473E+03  0.47754530473E+03  0.00000000000E+00 0. -1.
         25    1    1    2    0    0 -0.27300568095E+03 -0.24582277044E+03  0.51181656900E+03  0.64229443139E+03  0.12500000000E+03 0.  0.
         21    1    1    2  503  504 -0.13103124244E+03  0.90793446132E+02 -0.18675318510E+03  0.24553897553E+03  0.00000000000E+00 0. -1.
         21    1    1    2  504  501  0.40403692339E+03  0.15502932431E+03  0.42521964780E+02  0.43484255121E+03  0.00000000000E+00 0. -1.
<mgrwt>
<rscale>  4 0.39860258E+03</rscale>
<asrwt>0</asrwt>
<pdfrwt beam="1">  1       21 0.13002010E+00 0.39860258E+03</pdfrwt>
<pdfrwt beam="2">  1       21 0.73468509E-01 0.39860258E+03</pdfrwt>
<totfact> 0.61824113E+02</totfact>
</mgrwt>
</event>
<event>
 5    0  0.2159162E+000  0.2578739E+03  0.7546771E-02  0.1108427E+00
         21   -1    0    0  502  501  0.00000000000E+00  0.00000000000E+00  0.12650925065E+03  0.12650925065E+03  0.00000000000E+00 0.  1.
         21   -1    0    0  503  502 -0.00000000000E+00 -0.00000000000E+00 -0.18790733378E+04  0.18790733378E+04  0.00000000000E+00 0. -1.
         25    1    1    2    0    0  0.22071551592E+03 -0.46460764427E+02 -0.22245396004E+02  0.25883160403E+03  0.12500000000E+03 0.  0.
         21    1    1    2  503  504 -0.14612310673E+03  0.59127280690E+02 -0.13334274756E+04  0.13427124898E+04  0.00000000000E+00 0. -1.
         21    1    1    2  504  501 -0.74592409190E+02 -0.12666516263E+02 -0.39689121558E+03  0.40403849463E+03  0.00000000000E+00 0.  1.
<mgrwt>
<rscale>  4 0.25787389E+03</rscale>
<asrwt>0</asrwt>
<pdfrwt beam="1">  1       21 0.19462963E-01 0.25787389E+03</pdfrwt>
<pdfrwt beam="2">  1       21 0.28908818E+00 0.25787389E+03</pdfrwt>
<totfact> 0.88828259E+02</totfact>
</mgrwt>
</event>
