<event>
 5    0  0.1911311E+001  0.2918782E+03  0.7546771E-02  0.1089373E+00
         21   -1    0    0  502  501  0.00000000000E+00  0.00000000000E+00  0.23035549851E+03  0.23035549851E+03  0.00000000000E+00 0.  1.
         21   -1    0    0  504  502 -0.00000000000E+00 -0.00000000000E+00 -0.11025136347E+04  0.11025136347E+04  0.00000000000E+00 0.  1.
         25    1    1    2    0    0  0.20136498197E+03  0.22483647870E+03 -0.29693132495E+02  0.32803350475E+03  0.12500000000E+03 0.  0.
         21    1    1    2  503  501 -0.45559103400E+02 -0.17707131701E+02  0.53304402451E+02  0.72322428999E+02  0.00000000000E+00 0.  1.
         21    1    1    2  504  503 -0.15580587857E+03 -0.20712934700E+03 -0.89576940617E+03  0.93251319949E+03  0.00000000000E+00 0.  1.
<mgrwt>
<rscale>  4 0.29187819E+03</rscale>
<asrwt>0</asrwt>
<pdfrwt beam="1">  1       21 0.35439307E-01 0.29187819E+03</pdfrwt>
<pdfrwt beam="2">  1       21 0.16961748E+00 0.29187819E+03</pdfrwt>
<totfact> 0.15174162E+03</totfact>
</mgrwt>
</event>
<event>
 5    0  0.1911311E+001  0.3577287E+03  0.7546771E-02  0.1059487E+00
         21   -1    0    0  504  501  0.00000000000E+00  0.00000000000E+00  0.46562715996E+03  0.46562715996E+03  0.00000000000E+00 0.  1.
         21   -1    0    0  503  502 -0.00000000000E+00 -0.00000000000E+00 -0.31568574405E+03  0.31568574405E+03  0.00000000000E+00 0.  1.
         25    1    1    2    0    0  0.33320247998E+03 -0.26586470671E+02 -0.54256019104E+02  0.36097014932E+03  0.12500000000E+03 0.  0.
         21    1    1    2  503  501  0.27232085611E+01  0.26558994718E+02 -0.97544404567E+00  0.26716054282E+02  0.00000000000E+00 0.  1.
         21    1    1    2  504  502 -0.33592568855E+03  0.27475952147E-01  0.20517287906E+03  0.39362670042E+03  0.00000000000E+00 0.  1.
<mgrwt>
<rscale>  4 0.35772872E+03</rscale>
<asrwt>0</asrwt>
<pdfrwt beam="1">  1       21 0.71634948E-01 0.35772872E+03</pdfrwt>
<pdfrwt beam="2">  1       21 0.48567038E-01 0.35772872E+03</pdfrwt>
<totfact> 0.65119636E+03</totfact>
</mgrwt>
</event>
<event>
 5    0  0.1911311E+001  0.3498193E+03  0.7546771E-02  0.1062689E+00
         21   -1    0    0  504  501  0.00000000000E+00  0.00000000000E+00  0.20059798157E+03  0.20059798157E+03  0.00000000000E+00 0. -1.
         21   -1    0    0  501  502 -0.00000000000E+00 -0.00000000000E+00 -0.97923449025E+03  0.97923449025E+03  0.00000000000E+00 0.  1.
         25    1    1    2    0    0 -0.83502677863E+02  0.31164641285E+03 -0.10796565325E+03  0.36246070978E+03  0.12500000000E+03 0.  0.
         21    1    1    2  503  502 -0.89084781709E+02 -0.28937299010E+02 -0.33912513017E+02  0.99616886848E+02  0.00000000000E+00 0. -1.
         21    1    1    2  504  503  0.17258745957E+03 -0.28270911384E+03 -0.63675834241E+03  0.71775487520E+03  0.00000000000E+00 0.  1.
<mgrwt>
<rscale>  4 0.34981934E+03</rscale>
<asrwt>0</asrwt>
<pdfrwt beam="1">  1       21 0.30861228E-01 0.34981934E+03</pdfrwt>
<pdfrwt beam="2">  1       21 0.15065146E+00 0.34981934E+03</pdfrwt>
<totfact> 0.26780568E+03</totfact>
</mgrwt>
</event>
