<event>
 5    0  0.1943430E+001  0.2266998E+03  0.7546771E-02  0.1128984E+00
         21   -1    0    0  503  501  0.00000000000E+00  0.00000000000E+00  0.52423570913E+03  0.52423570913E+03  0.00000000000E+00 0.  1.
         21   -1    0    0  504  502 -0.00000000000E+00 -0.00000000000E+00 -0.13189443939E+03  0.13189443939E+03  0.00000000000E+00 0.  1.
         25    1    1    2    0    0  0.88390548917E+02  0.18177661109E+03  0.81751671503E+02  0.25132441440E+03  0.12500000000E+03 0.  0.
         21    1    1    2  503  502  0.70830472845E+01 -0.22686196600E+02 -0.16378159211E+02  0.28863076311E+02  0.00000000000E+00 0.  1.
         21    1    1    2  504  501 -0.95473596202E+02 -0.15909041449E+03  0.32696775744E+03  0.37594265781E+03  0.00000000000E+00 0.  1.
<mgrwt>
<rscale>  4 0.22669985E+03</rscale>
<asrwt>0</asrwt>
<pdfrwt beam="1">  1       21 0.80651647E-01 0.22669985E+03</pdfrwt>
<pdfrwt beam="2">  1       21 0.20291452E-01 0.22669985E+03</pdfrwt>
<totfact> 0.29788661E+04</totfact>
</mgrwt>
</event>
<event>
 5    0  0.1943430E+001  0.4918518E+03  0.7546771E-02  0.1015928E+00
         21   -1    0    0  504  501  0.00000000000E+00  0.00000000000E+00  0.41011004077E+03  0.41011004077E+03  0.00000000000E+00 0. -1.
         21   -1    0    0  501  502 -0.00000000000E+00 -0.00000000000E+00 -0.67984782740E+03  0.67984782740E+03  0.00000000000E+00 0. -1.
         25    1    1    2    0    0  0.34468945465E+03 -0.28682662137E+03 -0.14742503374E+03  0.48830264329E+03  0.12500000000E+03 0.  0.
         21    1    1    2  503  502 -0.35577165313E+03  0.35147769532E+03 -0.47807511460E+02  0.50238988608E+03  0.00000000000E+00 0. -1.
         21    1    1    2  504  503  0.11082198480E+02 -0.64651073948E+02 -0.74505241439E+02  0.99265338803E+02  0.00000000000E+00 0. -1.
<mgrwt>
<rscale>  4 0.49185178E+03</rscale>
<asrwt>0</asrwt>
<pdfrwt beam="1">  1       21 0.63093853E-01 0.49185178E+03</pdfrwt>
<pdfrwt beam="2">  1       21 0.10459197E+00 0.49185178E+03</pdfrwt>
<totfact> 0.14458577E+03</totfact>
</mgrwt>
</event>
<event>
 5    0  0.1943430E+001  0.3082957E+03  0.7546771E-02  0.1081166E+00
         21   -1    0    0  502  501  0.00000000000E+00  0.00000000000E+00  0.16568225201E+03  0.16568225201E+03  0.00000000000E+00 0.  1.
         21   -1    0    0  503  502 -0.00000000000E+00 -0.00000000000E+00 -0.83598210854E+03  0.83598210854E+03  0.00000000000E+00 0.  1.
         25    1    1    2    0    0  0.29971408062E+02 -0.26781491825E+03 -0.90516793520E+02  0.31055016607E+03  0.12500000000E+03 0.  0.
         21    1    1    2  503  504  0.61825042064E+01  0.31519892712E+03 -0.46526247744E+03  0.56201224180E+03  0.00000000000E+00 0.  1.
         21    1    1    2  504  501 -0.36153912268E+02 -0.47384008873E+02 -0.11452058556E+03  0.12910195268E+03  0.00000000000E+00 0.  1.
<mgrwt>
<rscale>  4 0.30829573E+03</rscale>
<asrwt>0</asrwt>
<pdfrwt beam="1">  1       21 0.25489577E-01 0.30829573E+03</pdfrwt>
<pdfrwt beam="2">  1       21 0.12861263E+00 0.30829573E+03</pdfrwt>
<totfact> 0.60234353E+03</totfact>
</mgrwt>
</event>
<event>
 5    0  0.1943430E+001  0.2472702E+03  0.7546771E-02  0.1115042E+00
         21   -1    0    0  503  501  0.00000000000E+00  0.00000000000E+00  0.85548564682E+02  0.85548564682E+02  0.00000000000E+00 0.  1.
         21   -1    0    0  504  502 -0.00000000000E+00 -0.00000000000E+00 -0.84990275470E+03  0.84990275470E+03  0.00000000000E+00 0.  1.
         25    1    1    2    0    0 -0.48342963751E+02 -0.20652578488E+03 -0.25747819488E+03  0.35624424600E+03  0.12500000000E+03 0.  0.
         21    1    1    2  503  502 -0.56741811415E+02  0.13959991532E+02 -0.14063497328E+03  0.15229153042E+03  0.00000000000E+00 0.  1.
         21    1    1    2  504  501  0.10508477517E+03  0.19256579335E+03 -0.36624102186E+03  0.42691554297E+03  0.00000000000E+00 0.  1.
<mgrwt>
<rscale>  4 0.24727018E+03</rscale>
<asrwt>0</asrwt>
<pdfrwt beam="1">  1       21 0.13161317E-01 0.24727018E+03</pdfrwt>
<pdfrwt beam="2">  1       21 0.13075428E+00 0.24727018E+03</pdfrwt>
<totfact> 0.20505540E+04</totfact>
</mgrwt>
</event>
<event>
 5    0  0.1943430E+001  0.3530854E+03  0.7546771E-02  0.1061356E+00
         21   -1    0    0  504  501  0.00000000000E+00  0.00000000000E+00  0.92200390647E+03  0.92200390647E+03  0.00000000000E+00 0.  1.
         21   -1    0    0  501  502 -0.00000000000E+00 -0.00000000000E+00 -0.24528731969E+03  0.24528731969E+03  0.00000000000E+00 0.  1.
         25    1    1    2    0    0 -0.76023024063E+01 -0.27438128361E+03  0.10256621474E+03  0.31857136124E+03  0.12500000000E+03 0.  0.
         21    1    1    2  503  502  0.98200750345E+02 -0.72620451436E+02 -0.47492397646E+02  0.13104443967E+03  0.00000000000E+00 0.  1.
         21    1    1    2  504  503 -0.90598447939E+02  0.34700173505E+03  0.62164276968E+03  0.71767542524E+03  0.00000000000E+00 0.  1.
<mgrwt>
<rscale>  4 0.35308535E+03</rscale>
<asrwt>0</asrwt>
<pdfrwt beam="1">  1       21 0.14184675E+00 0.35308535E+03</pdfrwt>
<pdfrwt beam="2">  1       21 0.37736511E-01 0.35308535E+03</pdfrwt>
<totfact> 0.20974762E+03</totfact>
</mgrwt>
</event>
<event>
 5    0  0.1943430E+001  0.3352360E+03  0.7546771E-02  0.1068843E+00
         21   -1    0    0  504  501  0.00000000000E+00  0.00000000000E+00  0.51004218917E+03  0.51004218917E+03  0.00000000000E+00 0. -1.
         21   -1    0    0  503  502 -0.00000000000E+00 -0.00000000000E+00 -0.22924792055E+03  0.22924792055E+03  0.00000000000E+00 0.  1.
         25    1    1    2    0    0  0.23320874417E+03  0.21420830033E+03  0.14098382059E+03  0.36847381448E+03  0.12500000000E+03 0.  0.
         21    1    1    2  503  501 -0.20734606836E+03 -0.22620361398E+03  0.14865418061E+03  0.34096705480E+03  0.00000000000E+00 0. -1.
         21    1    1    2  504  502 -0.25862675802E+02  0.11995313653E+02 -0.88437325826E+01  0.29849240447E+02  0.00000000000E+00 0.  1.
<mgrwt>
<rscale>  4 0.33523602E+03</rscale>
<asrwt>0</asrwt>
<pdfrwt beam="1">  1       21 0.78468029E-01 0.33523602E+03</pdfrwt>
<pdfrwt beam="2">  1       21 0.35268911E-01 0.33523602E+03</pdfrwt>
<totfact> 0.10327240E+04</totfact>
</mgrwt>
</event>
<event>
 5    0  0.1943430E+001  0.2459105E+03  0.7546771E-02  0.1115917E+00
         21   -1    0    0  503  501  0.00000000000E+00  0.00000000000E+00  0.31332753737E+03  0.31332753737E+03  0.00000000000E+00 0.  1.
         21   -1    0    0  504  502 -0.00000000000E+00 -0.00000000000E+00 -0.24921053739E+03  0.24921053739E+03  0.00000000000E+00 0.  1.
         25    1    1    2    0    0  0.13227684597E+03 -0.18444984201E+03 -0.78795671041E+02  0.27083697305E+03  0.12500000000E+03 0.  0.
         21    1    1    2  503  502 -0.59826968884E+02  0.13073207826E+02  0.77493003685E+01  0.61727033178E+02  0.00000000000E+00 0.  1.
         21    1    1    2  504  501 -0.72449877084E+02  0.17137663418E+03  0.13516337065E+03  0.22997406854E+03  0.00000000000E+00 0.  1.
<mgrwt>
<rscale>  4 0.24591051E+03</rscale>
<asrwt>0</asrwt>
<pdfrwt beam="1">  1       21 0.48204236E-01 0.24591051E+03</pdfrwt>
<pdfrwt beam="2">  1       21 0.38340083E-01 0.24591051E+03</pdfrwt>
<totfact> 0.26236942E+04</totfact>
</mgrwt>
</event>
<event>
 5    0  0.1943430E+001  0.3403086E+03  0.7546771E-02  0.1066665E+00
         21   -1    0    0  504  501  0.00000000000E+00  0.00000000000E+00  0.18514309277E+03  0.18514309277E+03  0.00000000000E+00 0. -1.
         21   -1    0    0  503  502 -0.00000000000E+00 -0.00000000000E+00 -0.60010945962E+03  0.60010945962E+03  0.00000000000E+00 0. -1.
         25    1    1    2    0    0 -0.31651463123E+03  0.18490671414E+01 -0.22951833502E+03  0.41047362515E+03  0.12500000000E+03 0.  0.
         21    1    1    2  503  501  0.26467524846E+03  0.74100679832E+00 -0.11830514249E+03  0.28991316455E+03  0.00000000000E+00 0. -1.
         21    1    1    2  504  502  0.51839382771E+02 -0.25900739397E+01 -0.67142889333E+02  0.84865762691E+02  0.00000000000E+00 0.  1.
<mgrwt>
<rscale>  4 0.34030858E+03</rscale>
<asrwt>0</asrwt>
<pdfrwt beam="1">  1       21 0.28483553E-01 0.34030858E+03</pdfrwt>
<pdfrwt beam="2">  1       21 0.92324532E-01 0.34030858E+03</pdfrwt>
<totfact> 0.10800101E+04</totfact>
</mgrwt>
</event>
<event>
 5    0  0.1943430E+001  0.2498453E+03  0.7546771E-02  0.1113403E+00
         21   -1    0    0  503  501  0.00000000000E+00  0.00000000000E+00  0.62066529783E+03  0.62066529783E+03  0.00000000000E+00 0. -1.
         21   -1    0    0  504  502 -0.00000000000E+00 -0.00000000000E+00 -0.12658882052E+03  0.12658882052E+03  0.00000000000E+00 0.  1.
         25    1    1    2    0    0  0.21324916185E+03  0.87120593053E+02  0.31916052579E+03  0.41298140877E+03  0.12500000000E+03 0.  0.
         21    1    1    2  503  502 -0.16483416714E+03 -0.13471552456E+03  0.10706711655E+03  0.23828961929E+03  0.00000000000E+00 0.  1.
         21    1    1    2  504  501 -0.48414994707E+02  0.47594931506E+02  0.67848834964E+02  0.95983090300E+02  0.00000000000E+00 0. -1.
<mgrwt>
<rscale>  4 0.24984528E+03</rscale>
<asrwt>0</asrwt>
<pdfrwt beam="1">  1       21 0.95486967E-01 0.24984528E+03</pdfrwt>
<pdfrwt beam="2">  1       21 0.19475203E-01 0.24984528E+03</pdfrwt>
<totfact> 0.21511315E+04</totfact>
</mgrwt>
</event>
<event>
 5    0  0.1943430E+001  0.2294041E+03  0.7546771E-02  0.1127060E+00
         21   -1    0    0  504  501  0.00000000000E+00  0.00000000000E+00  0.40246141166E+03  0.40246141166E+03  0.00000000000E+00 0.  1.
         21   -1    0    0  501  502 -0.00000000000E+00 -0.00000000000E+00 -0.31246452947E+03  0.31246452947E+03  0.00000000000E+00 0.  1.
         25    1    1    2    0    0 -0.66869007542E+02  0.19265073649E+03 -0.14010099481E+03  0.27719859161E+03  0.12500000000E+03 0.  0.
         21    1    1    2  503  502  0.35491488433E+02 -0.40837691794E+01 -0.71915387217E+02  0.80300347698E+02  0.00000000000E+00 0.  1.
         21    1    1    2  504  503  0.31377519109E+02 -0.18856696731E+03  0.30201326422E+03  0.35742700182E+03  0.00000000000E+00 0.  1.
<mgrwt>
<rscale>  4 0.22940406E+03</rscale>
<asrwt>0</asrwt>
<pdfrwt beam="1">  1       21 0.61917140E-01 0.22940406E+03</pdfrwt>
<pdfrwt beam="2">  1       21 0.48071466E-01 0.22940406E+03</pdfrwt>
<totfact> 0.97748233E+03</totfact>
</mgrwt>
</event>
<event>
 5    0  0.1943430E+001  0.3461891E+03  0.7546771E-02  0.1064190E+00
         21   -1    0    0  503  501  0.00000000000E+00  0.00000000000E+00  0.15382720941E+03  0.15382720941E+03  0.00000000000E+00 0. -1.
         21   -1    0    0  504  502 -0.00000000000E+00 -0.00000000000E+00 -0.13021819814E+04  0.13021819814E+04  0.00000000000E+00 0.  1.
         25    1    1    2    0    0 -0.26363541259E+03 -0.18632845259E+03 -0.10667981853E+03  0.36225337362E+03  0.12500000000E+03 0.  0.
         21    1    1    2  503  502  0.22257162617E+02  0.72947583388E+01 -0.28182419811E+02  0.36644830105E+02  0.00000000000E+00 0. -1.
         21    1    1    2  504  501  0.24137824998E+03  0.17903369425E+03 -0.10134925336E+04  0.10571109871E+04  0.00000000000E+00 0.  1.
<mgrwt>
<rscale>  4 0.34618914E+03</rscale>
<asrwt>0</asrwt>
<pdfrwt beam="1">  1       21 0.23665726E-01 0.34618914E+03</pdfrwt>
<pdfrwt beam="2">  1       21 0.20033568E+00 0.34618914E+03</pdfrwt>
<totfact> 0.19969152E+03</totfact>
</mgrwt>
</event>
<event>
 5    0  0.1943430E+001  0.4166949E+03  0.7546771E-02  0.1038147E+00
         21   -1    0    0  504  501  0.00000000000E+00  0.00000000000E+00  0.13755113424E+03  0.13755113424E+03  0.00000000000E+00 0. -1.
         21   -1    0    0  503  502 -0.00000000000E+00 -0.00000000000E+00 -0.24973619746E+04  0.24973619746E+04  0.00000000000E+00 0.  1.
         25    1    1    2    0    0  0.35502446914E+03 -0.11249846701E+03 -0.15204485125E+04  0.15703779666E+04  0.12500000000E+03 0.  0.
         21    1    1    2  503  501 -0.38377674817E+03  0.12425832574E+03 -0.25047459953E+03  0.47482865221E+03  0.00000000000E+00 0. -1.
         21    1    1    2  504  502  0.28752279035E+02 -0.11759858723E+02 -0.58888772830E+03  0.58970649002E+03  0.00000000000E+00 0.  1.
<mgrwt>
<rscale>  4 0.41669491E+03</rscale>
<asrwt>0</asrwt>
<pdfrwt beam="1">  1       21 0.21161715E-01 0.41669491E+03</pdfrwt>
<pdfrwt beam="2">  1       21 0.38420949E+00 0.41669491E+03</pdfrwt>
<totfact> 0.17679599E+02</totfact>
</mgrwt>
</event>
<event>
 5    0  0.1943430E+001  0.3079458E+03  0.7546771E-02  0.1081335E+00
         21   -1    0    0  503  501  0.00000000000E+00  0.00000000000E+00  0.12457431503E+04  0.12457431503E+04  0.00000000000E+00 0.  1.
         21   -1    0    0  504  502 -0.00000000000E+00 -0.00000000000E+00 -0.11251322034E+03  0.11251322034E+03  0.00000000000E+00 0.  1.
         25    1    1    2    0    0 -0.83995036422E+02 -0.28740771053E+03  0.52360189131E+03  0.61598887879E+03  0.12500000000E+03 0.  0.
         21    1    1    2  503  502  0.11194982894E+03  0.24748422785E+03  0.63255313666E+03  0.68840734883E+03  0.00000000000E+00 0.  1.
         21    1    1    2  504  501 -0.27954792519E+02  0.39923482674E+02 -0.22925097966E+02  0.53860143059E+02  0.00000000000E+00 0.  1.
<mgrwt>
<rscale>  4 0.30794580E+03</rscale>
<asrwt>0</asrwt>
<pdfrwt beam="1">  1       21 0.19165278E+00 0.30794580E+03</pdfrwt>
<pdfrwt beam="2">  1       21 0.17309727E-01 0.30794580E+03</pdfrwt>
<totfact> 0.42154073E+03</totfact>
</mgrwt>
</event>
