<event>
 5    0  0.8533808E-002  0.3713565E+03  0.7546771E-02  0.1054175E+00
         21   -1    0    0  503  502  0.00000000000E+00  0.00000000000E+00  0.84488762402E+03  0.84488762402E+03  0.00000000000E+00 0.  1.
         21   -1    0    0  501  503 -0.00000000000E+00 -0.00000000000E+00 -0.21237647974E+03  0.21237647974E+03  0.00000000000E+00 0.  1.
         25    1    1    2    0    0  0.16578615666E+03 -0.30788892000E+03  0.58861326361E+03  0.69596782318E+03  0.12500000000E+03 0.  0.
          3    1    1    2  501    0  0.17738541509E+01  0.28679138730E+02 -0.11571200348E+02  0.30976317314E+02  0.00000000000E+00 0. -1.
         -3    1    1    2    0  502 -0.16756001081E+03  0.27920978127E+03  0.55469081018E+02  0.33031996326E+03  0.00000000000E+00 0.  1.
<mgrwt>
<rscale>  4 0.37135648E+03</rscale>
<asrwt>0</asrwt>
<pdfrwt beam="1">  1       21 0.12998271E+00 0.37135648E+03</pdfrwt>
<pdfrwt beam="2">  1       21 0.32673305E-01 0.37135648E+03</pdfrwt>
<totfact> 0.34923021E+03</totfact>
</mgrwt>
</event>
<event>
 5    0  0.8533808E-002  0.2379888E+03  0.7546771E-02  0.1121140E+00
         21   -1    0    0  501  502  0.00000000000E+00  0.00000000000E+00  0.81254701688E+02  0.81254701688E+02  0.00000000000E+00 0. -1.
         21   -1    0    0  502  503 -0.00000000000E+00 -0.00000000000E+00 -0.68910864749E+03  0.68910864749E+03  0.00000000000E+00 0.  1.
         25    1    1    2    0    0 -0.20049657347E+03  0.28544704019E+02 -0.44332332111E+03  0.50316423078E+03  0.12500000000E+03 0.  0.
          4    1    1    2  501    0  0.45248293210E+02  0.67259453600E+01 -0.64858205984E+02  0.79367709195E+02  0.00000000000E+00 0.  1.
         -4    1    1    2    0  503  0.15524828026E+03 -0.35270649379E+02 -0.99672418714E+02  0.18783140920E+03  0.00000000000E+00 0. -1.
<mgrwt>
<rscale>  4 0.23798882E+03</rscale>
<asrwt>0</asrwt>
<pdfrwt beam="1">  1       21 0.12500724E-01 0.23798882E+03</pdfrwt>
<pdfrwt beam="2">  1       21 0.10601671E+00 0.23798882E+03</pdfrwt>
<totfact> 0.38036367E+04</totfact>
</mgrwt>
</event>
<event>
 5    0  0.8533808E-002  0.2369827E+03  0.7546771E-02  0.1121819E+00
         21   -1    0    0  501  502  0.00000000000E+00  0.00000000000E+00  0.11875642573E+04  0.11875642573E+04  0.00000000000E+00 0.  1.
         21   -1    0    0  502  503 -0.00000000000E+00 -0.00000000000E+00 -0.52422941678E+02  0.52422941678E+02  0.00000000000E+00 0. -1.
         25    1    1    2    0    0  0.58618275156E+02 -0.20630072737E+03  0.56034762826E+03  0.61287075048E+03  0.12500000000E+03 0.  0.
          3    1    1    2  501    0 -0.97759598270E+01  0.19419586595E+03  0.50445552250E+03  0.54063201711E+03  0.00000000000E+00 0.  1.
         -3    1    1    2    0  503 -0.48842315329E+02  0.12104861415E+02  0.70338164858E+02  0.86484431386E+02  0.00000000000E+00 0. -1.
<mgrwt>
<rscale>  4 0.23698267E+03</rscale>
<asrwt>0</asrwt>
<pdfrwt beam="1">  1       21 0.18270217E+00 0.23698267E+03</pdfrwt>
<pdfrwt beam="2">  1       21 0.80650689E-02 0.23698267E+03</pdfrwt>
<totfact> 0.20029995E+04</totfact>
</mgrwt>
</event>
<event>
 5    0  0.8533808E-002  0.2569387E+03  0.7546771E-02  0.1108997E+00
         21   -1    0    0  501  502  0.00000000000E+00  0.00000000000E+00  0.55302336399E+03  0.55302336399E+03  0.00000000000E+00 0.  1.
         21   -1    0    0  502  503 -0.00000000000E+00 -0.00000000000E+00 -0.11990014695E+03  0.11990014695E+03  0.00000000000E+00 0.  1.
         25    1    1    2    0    0  0.19496051537E+03  0.11127849156E+03  0.12401396327E+03  0.28530153929E+03  0.12500000000E+03 0.  0.
          1    1    1    2  501    0 -0.15215159814E+03 -0.89379541377E+02  0.28132158824E+03  0.33208530115E+03  0.00000000000E+00 0.  1.
         -1    1    1    2    0  503 -0.42808917226E+02 -0.21898950182E+02  0.27787665532E+02  0.55536670488E+02  0.00000000000E+00 0. -1.
<mgrwt>
<rscale>  4 0.25693872E+03</rscale>
<asrwt>0</asrwt>
<pdfrwt beam="1">  1       21 0.85080516E-01 0.25693872E+03</pdfrwt>
<pdfrwt beam="2">  1       21 0.18446177E-01 0.25693872E+03</pdfrwt>
<totfact> 0.31065583E+04</totfact>
</mgrwt>
</event>
<event>
 5    0  0.8533808E-002  0.2479025E+03  0.7546771E-02  0.1114638E+00
         21   -1    0    0  503  502  0.00000000000E+00  0.00000000000E+00  0.61402544209E+02  0.61402544209E+02  0.00000000000E+00 0. -1.
         21   -1    0    0  501  503 -0.00000000000E+00 -0.00000000000E+00 -0.95216752448E+03  0.95216752448E+03  0.00000000000E+00 0. -1.
         25    1    1    2    0    0 -0.10957048600E+03 -0.18391567450E+03 -0.52653754862E+03  0.58197719615E+03  0.12500000000E+03 0.  0.
          1    1    1    2  501    0  0.31413778707E+02  0.53827143368E+02 -0.19289043382E+03  0.20270892017E+03  0.00000000000E+00 0.  1.
         -1    1    1    2    0  502  0.78156707292E+02  0.13008853114E+03 -0.17133699783E+03  0.22888395237E+03  0.00000000000E+00 0. -1.
<mgrwt>
<rscale>  4 0.24790253E+03</rscale>
<asrwt>0</asrwt>
<pdfrwt beam="1">  1       21 0.94465449E-02 0.24790253E+03</pdfrwt>
<pdfrwt beam="2">  1       21 0.14648732E+00 0.24790253E+03</pdfrwt>
<totfact> 0.27641675E+04</totfact>
</mgrwt>
</event>
<event>
 5    0  0.8533808E-002  0.2372749E+03  0.7546771E-02  0.1121622E+00
         21   -1    0    0  501  502  0.00000000000E+00  0.00000000000E+00  0.57744173664E+03  0.57744173664E+03  0.00000000000E+00 0. -1.
         21   -1    0    0  502  503 -0.00000000000E+00 -0.00000000000E+00 -0.11866079780E+03  0.11866079780E+03  0.00000000000E+00 0. -1.
         25    1    1    2    0    0  0.11821416202E+03 -0.16340067744E+03  0.42434883478E+03  0.48618031950E+03  0.12500000000E+03 0.  0.
          4    1    1    2  501    0 -0.17142306497E+02  0.41260968961E+02  0.24782234406E+02  0.51092909232E+02  0.00000000000E+00 0.  1.
         -4    1    1    2    0  503 -0.10107185552E+03  0.12213970848E+03  0.96498696581E+01  0.15882930570E+03  0.00000000000E+00 0. -1.
<mgrwt>
<rscale>  4 0.23727488E+03</rscale>
<asrwt>0</asrwt>
<pdfrwt beam="1">  1       21 0.88837189E-01 0.23727488E+03</pdfrwt>
<pdfrwt beam="2">  1       21 0.18255508E-01 0.23727488E+03</pdfrwt>
<totfact> 0.28917931E+04</totfact>
</mgrwt>
</event>
<event>
 5    0  0.8533808E-002  0.2873273E+03  0.7546771E-02  0.1091753E+00
         21   -1    0    0  501  502  0.00000000000E+00  0.00000000000E+00  0.45468340920E+03  0.45468340920E+03  0.00000000000E+00 0. -1.
         21   -1    0    0  502  503 -0.00000000000E+00 -0.00000000000E+00 -0.23770425434E+03  0.23770425434E+03  0.00000000000E+00 0. -1.
         25    1    1    2    0    0  0.27212380374E+03 -0.44965298697E+02 -0.58585312261E+01  0.30287384343E+03  0.12500000000E+03 0.  0.
          1    1    1    2  501    0 -0.25033765927E+03  0.35605425000E+02  0.24853311733E+03  0.35454957390E+03  0.00000000000E+00 0. -1.
         -1    1    1    2    0  503 -0.21786144469E+02  0.93598736970E+01 -0.25695431242E+02  0.34964246212E+02  0.00000000000E+00 0.  1.
<mgrwt>
<rscale>  4 0.28732735E+03</rscale>
<asrwt>0</asrwt>
<pdfrwt beam="1">  1       21 0.69951293E-01 0.28732735E+03</pdfrwt>
<pdfrwt beam="2">  1       21 0.36569885E-01 0.28732735E+03</pdfrwt>
<totfact> 0.12698538E+04</totfact>
</mgrwt>
</event>
<event>
 5    0  0.8533808E-002  0.2417952E+03  0.7546771E-02  0.1118603E+00
         21   -1    0    0  501  502  0.00000000000E+00  0.00000000000E+00  0.18405862986E+03  0.18405862986E+03  0.00000000000E+00 0. -1.
         21   -1    0    0  502  503 -0.00000000000E+00 -0.00000000000E+00 -0.11551301777E+04  0.11551301777E+04  0.00000000000E+00 0. -1.
         25    1    1    2    0    0 -0.21795784960E+03 -0.44843551184E+01 -0.85701711665E+03  0.89310081842E+03  0.12500000000E+03 0.  0.
          4    1    1    2  501    0  0.65072889620E+02  0.17545587230E+03  0.59574617051E+01  0.18722909880E+03  0.00000000000E+00 0.  1.
         -4    1    1    2    0  503  0.15288495998E+03 -0.17097151718E+03 -0.12001189291E+03  0.25885889035E+03  0.00000000000E+00 0. -1.
<mgrwt>
<rscale>  4 0.24179524E+03</rscale>
<asrwt>0</asrwt>
<pdfrwt beam="1">  1       21 0.28316712E-01 0.24179524E+03</pdfrwt>
<pdfrwt beam="2">  1       21 0.17771233E+00 0.24179524E+03</pdfrwt>
<totfact> 0.21512401E+03</totfact>
</mgrwt>
</event>
<event>
 5    0  0.8533808E-002  0.2781621E+03  0.7546771E-02  0.1096697E+00
         21   -1    0    0  501  502  0.00000000000E+00  0.00000000000E+00  0.80210437686E+03  0.80210437686E+03  0.00000000000E+00 0. -1.
         21   -1    0    0  502  503 -0.00000000000E+00 -0.00000000000E+00 -0.31737240523E+03  0.31737240523E+03  0.00000000000E+00 0. -1.
         25    1    1    2    0    0 -0.76939285304E+02  0.24283949217E+03 -0.20998852471E+03  0.35300262476E+03  0.12500000000E+03 0.  0.
          4    1    1    2  501    0  0.15960071177E+02 -0.19475769937E+03  0.64574668419E+03  0.67466589174E+03  0.00000000000E+00 0. -1.
         -4    1    1    2    0  503  0.60979214128E+02 -0.48081792795E+02  0.48973812144E+02  0.91808265586E+02  0.00000000000E+00 0.  1.
<mgrwt>
<rscale>  4 0.27816209E+03</rscale>
<asrwt>0</asrwt>
<pdfrwt beam="1">  1       21 0.12340067E+00 0.27816209E+03</pdfrwt>
<pdfrwt beam="2">  1       21 0.48826524E-01 0.27816209E+03</pdfrwt>
<totfact> 0.18432264E+03</totfact>
</mgrwt>
</event>
<event>
 5    0  0.8533808E-002  0.2763905E+03  0.7546771E-02  0.1097677E+00
         21   -1    0    0  501  502  0.00000000000E+00  0.00000000000E+00  0.12164824695E+03  0.12164824695E+03  0.00000000000E+00 0.  1.
         21   -1    0    0  502  503 -0.00000000000E+00 -0.00000000000E+00 -0.69922769483E+03  0.69922769483E+03  0.00000000000E+00 0. -1.
         25    1    1    2    0    0  0.36197245641E+01 -0.24648251774E+03 -0.46707385514E+03  0.54272435002E+03  0.12500000000E+03 0.  0.
          3    1    1    2  501    0  0.18838804815E+02  0.10110738901E+03 -0.73668890731E+02  0.12650972350E+03  0.00000000000E+00 0. -1.
         -3    1    1    2    0  503 -0.22458529379E+02  0.14537512873E+03 -0.36836702015E+02  0.15164186826E+03  0.00000000000E+00 0.  1.
<mgrwt>
<rscale>  4 0.27639055E+03</rscale>
<asrwt>0</asrwt>
<pdfrwt beam="1">  1       21 0.18715115E-01 0.27639055E+03</pdfrwt>
<pdfrwt beam="2">  1       21 0.10757349E+00 0.27639055E+03</pdfrwt>
<totfact> 0.17187494E+04</totfact>
</mgrwt>
</event>
<event>
 5    0  0.8533808E-002  0.2804885E+03  0.7546771E-02  0.1095422E+00
         21   -1    0    0  501  502  0.00000000000E+00  0.00000000000E+00  0.48409575493E+03  0.48409575493E+03  0.00000000000E+00 0. -1.
         21   -1    0    0  502  503 -0.00000000000E+00 -0.00000000000E+00 -0.38516763029E+03  0.38516763029E+03  0.00000000000E+00 0.  1.
         25    1    1    2    0    0 -0.22559188269E+03  0.11025916139E+03 -0.29121152919E+03  0.40432404695E+03  0.12500000000E+03 0.  0.
          2    1    1    2  501    0  0.16768168135E+02 -0.14531962260E+02  0.47393377243E+02  0.52330503497E+02  0.00000000000E+00 0.  1.
         -2    1    1    2    0  503  0.20882371455E+03 -0.95727199132E+02  0.34274627659E+03  0.41260883477E+03  0.00000000000E+00 0. -1.
<mgrwt>
<rscale>  4 0.28048847E+03</rscale>
<asrwt>0</asrwt>
<pdfrwt beam="1">  1       21 0.74476270E-01 0.28048847E+03</pdfrwt>
<pdfrwt beam="2">  1       21 0.59256559E-01 0.28048847E+03</pdfrwt>
<totfact> 0.40482073E+03</totfact>
</mgrwt>
</event>
<event>
 5    0  0.8533808E-002  0.2998771E+03  0.7546771E-02  0.1085302E+00
         21   -1    0    0  501  502  0.00000000000E+00  0.00000000000E+00  0.46519990979E+03  0.46519990979E+03  0.00000000000E+00 0. -1.
         21   -1    0    0  502  503 -0.00000000000E+00 -0.00000000000E+00 -0.18149853073E+03  0.18149853073E+03  0.00000000000E+00 0.  1.
         25    1    1    2    0    0 -0.14961636579E+03 -0.22785133723E+03  0.15940965399E+03  0.33961408477E+03  0.12500000000E+03 0.  0.
          1    1    1    2  501    0  0.12231684406E+03  0.13390961570E+03  0.64833607517E+02  0.19260475638E+03  0.00000000000E+00 0. -1.
         -1    1    1    2    0  503  0.27299521727E+02  0.93941721526E+02  0.59458117547E+02  0.11447959937E+03  0.00000000000E+00 0.  1.
<mgrwt>
<rscale>  4 0.29987712E+03</rscale>
<asrwt>0</asrwt>
<pdfrwt beam="1">  1       21 0.71569216E-01 0.29987712E+03</pdfrwt>
<pdfrwt beam="2">  1       21 0.27922851E-01 0.29987712E+03</pdfrwt>
<totfact> 0.20494844E+04</totfact>
</mgrwt>
</event>
<event>
 5    0  0.8533808E-002  0.2515553E+03  0.7546771E-02  0.1112326E+00
         21   -1    0    0  501  502  0.00000000000E+00  0.00000000000E+00  0.90194195000E+03  0.90194195000E+03  0.00000000000E+00 0. -1.
         21   -1    0    0  502  503 -0.00000000000E+00 -0.00000000000E+00 -0.65989763559E+02  0.65989763559E+02  0.00000000000E+00 0.  1.
         25    1    1    2    0    0  0.15384540142E+03 -0.15487626247E+03  0.33933838518E+03  0.42241046847E+03  0.12500000000E+03 0.  0.
          3    1    1    2  501    0 -0.52291465230E+02  0.82516827278E+02  0.17239965950E+03  0.19815414887E+03  0.00000000000E+00 0. -1.
         -3    1    1    2    0  503 -0.10155393619E+03  0.72359435189E+02  0.32421414176E+03  0.34736709622E+03  0.00000000000E+00 0.  1.
<mgrwt>
<rscale>  4 0.25155529E+03</rscale>
<asrwt>0</asrwt>
<pdfrwt beam="1">  1       21 0.13876029E+00 0.25155529E+03</pdfrwt>
<pdfrwt beam="2">  1       21 0.10152272E-01 0.25155529E+03</pdfrwt>
<totfact> 0.27986733E+04</totfact>
</mgrwt>
</event>
<event>
 5    0  0.8533808E-002  0.2138271E+03  0.7546771E-02  0.1138571E+00
         21   -1    0    0  501  502  0.00000000000E+00  0.00000000000E+00  0.11305763379E+03  0.11305763379E+03  0.00000000000E+00 0.  1.
         21   -1    0    0  502  503 -0.00000000000E+00 -0.00000000000E+00 -0.60019114952E+03  0.60019114952E+03  0.00000000000E+00 0.  1.
         25    1    1    2    0    0 -0.20402662291E+03  0.93443148563E+02 -0.27269473241E+03  0.37462768444E+03  0.12500000000E+03 0.  0.
          1    1    1    2  501    0  0.89911262762E+02 -0.11429859327E+03 -0.10747984055E+03  0.18083174423E+03  0.00000000000E+00 0.  1.
         -1    1    1    2    0  503  0.11411536015E+03  0.20855444711E+02 -0.10695894278E+03  0.15778935463E+03  0.00000000000E+00 0. -1.
<mgrwt>
<rscale>  4 0.21382712E+03</rscale>
<asrwt>0</asrwt>
<pdfrwt beam="1">  1       21 0.17393482E-01 0.21382712E+03</pdfrwt>
<pdfrwt beam="2">  1       21 0.92337100E-01 0.21382712E+03</pdfrwt>
<totfact> 0.29258362E+04</totfact>
</mgrwt>
</event>
<event>
 5    0  0.8533808E-002  0.2462061E+03  0.7546771E-02  0.1115726E+00
         21   -1    0    0  501  502  0.00000000000E+00  0.00000000000E+00  0.33061992298E+03  0.33061992298E+03  0.00000000000E+00 0.  1.
         21   -1    0    0  502  503 -0.00000000000E+00 -0.00000000000E+00 -0.16351778733E+03  0.16351778733E+03  0.00000000000E+00 0.  1.
         25    1    1    2    0    0  0.15640961519E+03  0.14327758399E+03  0.89361108655E+02  0.26192144154E+03  0.12500000000E+03 0.  0.
          1    1    1    2  501    0 -0.48904846607E+02 -0.16146754203E+02  0.99590845164E+01  0.52455553160E+02  0.00000000000E+00 0. -1.
         -1    1    1    2    0  503 -0.10750476858E+03 -0.12713082979E+03  0.67781942481E+02  0.17976071561E+03  0.00000000000E+00 0.  1.
<mgrwt>
<rscale>  4 0.24620608E+03</rscale>
<asrwt>0</asrwt>
<pdfrwt beam="1">  1       21 0.50864603E-01 0.24620608E+03</pdfrwt>
<pdfrwt beam="2">  1       21 0.25156583E-01 0.24620608E+03</pdfrwt>
<totfact> 0.53742092E+04</totfact>
</mgrwt>
</event>
<event>
 5    0  0.8533808E-002  0.2548350E+03  0.7546771E-02  0.1110287E+00
         21   -1    0    0  501  502  0.00000000000E+00  0.00000000000E+00  0.10548706933E+03  0.10548706933E+03  0.00000000000E+00 0.  1.
         21   -1    0    0  502  503 -0.00000000000E+00 -0.00000000000E+00 -0.16353363257E+04  0.16353363257E+04  0.00000000000E+00 0. -1.
         25    1    1    2    0    0 -0.17031762898E+03 -0.10598189092E+03 -0.75213924385E+03  0.78840262435E+03  0.12500000000E+03 0.  0.
          4    1    1    2  501    0  0.93533633055E+02  0.21371856074E+03 -0.86730979964E+02  0.24889039074E+03  0.00000000000E+00 0.  1.
         -4    1    1    2    0  503  0.76783995921E+02 -0.10773666982E+03 -0.69097903251E+03  0.70353037989E+03  0.00000000000E+00 0. -1.
<mgrwt>
<rscale>  4 0.25483504E+03</rscale>
<asrwt>0</asrwt>
<pdfrwt beam="1">  1       21 0.16228780E-01 0.25483504E+03</pdfrwt>
<pdfrwt beam="2">  1       21 0.25159020E+00 0.25483504E+03</pdfrwt>
<totfact> 0.20769922E+03</totfact>
</mgrwt>
</event>
<event>
 5    0  0.8533808E-002  0.3369737E+03  0.7546771E-02  0.1068092E+00
         21   -1    0    0  503  502  0.00000000000E+00  0.00000000000E+00  0.50896461239E+02  0.50896461239E+02  0.00000000000E+00 0. -1.
         21   -1    0    0  501  503 -0.00000000000E+00 -0.00000000000E+00 -0.24677856777E+04  0.24677856777E+04  0.00000000000E+00 0. -1.
         25    1    1    2    0    0  0.11150348937E+02 -0.33080944035E+03 -0.14244434576E+04  0.14677272840E+04  0.12500000000E+03 0.  0.
          1    1    1    2  501    0  0.26489811608E+01  0.28304163838E+02 -0.21067245061E+03  0.21258180599E+03  0.00000000000E+00 0.  1.
         -1    1    1    2    0  502 -0.13799330098E+02  0.30250527651E+03 -0.78177330826E+03  0.83837304903E+03  0.00000000000E+00 0. -1.
<mgrwt>
<rscale>  4 0.33697371E+03</rscale>
<asrwt>0</asrwt>
<pdfrwt beam="1">  1       21 0.78302261E-02 0.33697371E+03</pdfrwt>
<pdfrwt beam="2">  1       21 0.37965927E+00 0.33697371E+03</pdfrwt>
<totfact> 0.12364876E+03</totfact>
</mgrwt>
</event>
<event>
 5    0  0.8533808E-002  0.3345332E+03  0.7546771E-02  0.1069149E+00
         21   -1    0    0  501  502  0.00000000000E+00  0.00000000000E+00  0.52060637840E+03  0.52060637840E+03  0.00000000000E+00 0. -1.
         21   -1    0    0  502  503 -0.00000000000E+00 -0.00000000000E+00 -0.10815980283E+04  0.10815980283E+04  0.00000000000E+00 0. -1.
         25    1    1    2    0    0  0.30988036985E+03  0.42373999348E+02 -0.99693556821E+03  0.10522960261E+04  0.12500000000E+03 0.  0.
          4    1    1    2  501    0 -0.26364319467E+03 -0.65021715531E+02  0.41124108877E+03  0.49280299378E+03  0.00000000000E+00 0. -1.
         -4    1    1    2    0  503 -0.46237175176E+02  0.22647716182E+02  0.24702829524E+02  0.57105386812E+02  0.00000000000E+00 0.  1.
<mgrwt>
<rscale>  4 0.33453317E+03</rscale>
<asrwt>0</asrwt>
<pdfrwt beam="1">  1       21 0.80093289E-01 0.33453317E+03</pdfrwt>
<pdfrwt beam="2">  1       21 0.16639970E+00 0.33453317E+03</pdfrwt>
<totfact> 0.27205118E+02</totfact>
</mgrwt>
</event>
<event>
 5    0  0.8533808E-002  0.2029665E+03  0.7546771E-02  0.1147260E+00
         21   -1    0    0  501  502  0.00000000000E+00  0.00000000000E+00  0.25960303988E+03  0.25960303988E+03  0.00000000000E+00 0. -1.
         21   -1    0    0  502  503 -0.00000000000E+00 -0.00000000000E+00 -0.45183836982E+03  0.45183836982E+03  0.00000000000E+00 0.  1.
         25    1    1    2    0    0  0.18514262432E+03 -0.94185504745E+02 -0.28840047348E+03  0.37676057881E+03  0.12500000000E+03 0.  0.
          2    1    1    2  501    0 -0.84453793755E+02  0.13309619909E+03  0.14684425278E+03  0.21543044369E+03  0.00000000000E+00 0. -1.
         -2    1    1    2    0  503 -0.10068883057E+03 -0.38910694349E+02 -0.50679109231E+02  0.11925038720E+03  0.00000000000E+00 0.  1.
<mgrwt>
<rscale>  4 0.20296649E+03</rscale>
<asrwt>0</asrwt>
<pdfrwt beam="1">  1       21 0.39938930E-01 0.20296649E+03</pdfrwt>
<pdfrwt beam="2">  1       21 0.69513595E-01 0.20296649E+03</pdfrwt>
<totfact> 0.11289990E+04</totfact>
</mgrwt>
</event>
<event>
 5    0  0.8533808E-002  0.2372515E+03  0.7546771E-02  0.1121637E+00
         21   -1    0    0  503  502  0.00000000000E+00  0.00000000000E+00  0.24660856758E+03  0.24660856758E+03  0.00000000000E+00 0. -1.
         21   -1    0    0  501  503 -0.00000000000E+00 -0.00000000000E+00 -0.38950418268E+03  0.38950418268E+03  0.00000000000E+00 0. -1.
         25    1    1    2    0    0  0.19379228340E+03  0.55747893324E+02 -0.29339805207E+03  0.37732041248E+03  0.12500000000E+03 0.  0.
          3    1    1    2  501    0 -0.90519461242E+02 -0.44238809654E+02  0.43825290453E+02  0.10987038375E+03  0.00000000000E+00 0.  1.
         -3    1    1    2    0  502 -0.10327282216E+03 -0.11509083670E+02  0.10667714652E+03  0.14892195403E+03  0.00000000000E+00 0. -1.
<mgrwt>
<rscale>  4 0.23725151E+03</rscale>
<asrwt>0</asrwt>
<pdfrwt beam="1">  1       21 0.37939780E-01 0.23725151E+03</pdfrwt>
<pdfrwt beam="2">  1       21 0.59923720E-01 0.23725151E+03</pdfrwt>
<totfact> 0.16963048E+04</totfact>
</mgrwt>
</event>
<event>
 5    0  0.8533808E-002  0.2369274E+03  0.7546771E-02  0.1121857E+00
         21   -1    0    0  503  502  0.00000000000E+00  0.00000000000E+00  0.25377079179E+03  0.25377079179E+03  0.00000000000E+00 0.  1.
         21   -1    0    0  501  503 -0.00000000000E+00 -0.00000000000E+00 -0.54032761905E+03  0.54032761905E+03  0.00000000000E+00 0. -1.
         25    1    1    2    0    0  0.17336935430E+03  0.12556447897E+03 -0.40819894185E+03  0.47757171976E+03  0.12500000000E+03 0.  0.
          1    1    1    2  501    0 -0.10768954248E+03 -0.13767167824E+03 -0.33404607564E+01  0.17481901277E+03  0.00000000000E+00 0. -1.
         -1    1    1    2    0  502 -0.65679811818E+02  0.12107199270E+02  0.12498257534E+03  0.14170767832E+03  0.00000000000E+00 0.  1.
<mgrwt>
<rscale>  4 0.23692745E+03</rscale>
<asrwt>0</asrwt>
<pdfrwt beam="1">  1       21 0.39041660E-01 0.23692745E+03</pdfrwt>
<pdfrwt beam="2">  1       21 0.83127326E-01 0.23692745E+03</pdfrwt>
<totfact> 0.77392580E+03</totfact>
</mgrwt>
</event>
<event>
 5    0  0.8533808E-002  0.2464610E+03  0.7546771E-02  0.1115562E+00
         21   -1    0    0  503  502  0.00000000000E+00  0.00000000000E+00  0.32116199521E+03  0.32116199521E+03  0.00000000000E+00 0.  1.
         21   -1    0    0  501  503 -0.00000000000E+00 -0.00000000000E+00 -0.29305096147E+03  0.29305096147E+03  0.00000000000E+00 0.  1.
         25    1    1    2    0    0 -0.12976934949E+03 -0.17138642079E+03 -0.13342041088E+03  0.28220452749E+03  0.12500000000E+03 0.  0.
          2    1    1    2  501    0  0.10618077347E+03  0.17980365180E+03  0.46037063181E+02  0.21382965426E+03  0.00000000000E+00 0.  1.
         -2    1    1    2    0  502  0.23588576016E+02 -0.84172310147E+01  0.11549438145E+03  0.11817877492E+03  0.00000000000E+00 0. -1.
<mgrwt>
<rscale>  4 0.24646097E+03</rscale>
<asrwt>0</asrwt>
<pdfrwt beam="1">  1       21 0.49409538E-01 0.24646097E+03</pdfrwt>
<pdfrwt beam="2">  1       21 0.45084763E-01 0.24646097E+03</pdfrwt>
<totfact> 0.17888477E+04</totfact>
</mgrwt>
</event>
<event>
 5    0  0.8533808E-002  0.3064476E+03  0.7546771E-02  0.1082061E+00
         21   -1    0    0  501  502  0.00000000000E+00  0.00000000000E+00  0.28507939384E+02  0.28507939384E+02  0.00000000000E+00 0. -1.
         21   -1    0    0  502  503 -0.00000000000E+00 -0.00000000000E+00 -0.34058530608E+04  0.34058530608E+04  0.00000000000E+00 0. -1.
         25    1    1    2    0    0  0.43034475138E+02  0.27646553958E+03 -0.12186077870E+04  0.12565488845E+04  0.12500000000E+03 0.  0.
          1    1    1    2  501    0  0.12845536807E+02 -0.13081479826E+03 -0.10237072569E+04  0.10321114606E+04  0.00000000000E+00 0. -1.
         -1    1    1    2    0  503 -0.55880011944E+02 -0.14565074132E+03 -0.11350300775E+04  0.11457006551E+04  0.00000000000E+00 0.  1.
<mgrwt>
<rscale>  4 0.30644765E+03</rscale>
<asrwt>0</asrwt>
<pdfrwt beam="1">  1       21 0.43858399E-02 0.30644765E+03</pdfrwt>
<pdfrwt beam="2">  1       21 0.52397702E+00 0.30644765E+03</pdfrwt>
<totfact> 0.36937582E+02</totfact>
</mgrwt>
</event>
<event>
 5    0  0.8533808E-002  0.3118109E+03  0.7546771E-02  0.1079481E+00
         21   -1    0    0  501  502  0.00000000000E+00  0.00000000000E+00  0.21077008643E+03  0.21077008643E+03  0.00000000000E+00 0. -1.
         21   -1    0    0  502  503 -0.00000000000E+00 -0.00000000000E+00 -0.46600633412E+03  0.46600633412E+03  0.00000000000E+00 0. -1.
         25    1    1    2    0    0  0.19707049845E+03 -0.20679517734E+03 -0.47130921429E+02  0.31535273978E+03  0.12500000000E+03 0.  0.
          3    1    1    2  501    0 -0.62708127475E+02  0.11545506767E+03 -0.74241360667E+02  0.15091044211E+03  0.00000000000E+00 0.  1.
         -3    1    1    2    0  503 -0.13436237098E+03  0.91340109667E+02 -0.13386396559E+03  0.21051323866E+03  0.00000000000E+00 0. -1.
<mgrwt>
<rscale>  4 0.31181088E+03</rscale>
<asrwt>0</asrwt>
<pdfrwt beam="1">  1       21 0.32426168E-01 0.31181088E+03</pdfrwt>
<pdfrwt beam="2">  1       21 0.71693281E-01 0.31181088E+03</pdfrwt>
<totfact> 0.15131520E+04</totfact>
</mgrwt>
</event>
<event>
 5    0  0.8533808E-002  0.2497367E+03  0.7546771E-02  0.1113471E+00
         21   -1    0    0  501  502  0.00000000000E+00  0.00000000000E+00  0.38173255217E+03  0.38173255217E+03  0.00000000000E+00 0. -1.
         21   -1    0    0  502  503 -0.00000000000E+00 -0.00000000000E+00 -0.32603589512E+03  0.32603589512E+03  0.00000000000E+00 0. -1.
         25    1    1    2    0    0 -0.15993052482E+03 -0.14548412037E+03  0.29182449227E+03  0.38409625921E+03  0.12500000000E+03 0.  0.
          3    1    1    2  501    0  0.74663084022E+02  0.47464689828E+02 -0.70235315627E+02  0.11296226121E+03  0.00000000000E+00 0.  1.
         -3    1    1    2    0  503  0.85267440801E+02  0.98019430544E+02 -0.16589251959E+03  0.21070992687E+03  0.00000000000E+00 0. -1.
<mgrwt>
<rscale>  4 0.24973667E+03</rscale>
<asrwt>0</asrwt>
<pdfrwt beam="1">  1       21 0.58728085E-01 0.24973667E+03</pdfrwt>
<pdfrwt beam="2">  1       21 0.50159368E-01 0.24973667E+03</pdfrwt>
<totfact> 0.99098359E+03</totfact>
</mgrwt>
</event>
<event>
 5    0  0.8533808E-002  0.2642390E+03  0.7546771E-02  0.1104623E+00
         21   -1    0    0  501  502  0.00000000000E+00  0.00000000000E+00  0.39262816419E+03  0.39262816419E+03  0.00000000000E+00 0.  1.
         21   -1    0    0  502  503 -0.00000000000E+00 -0.00000000000E+00 -0.41145784360E+03  0.41145784360E+03  0.00000000000E+00 0. -1.
         25    1    1    2    0    0 -0.16809774586E+03  0.15875963010E+03 -0.29707393575E+03  0.39666030254E+03  0.12500000000E+03 0.  0.
          3    1    1    2  501    0  0.14063704010E+03 -0.20161327530E+03  0.21799116523E+03  0.32855264105E+03  0.00000000000E+00 0. -1.
         -3    1    1    2    0  503  0.27460705765E+02  0.42853645200E+02  0.60253091109E+02  0.78873064199E+02  0.00000000000E+00 0.  1.
<mgrwt>
<rscale>  4 0.26423904E+03</rscale>
<asrwt>0</asrwt>
<pdfrwt beam="1">  1       21 0.60404333E-01 0.26423904E+03</pdfrwt>
<pdfrwt beam="2">  1       21 0.63301207E-01 0.26423904E+03</pdfrwt>
<totfact> 0.56210423E+03</totfact>
</mgrwt>
</event>
<event>
 5    0  0.8533808E-002  0.2117044E+03  0.7546771E-02  0.1140223E+00
         21   -1    0    0  503  502  0.00000000000E+00  0.00000000000E+00  0.39356884158E+03  0.39356884158E+03  0.00000000000E+00 0. -1.
         21   -1    0    0  501  503 -0.00000000000E+00 -0.00000000000E+00 -0.16332318842E+03  0.16332318842E+03  0.00000000000E+00 0. -1.
         25    1    1    2    0    0 -0.14841798332E+03  0.16208671306E+03  0.86201652173E+02  0.26712492426E+03  0.12500000000E+03 0.  0.
          1    1    1    2  501    0  0.78041896351E+02 -0.32886829528E+02  0.10987982649E+03  0.13872871878E+03  0.00000000000E+00 0. -1.
         -1    1    1    2    0  502  0.70376086965E+02 -0.12919988353E+03  0.34164174489E+02  0.15103838697E+03  0.00000000000E+00 0.  1.
<mgrwt>
<rscale>  4 0.21170444E+03</rscale>
<asrwt>0</asrwt>
<pdfrwt beam="1">  1       21 0.60549052E-01 0.21170444E+03</pdfrwt>
<pdfrwt beam="2">  1       21 0.25126644E-01 0.21170444E+03</pdfrwt>
<totfact> 0.37743400E+04</totfact>
</mgrwt>
</event>
<event>
 5    0  0.8533808E-002  0.2849153E+03  0.7546771E-02  0.1093034E+00
         21   -1    0    0  501  502  0.00000000000E+00  0.00000000000E+00  0.15743459532E+03  0.15743459532E+03  0.00000000000E+00 0.  1.
         21   -1    0    0  502  503 -0.00000000000E+00 -0.00000000000E+00 -0.13152909830E+04  0.13152909830E+04  0.00000000000E+00 0.  1.
         25    1    1    2    0    0 -0.57595439301E+02  0.24946841239E+03 -0.28215712161E+01  0.28492926258E+03  0.12500000000E+03 0.  0.
          1    1    1    2  501    0  0.54622367276E+02 -0.77302129517E+02 -0.57513061518E+03  0.58286743498E+03  0.00000000000E+00 0.  1.
         -1    1    1    2    0  503  0.29730720258E+01 -0.17216628288E+03 -0.57990420126E+03  0.60492888074E+03  0.00000000000E+00 0. -1.
<mgrwt>
<rscale>  4 0.28491529E+03</rscale>
<asrwt>0</asrwt>
<pdfrwt beam="1">  1       21 0.24220706E-01 0.28491529E+03</pdfrwt>
<pdfrwt beam="2">  1       21 0.20235246E+00 0.28491529E+03</pdfrwt>
<totfact> 0.19261370E+03</totfact>
</mgrwt>
</event>
<event>
 5    0  0.8533808E-002  0.2608347E+03  0.7546771E-02  0.1106643E+00
         21   -1    0    0  501  502  0.00000000000E+00  0.00000000000E+00  0.22055904843E+03  0.22055904843E+03  0.00000000000E+00 0.  1.
         21   -1    0    0  502  503 -0.00000000000E+00 -0.00000000000E+00 -0.70113933377E+03  0.70113933377E+03  0.00000000000E+00 0. -1.
         25    1    1    2    0    0  0.19780462469E+03  0.11670483683E+03 -0.55139739687E+03  0.61025468271E+03  0.12500000000E+03 0.  0.
          2    1    1    2  501    0 -0.15782453200E+03 -0.17258598537E+03  0.45735404538E+02  0.23829862038E+03  0.00000000000E+00 0.  1.
         -2    1    1    2    0  503 -0.39980092691E+02  0.55881148533E+02  0.25081706991E+02  0.73145079113E+02  0.00000000000E+00 0. -1.
<mgrwt>
<rscale>  4 0.26083473E+03</rscale>
<asrwt>0</asrwt>
<pdfrwt beam="1">  1       21 0.33932161E-01 0.26083473E+03</pdfrwt>
<pdfrwt beam="2">  1       21 0.10786759E+00 0.26083473E+03</pdfrwt>
<totfact> 0.54655060E+03</totfact>
</mgrwt>
</event>
<event>
 5    0  0.8533808E-002  0.3490305E+03  0.7546771E-02  0.1063014E+00
         21   -1    0    0  503  502  0.00000000000E+00  0.00000000000E+00  0.74742300515E+03  0.74742300515E+03  0.00000000000E+00 0. -1.
         21   -1    0    0  501  503 -0.00000000000E+00 -0.00000000000E+00 -0.17528774535E+03  0.17528774535E+03  0.00000000000E+00 0. -1.
         25    1    1    2    0    0  0.29841266856E+03 -0.13094729225E+03  0.42456574222E+03  0.54961657869E+03  0.12500000000E+03 0.  0.
          1    1    1    2  501    0 -0.10935064652E+03  0.90457761402E+02  0.24815699105E+02  0.14406939097E+03  0.00000000000E+00 0.  1.
         -1    1    1    2    0  502 -0.18906202204E+03  0.40489530847E+02  0.12275381847E+03  0.22902478083E+03  0.00000000000E+00 0. -1.
<mgrwt>
<rscale>  4 0.34903053E+03</rscale>
<asrwt>0</asrwt>
<pdfrwt beam="1">  1       21 0.11498815E+00 0.34903053E+03</pdfrwt>
<pdfrwt beam="2">  1       21 0.26967346E-01 0.34903053E+03</pdfrwt>
<totfact> 0.70297494E+03</totfact>
</mgrwt>
</event>
<event>
 5    0  0.8533808E-002  0.2704593E+03  0.7546771E-02  0.1101017E+00
         21   -1    0    0  503  502  0.00000000000E+00  0.00000000000E+00  0.20632242339E+03  0.20632242339E+03  0.00000000000E+00 0. -1.
         21   -1    0    0  501  503 -0.00000000000E+00 -0.00000000000E+00 -0.68051478945E+03  0.68051478945E+03  0.00000000000E+00 0. -1.
         25    1    1    2    0    0  0.43735254199E+02  0.23581871371E+03  0.74841240681E+02  0.28062332316E+03  0.12500000000E+03 0.  0.
          3    1    1    2  501    0 -0.66266725094E+02 -0.12401682218E+03 -0.34335107915E+03  0.37102751191E+03  0.00000000000E+00 0. -1.
         -3    1    1    2    0  502  0.22531470895E+02 -0.11180189153E+03 -0.20568252759E+03  0.23518637777E+03  0.00000000000E+00 0.  1.
<mgrwt>
<rscale>  4 0.27045931E+03</rscale>
<asrwt>0</asrwt>
<pdfrwt beam="1">  1       21 0.31741911E-01 0.27045931E+03</pdfrwt>
<pdfrwt beam="2">  1       21 0.10469458E+00 0.27045931E+03</pdfrwt>
<totfact> 0.66717186E+03</totfact>
</mgrwt>
</event>
<event>
 5    0  0.8533808E-002  0.3361427E+03  0.7546771E-02  0.1068451E+00
         21   -1    0    0  501  502  0.00000000000E+00  0.00000000000E+00  0.46970099832E+03  0.46970099832E+03  0.00000000000E+00 0. -1.
         21   -1    0    0  502  503 -0.00000000000E+00 -0.00000000000E+00 -0.23227506910E+03  0.23227506910E+03  0.00000000000E+00 0. -1.
         25    1    1    2    0    0 -0.21759771400E+03  0.22364745296E+03  0.67169286531E+02  0.34278807069E+03  0.12500000000E+03 0.  0.
          3    1    1    2  501    0  0.16474635305E+03 -0.19784148436E+03  0.13929134845E+03  0.29271947925E+03  0.00000000000E+00 0. -1.
         -3    1    1    2    0  503  0.52851360950E+02 -0.25805968597E+02  0.30965294236E+02  0.66468517484E+02  0.00000000000E+00 0.  1.
<mgrwt>
<rscale>  4 0.33614275E+03</rscale>
<asrwt>0</asrwt>
<pdfrwt beam="1">  1       21 0.72261692E-01 0.33614275E+03</pdfrwt>
<pdfrwt beam="2">  1       21 0.35734626E-01 0.33614275E+03</pdfrwt>
<totfact> 0.12119150E+04</totfact>
</mgrwt>
</event>
<event>
 5    0  0.8533808E-002  0.2524250E+03  0.7546771E-02  0.1111782E+00
         21   -1    0    0  503  502  0.00000000000E+00  0.00000000000E+00  0.84988621180E+03  0.84988621180E+03  0.00000000000E+00 0.  1.
         21   -1    0    0  501  503 -0.00000000000E+00 -0.00000000000E+00 -0.79669754394E+02  0.79669754394E+02  0.00000000000E+00 0.  1.
         25    1    1    2    0    0 -0.14204769538E+02 -0.21884153398E+03  0.24481833487E+03  0.35164528941E+03  0.12500000000E+03 0.  0.
          3    1    1    2  501    0  0.96938384172E+01  0.14563349919E+03  0.22134025438E+03  0.26513127843E+03  0.00000000000E+00 0. -1.
         -3    1    1    2    0  502  0.45109311209E+01  0.73208034786E+02  0.30405786815E+03  0.31277939836E+03  0.00000000000E+00 0.  1.
<mgrwt>
<rscale>  4 0.25242502E+03</rscale>
<asrwt>0</asrwt>
<pdfrwt beam="1">  1       21 0.13075172E+00 0.25242502E+03</pdfrwt>
<pdfrwt beam="2">  1       21 0.12256886E-01 0.25242502E+03</pdfrwt>
<totfact> 0.23261438E+04</totfact>
</mgrwt>
</event>
<event>
 5    0  0.8533808E-002  0.2864706E+03  0.7546771E-02  0.1092206E+00
         21   -1    0    0  501  502  0.00000000000E+00  0.00000000000E+00  0.79595808237E+02  0.79595808237E+02  0.00000000000E+00 0.  1.
         21   -1    0    0  502  503 -0.00000000000E+00 -0.00000000000E+00 -0.11152020202E+04  0.11152020202E+04  0.00000000000E+00 0.  1.
         25    1    1    2    0    0  0.15679248278E+03  0.20458872623E+03 -0.31031989793E+03  0.42233146770E+03  0.12500000000E+03 0.  0.
          3    1    1    2  501    0 -0.13477852071E+03 -0.13848937189E+03 -0.47891622393E+03  0.51643518985E+03  0.00000000000E+00 0.  1.
         -3    1    1    2    0  503 -0.22013962065E+02 -0.66099354343E+02 -0.24637009013E+03  0.25603117092E+03  0.00000000000E+00 0. -1.
<mgrwt>
<rscale>  4 0.28647064E+03</rscale>
<asrwt>0</asrwt>
<pdfrwt beam="1">  1       21 0.12245511E-01 0.28647064E+03</pdfrwt>
<pdfrwt beam="2">  1       21 0.17156952E+00 0.28647064E+03</pdfrwt>
<totfact> 0.11076132E+04</totfact>
</mgrwt>
</event>
<event>
 5    0  0.8533808E-002  0.5282649E+03  0.7546771E-02  0.1006654E+00
         21   -1    0    0  503  502  0.00000000000E+00  0.00000000000E+00  0.21033636998E+03  0.21033636998E+03  0.00000000000E+00 0. -1.
         21   -1    0    0  501  503 -0.00000000000E+00 -0.00000000000E+00 -0.14543345755E+04  0.14543345755E+04  0.00000000000E+00 0.  1.
         25    1    1    2    0    0  0.38306026940E+03 -0.33541773503E+03 -0.63614730981E+03  0.82434739445E+03  0.12500000000E+03 0.  0.
          3    1    1    2  501    0 -0.29827755502E+02 -0.43285723901E+02 -0.11021707428E+03  0.12211122944E+03  0.00000000000E+00 0.  1.
         -3    1    1    2    0  502 -0.35323251390E+03  0.37870345893E+03 -0.49763382146E+03  0.71821232163E+03  0.00000000000E+00 0. -1.
<mgrwt>
<rscale>  4 0.52826494E+03</rscale>
<asrwt>0</asrwt>
<pdfrwt beam="1">  1       21 0.32359442E-01 0.52826494E+03</pdfrwt>
<pdfrwt beam="2">  1       21 0.22374378E+00 0.52826494E+03</pdfrwt>
<totfact> 0.69693900E+02</totfact>
</mgrwt>
</event>
<event>
 5    0  0.8533808E-002  0.2514797E+03  0.7546771E-02  0.1112373E+00
         21   -1    0    0  503  502  0.00000000000E+00  0.00000000000E+00  0.12726286210E+04  0.12726286210E+04  0.00000000000E+00 0. -1.
         21   -1    0    0  501  503 -0.00000000000E+00 -0.00000000000E+00 -0.18015693121E+03  0.18015693121E+03  0.00000000000E+00 0. -1.
         25    1    1    2    0    0  0.22238175898E+03 -0.56733525824E+02 -0.55680525681E+02  0.26720340682E+03  0.12500000000E+03 0.  0.
          4    1    1    2  501    0 -0.50469889063E+02  0.94125220398E+02  0.61352523918E+03  0.62275194574E+03  0.00000000000E+00 0.  1.
         -4    1    1    2    0  502 -0.17191186991E+03 -0.37391694573E+02  0.53462697629E+03  0.56283019963E+03  0.00000000000E+00 0. -1.
<mgrwt>
<rscale>  4 0.25147970E+03</rscale>
<asrwt>0</asrwt>
<pdfrwt beam="1">  1       21 0.19578901E+00 0.25147970E+03</pdfrwt>
<pdfrwt beam="2">  1       21 0.27716452E-01 0.25147970E+03</pdfrwt>
<totfact> 0.16811589E+03</totfact>
</mgrwt>
</event>
<event>
 5    0  0.8533808E-002  0.2469259E+03  0.7546771E-02  0.1115263E+00
         21   -1    0    0  503  502  0.00000000000E+00  0.00000000000E+00  0.16500008119E+04  0.16500008119E+04  0.00000000000E+00 0.  1.
         21   -1    0    0  501  503 -0.00000000000E+00 -0.00000000000E+00 -0.64105342696E+02  0.64105342696E+02  0.00000000000E+00 0.  1.
         25    1    1    2    0    0  0.21146384058E+03  0.25108325648E+02  0.21839954468E+03  0.32965246094E+03  0.12500000000E+03 0.  0.
          4    1    1    2  501    0 -0.38900397289E+02 -0.10797956100E+02  0.18552843490E+03  0.18987005273E+03  0.00000000000E+00 0. -1.
         -4    1    1    2    0  502 -0.17256344329E+03 -0.14310369548E+02  0.11819674897E+04  0.11945836410E+04  0.00000000000E+00 0.  1.
<mgrwt>
<rscale>  4 0.24692587E+03</rscale>
<asrwt>0</asrwt>
<pdfrwt beam="1">  1       21 0.25384625E+00 0.24692587E+03</pdfrwt>
<pdfrwt beam="2">  1       21 0.98623616E-02 0.24692587E+03</pdfrwt>
<totfact> 0.49890916E+03</totfact>
</mgrwt>
</event>
<event>
 5    0  0.8533808E-002  0.4166755E+03  0.7546771E-02  0.1038154E+00
         21   -1    0    0  501  502  0.00000000000E+00  0.00000000000E+00  0.39493046459E+03  0.39493046459E+03  0.00000000000E+00 0. -1.
         21   -1    0    0  502  503 -0.00000000000E+00 -0.00000000000E+00 -0.79054049388E+03  0.79054049388E+03  0.00000000000E+00 0. -1.
         25    1    1    2    0    0 -0.69321338058E+02 -0.25160144013E+03 -0.36011803098E+03  0.46197264943E+03  0.12500000000E+03 0.  0.
          4    1    1    2  501    0  0.16147029526E+03  0.42676129314E+03  0.12000108513E+03  0.47180305001E+03  0.00000000000E+00 0. -1.
         -4    1    1    2    0  503 -0.92148957199E+02 -0.17515985300E+03 -0.15549308344E+03  0.25169525902E+03  0.00000000000E+00 0.  1.
<mgrwt>
<rscale>  4 0.41667548E+03</rscale>
<asrwt>0</asrwt>
<pdfrwt beam="1">  1       21 0.60758533E-01 0.41667548E+03</pdfrwt>
<pdfrwt beam="2">  1       21 0.12162161E+00 0.41667548E+03</pdfrwt>
<totfact> 0.11109134E+03</totfact>
</mgrwt>
</event>
<event>
 5    0  0.8533808E-002  0.3580615E+03  0.7546771E-02  0.1059354E+00
         21   -1    0    0  501  502  0.00000000000E+00  0.00000000000E+00  0.79434364674E+03  0.79434364674E+03  0.00000000000E+00 0. -1.
         21   -1    0    0  502  503 -0.00000000000E+00 -0.00000000000E+00 -0.19859258286E+03  0.19859258286E+03  0.00000000000E+00 0.  1.
         25    1    1    2    0    0  0.24318187769E+03 -0.23118313917E+03  0.68559426696E+02  0.36456613181E+03  0.12500000000E+03 0.  0.
          1    1    1    2  501    0 -0.18087454268E+03  0.12909151140E+03  0.35037762393E+03  0.41490323914E+03  0.00000000000E+00 0.  1.
         -1    1    1    2    0  503 -0.62307335014E+02  0.10209162777E+03  0.17681401325E+03  0.21346685865E+03  0.00000000000E+00 0. -1.
<mgrwt>
<rscale>  4 0.35806154E+03</rscale>
<asrwt>0</asrwt>
<pdfrwt beam="1">  1       21 0.12220671E+00 0.35806154E+03</pdfrwt>
<pdfrwt beam="2">  1       21 0.30552706E-01 0.35806154E+03</pdfrwt>
<totfact> 0.47014539E+03</totfact>
</mgrwt>
</event>
<event>
 5    0  0.8533808E-002  0.3047468E+03  0.7546771E-02  0.1082892E+00
         21   -1    0    0  501  502  0.00000000000E+00  0.00000000000E+00  0.45994005788E+03  0.45994005788E+03  0.00000000000E+00 0.  1.
         21   -1    0    0  502  503 -0.00000000000E+00 -0.00000000000E+00 -0.63536930805E+03  0.63536930805E+03  0.00000000000E+00 0.  1.
         25    1    1    2    0    0  0.10198448341E+02  0.27774372201E+03 -0.54546473424E+03  0.62482186242E+03  0.12500000000E+03 0.  0.
          4    1    1    2  501    0  0.83838361976E+01 -0.45427600536E+02  0.12046194087E+03  0.12901563780E+03  0.00000000000E+00 0. -1.
         -4    1    1    2    0  503 -0.18582284539E+02 -0.23231612148E+03  0.24957354321E+03  0.34147186570E+03  0.00000000000E+00 0.  1.
<mgrwt>
<rscale>  4 0.30474675E+03</rscale>
<asrwt>0</asrwt>
<pdfrwt beam="1">  1       21 0.70760009E-01 0.30474675E+03</pdfrwt>
<pdfrwt beam="2">  1       21 0.97749124E-01 0.30474675E+03</pdfrwt>
<totfact> 0.14392383E+03</totfact>
</mgrwt>
</event>
<event>
 5    0  0.8533808E-002  0.2883613E+03  0.7546771E-02  0.1091208E+00
         21   -1    0    0  501  502  0.00000000000E+00  0.00000000000E+00  0.69512647353E+02  0.69512647353E+02  0.00000000000E+00 0.  1.
         21   -1    0    0  502  503 -0.00000000000E+00 -0.00000000000E+00 -0.14257068316E+04  0.14257068316E+04  0.00000000000E+00 0.  1.
         25    1    1    2    0    0 -0.15839410177E+03  0.20600620067E+03 -0.34738254262E+03  0.45147190069E+03  0.12500000000E+03 0.  0.
          1    1    1    2  501    0  0.57677757033E+02 -0.39884434221E+02 -0.34687391721E+03  0.35389123497E+03  0.00000000000E+00 0. -1.
         -1    1    1    2    0  503  0.10071634473E+03 -0.16612176645E+03 -0.66193772446E+03  0.68985634334E+03  0.00000000000E+00 0.  1.
<mgrwt>
<rscale>  4 0.28836131E+03</rscale>
<asrwt>0</asrwt>
<pdfrwt beam="1">  1       21 0.10694255E-01 0.28836131E+03</pdfrwt>
<pdfrwt beam="2">  1       21 0.21933949E+00 0.28836131E+03</pdfrwt>
<totfact> 0.67983256E+03</totfact>
</mgrwt>
</event>
<event>
 5    0  0.8533808E-002  0.3693180E+03  0.7546771E-02  0.1054954E+00
         21   -1    0    0  503  502  0.00000000000E+00  0.00000000000E+00  0.41544822406E+03  0.41544822406E+03  0.00000000000E+00 0. -1.
         21   -1    0    0  501  503 -0.00000000000E+00 -0.00000000000E+00 -0.40644946239E+03  0.40644946239E+03  0.00000000000E+00 0. -1.
         25    1    1    2    0    0 -0.18632489775E+03  0.29334926308E+03 -0.19033620304E+03  0.41547999694E+03  0.12500000000E+03 0.  0.
          1    1    1    2  501    0  0.15185239880E+03 -0.27627598297E+03  0.17107248594E+03  0.35868281982E+03  0.00000000000E+00 0. -1.
         -1    1    1    2    0  502  0.34472498946E+02 -0.17073280111E+02  0.28262478771E+02  0.47734869682E+02  0.00000000000E+00 0.  1.
<mgrwt>
<rscale>  4 0.36931796E+03</rscale>
<asrwt>0</asrwt>
<pdfrwt beam="1">  1       21 0.63915112E-01 0.36931796E+03</pdfrwt>
<pdfrwt beam="2">  1       21 0.62530686E-01 0.36931796E+03</pdfrwt>
<totfact> 0.48523143E+03</totfact>
</mgrwt>
</event>
<event>
 5    0  0.8533808E-002  0.2418246E+03  0.7546771E-02  0.1118583E+00
         21   -1    0    0  503  502  0.00000000000E+00  0.00000000000E+00  0.23463850000E+03  0.23463850000E+03  0.00000000000E+00 0.  1.
         21   -1    0    0  501  503 -0.00000000000E+00 -0.00000000000E+00 -0.26190830524E+03  0.26190830524E+03  0.00000000000E+00 0.  1.
         25    1    1    2    0    0 -0.66780055025E+02  0.21211070853E+03 -0.41729399475E+02  0.25848959593E+03  0.12500000000E+03 0.  0.
          3    1    1    2  501    0  0.59282505644E+02 -0.18966181600E+03  0.40576603129E+02  0.20281144111E+03  0.00000000000E+00 0.  1.
         -3    1    1    2    0  502  0.74975493804E+01 -0.22448892535E+02 -0.26117008892E+02  0.35245768203E+02  0.00000000000E+00 0. -1.
<mgrwt>
<rscale>  4 0.24182458E+03</rscale>
<asrwt>0</asrwt>
<pdfrwt beam="1">  1       21 0.36098231E-01 0.24182458E+03</pdfrwt>
<pdfrwt beam="2">  1       21 0.40293585E-01 0.24182458E+03</pdfrwt>
<totfact> 0.42922373E+04</totfact>
</mgrwt>
</event>
<event>
 5    0  0.8533808E-002  0.2499978E+03  0.7546771E-02  0.1113306E+00
         21   -1    0    0  503  502  0.00000000000E+00  0.00000000000E+00  0.29859191612E+03  0.29859191612E+03  0.00000000000E+00 0. -1.
         21   -1    0    0  501  503 -0.00000000000E+00 -0.00000000000E+00 -0.41860325887E+03  0.41860325887E+03  0.00000000000E+00 0. -1.
         25    1    1    2    0    0  0.26846211989E+03  0.12221684187E+03 -0.16890707071E+03  0.36216496903E+03  0.12500000000E+03 0.  0.
          2    1    1    2  501    0 -0.14625284144E+03 -0.86742171084E+02 -0.67139179576E+02  0.18281621183E+03  0.00000000000E+00 0.  1.
         -2    1    1    2    0  502 -0.12220927845E+03 -0.35474670789E+02  0.11603490753E+03  0.17221399413E+03  0.00000000000E+00 0. -1.
<mgrwt>
<rscale>  4 0.24999782E+03</rscale>
<asrwt>0</asrwt>
<pdfrwt beam="1">  1       21 0.45937218E-01 0.24999782E+03</pdfrwt>
<pdfrwt beam="2">  1       21 0.64400501E-01 0.24999782E+03</pdfrwt>
<totfact> 0.97443271E+03</totfact>
</mgrwt>
</event>
<event>
 5    0  0.8533808E-002  0.2496797E+03  0.7546771E-02  0.1113507E+00
         21   -1    0    0  501  502  0.00000000000E+00  0.00000000000E+00  0.53908736612E+03  0.53908736612E+03  0.00000000000E+00 0.  1.
         21   -1    0    0  502  503 -0.00000000000E+00 -0.00000000000E+00 -0.10523785955E+03  0.10523785955E+03  0.00000000000E+00 0.  1.
         25    1    1    2    0    0 -0.19891912651E+03  0.84534943674E+02  0.25260230933E+03  0.35517305961E+03  0.12500000000E+03 0.  0.
          3    1    1    2  501    0  0.67027881559E+02 -0.48465404293E+02  0.10122950762E+03  0.13072507614E+03  0.00000000000E+00 0. -1.
         -3    1    1    2    0  503  0.13189124495E+03 -0.36069539381E+02  0.80017689628E+02  0.15842708992E+03  0.00000000000E+00 0.  1.
<mgrwt>
<rscale>  4 0.24967975E+03</rscale>
<asrwt>0</asrwt>
<pdfrwt beam="1">  1       21 0.82936517E-01 0.24967975E+03</pdfrwt>
<pdfrwt beam="2">  1       21 0.16190440E-01 0.24967975E+03</pdfrwt>
<totfact> 0.42087732E+04</totfact>
</mgrwt>
</event>
<event>
 5    0  0.8533808E-002  0.2508052E+03  0.7546771E-02  0.1112797E+00
         21   -1    0    0  503  502  0.00000000000E+00  0.00000000000E+00  0.40752434203E+03  0.40752434203E+03  0.00000000000E+00 0. -1.
         21   -1    0    0  501  503 -0.00000000000E+00 -0.00000000000E+00 -0.45777476677E+03  0.45777476677E+03  0.00000000000E+00 0. -1.
         25    1    1    2    0    0  0.20937101820E+03  0.75955804251E+02  0.30224688384E+03  0.39570656584E+03  0.12500000000E+03 0.  0.
          2    1    1    2  501    0 -0.20665968918E+03  0.18809067091E+02 -0.18944789189E+03  0.28098489617E+03  0.00000000000E+00 0. -1.
         -2    1    1    2    0  502 -0.27113290217E+01 -0.94764871342E+02 -0.16304941668E+03  0.18860764679E+03  0.00000000000E+00 0.  1.
<mgrwt>
<rscale>  4 0.25080520E+03</rscale>
<asrwt>0</asrwt>
<pdfrwt beam="1">  1       21 0.62696053E-01 0.25080520E+03</pdfrwt>
<pdfrwt beam="2">  1       21 0.70426887E-01 0.25080520E+03</pdfrwt>
<totfact> 0.41317437E+03</totfact>
</mgrwt>
</event>
<event>
 5    0  0.8533808E-002  0.2696377E+03  0.7546771E-02  0.1101487E+00
         21   -1    0    0  503  502  0.00000000000E+00  0.00000000000E+00  0.88014164987E+03  0.88014164987E+03  0.00000000000E+00 0.  1.
         21   -1    0    0  501  503 -0.00000000000E+00 -0.00000000000E+00 -0.39610997079E+03  0.39610997079E+03  0.00000000000E+00 0.  1.
         25    1    1    2    0    0  0.21531119872E+03 -0.10821086948E+03  0.81148835643E+03  0.85569086543E+03  0.12500000000E+03 0.  0.
          4    1    1    2  501    0 -0.15192311215E+02  0.28955711061E+02 -0.10933434636E+03  0.11411940596E+03  0.00000000000E+00 0.  1.
         -4    1    1    2    0  502 -0.20011888750E+03  0.79255158415E+02 -0.21812233099E+03  0.30644134927E+03  0.00000000000E+00 0. -1.
<mgrwt>
<rscale>  4 0.26963773E+03</rscale>
<asrwt>0</asrwt>
<pdfrwt beam="1">  1       21 0.13540641E+00 0.26963773E+03</pdfrwt>
<pdfrwt beam="2">  1       21 0.60939996E-01 0.26963773E+03</pdfrwt>
<totfact> 0.91223811E+02</totfact>
</mgrwt>
</event>
<event>
 5    0  0.8533808E-002  0.2333449E+03  0.7546771E-02  0.1124307E+00
         21   -1    0    0  501  502  0.00000000000E+00  0.00000000000E+00  0.38361512450E+03  0.38361512450E+03  0.00000000000E+00 0. -1.
         21   -1    0    0  502  503 -0.00000000000E+00 -0.00000000000E+00 -0.23086649676E+03  0.23086649676E+03  0.00000000000E+00 0. -1.
         25    1    1    2    0    0  0.38727237531E+02 -0.25520007240E+03  0.65428762784E+02  0.29416457788E+03  0.12500000000E+03 0.  0.
          2    1    1    2  501    0  0.60495825010E+02  0.15830379016E+03  0.50208801562E+02  0.17675055467E+03  0.00000000000E+00 0.  1.
         -2    1    1    2    0  503 -0.99223062541E+02  0.96896282245E+02  0.37111063398E+02  0.14356648871E+03  0.00000000000E+00 0. -1.
<mgrwt>
<rscale>  4 0.23334490E+03</rscale>
<asrwt>0</asrwt>
<pdfrwt beam="1">  1       21 0.59017711E-01 0.23334490E+03</pdfrwt>
<pdfrwt beam="2">  1       21 0.35517923E-01 0.23334490E+03</pdfrwt>
<totfact> 0.20050278E+04</totfact>
</mgrwt>
</event>
<event>
 5    0  0.8533808E-002  0.2668251E+03  0.7546771E-02  0.1103111E+00
         21   -1    0    0  503  502  0.00000000000E+00  0.00000000000E+00  0.90445763811E+03  0.90445763811E+03  0.00000000000E+00 0. -1.
         21   -1    0    0  501  503 -0.00000000000E+00 -0.00000000000E+00 -0.18187901090E+03  0.18187901090E+03  0.00000000000E+00 0. -1.
         25    1    1    2    0    0  0.11186417848E+03 -0.24228149762E+03  0.10696551464E+03  0.31349727246E+03  0.12500000000E+03 0.  0.
          2    1    1    2  501    0 -0.18269110913E+03  0.13014881402E+03  0.10944828572E+03  0.24958702368E+03  0.00000000000E+00 0. -1.
         -2    1    1    2    0  502  0.70826930641E+02  0.11213268360E+03  0.50616482686E+03  0.52325235287E+03  0.00000000000E+00 0.  1.
<mgrwt>
<rscale>  4 0.26682509E+03</rscale>
<asrwt>0</asrwt>
<pdfrwt beam="1">  1       21 0.13914733E+00 0.26682509E+03</pdfrwt>
<pdfrwt beam="2">  1       21 0.27981387E-01 0.26682509E+03</pdfrwt>
<totfact> 0.41989231E+03</totfact>
</mgrwt>
</event>
<event>
 5    0  0.8533808E-002  0.2244532E+03  0.7546771E-02  0.1130606E+00
         21   -1    0    0  503  502  0.00000000000E+00  0.00000000000E+00  0.75140054755E+02  0.75140054755E+02  0.00000000000E+00 0.  1.
         21   -1    0    0  501  503 -0.00000000000E+00 -0.00000000000E+00 -0.18818676133E+04  0.18818676133E+04  0.00000000000E+00 0. -1.
         25    1    1    2    0    0 -0.84852246184E+02  0.18432600034E+03 -0.16689134282E+04  0.16858448947E+04  0.12500000000E+03 0.  0.
          2    1    1    2  501    0  0.78359160530E+02 -0.11070696385E+03 -0.14298038543E+03  0.19707760020E+03  0.00000000000E+00 0. -1.
         -2    1    1    2    0  502  0.64930856539E+01 -0.73619036490E+02  0.51662550697E+01  0.74085173189E+02  0.00000000000E+00 0.  1.
<mgrwt>
<rscale>  4 0.22445316E+03</rscale>
<asrwt>0</asrwt>
<pdfrwt beam="1">  1       21 0.11560010E-01 0.22445316E+03</pdfrwt>
<pdfrwt beam="2">  1       21 0.28951805E+00 0.22445316E+03</pdfrwt>
<totfact> 0.23724546E+03</totfact>
</mgrwt>
</event>
<event>
 5    0  0.8533808E-002  0.2880860E+03  0.7546771E-02  0.1091353E+00
         21   -1    0    0  503  502  0.00000000000E+00  0.00000000000E+00  0.19743489796E+04  0.19743489796E+04  0.00000000000E+00 0.  1.
         21   -1    0    0  501  503 -0.00000000000E+00 -0.00000000000E+00 -0.80323290993E+02  0.80323290993E+02  0.00000000000E+00 0.  1.
         25    1    1    2    0    0  0.13283612110E+03  0.22298672897E+03  0.23564292646E+03  0.37218423550E+03  0.12500000000E+03 0.  0.
          3    1    1    2  501    0 -0.78343795424E+01 -0.11437053299E+03  0.55174267405E+03  0.56352637444E+03  0.00000000000E+00 0. -1.
         -3    1    1    2    0  502 -0.12500174156E+03 -0.10861619598E+03  0.11066400881E+04  0.11189616607E+04  0.00000000000E+00 0.  1.
<mgrwt>
<rscale>  4 0.28808595E+03</rscale>
<asrwt>0</asrwt>
<pdfrwt beam="1">  1       21 0.30374596E+00 0.28808595E+03</pdfrwt>
<pdfrwt beam="2">  1       21 0.12357431E-01 0.28808595E+03</pdfrwt>
<totfact> 0.16353134E+03</totfact>
</mgrwt>
</event>
<event>
 5    0  0.8533808E-002  0.2456254E+03  0.7546771E-02  0.1116101E+00
         21   -1    0    0  503  502  0.00000000000E+00  0.00000000000E+00  0.68894645611E+02  0.68894645611E+02  0.00000000000E+00 0.  1.
         21   -1    0    0  501  503 -0.00000000000E+00 -0.00000000000E+00 -0.96836550330E+03  0.96836550330E+03  0.00000000000E+00 0.  1.
         25    1    1    2    0    0 -0.60692515109E+02 -0.20254203229E+03 -0.27008493292E+03  0.36507222193E+03  0.12500000000E+03 0.  0.
          1    1    1    2  501    0  0.66546219572E+02  0.85007021220E+02 -0.20375047021E+03  0.23058370954E+03  0.00000000000E+00 0. -1.
         -1    1    1    2    0  502 -0.58537044631E+01  0.11753501107E+03 -0.42563545456E+03  0.44160421744E+03  0.00000000000E+00 0.  1.
<mgrwt>
<rscale>  4 0.24562544E+03</rscale>
<asrwt>0</asrwt>
<pdfrwt beam="1">  1       21 0.10599177E-01 0.24562544E+03</pdfrwt>
<pdfrwt beam="2">  1       21 0.14897929E+00 0.24562544E+03</pdfrwt>
<totfact> 0.21570726E+04</totfact>
</mgrwt>
</event>
<event>
 5    0  0.8533808E-002  0.3659100E+03  0.7546771E-02  0.1056268E+00
         21   -1    0    0  503  502  0.00000000000E+00  0.00000000000E+00  0.12124285066E+04  0.12124285066E+04  0.00000000000E+00 0.  1.
         21   -1    0    0  501  503 -0.00000000000E+00 -0.00000000000E+00 -0.21756050779E+03  0.21756050779E+03  0.00000000000E+00 0.  1.
         25    1    1    2    0    0  0.14709073632E+03  0.32271039995E+03  0.15905235790E+02  0.37637170918E+03  0.12500000000E+03 0.  0.
          4    1    1    2  501    0 -0.67123830581E+02 -0.29604756423E+03  0.80424913031E+03  0.85963156790E+03  0.00000000000E+00 0.  1.
         -4    1    1    2    0  502 -0.79966905742E+02 -0.26662835721E+02  0.17471363267E+03  0.19398573727E+03  0.00000000000E+00 0. -1.
<mgrwt>
<rscale>  4 0.36590997E+03</rscale>
<asrwt>0</asrwt>
<pdfrwt beam="1">  1       21 0.18652746E+00 0.36590997E+03</pdfrwt>
<pdfrwt beam="2">  1       21 0.33470848E-01 0.36590997E+03</pdfrwt>
<totfact> 0.12384321E+03</totfact>
</mgrwt>
</event>
<event>
 5    0  0.8533808E-002  0.2082995E+03  0.7546771E-02  0.1142920E+00
         21   -1    0    0  503  502  0.00000000000E+00  0.00000000000E+00  0.33990604083E+03  0.33990604083E+03  0.00000000000E+00 0. -1.
         21   -1    0    0  501  503 -0.00000000000E+00 -0.00000000000E+00 -0.18246309775E+03  0.18246309775E+03  0.00000000000E+00 0. -1.
         25    1    1    2    0    0 -0.19625798049E+03 -0.52974631080E+02  0.37670713867E+02  0.24159385159E+03  0.12500000000E+03 0.  0.
          4    1    1    2  501    0  0.44404788469E+02  0.21047533960E+02 -0.35990019674E+02  0.60910306525E+02  0.00000000000E+00 0.  1.
         -4    1    1    2    0  502  0.15185319202E+03  0.31927097120E+02  0.15576224889E+03  0.21986498047E+03  0.00000000000E+00 0. -1.
<mgrwt>
<rscale>  4 0.20829952E+03</rscale>
<asrwt>0</asrwt>
<pdfrwt beam="1">  1       21 0.52293237E-01 0.20829952E+03</pdfrwt>
<pdfrwt beam="2">  1       21 0.28071246E-01 0.20829952E+03</pdfrwt>
<totfact> 0.41727029E+04</totfact>
</mgrwt>
</event>
<event>
 5    0  0.8533808E-002  0.2806967E+03  0.7546771E-02  0.1095309E+00
         21   -1    0    0  503  502  0.00000000000E+00  0.00000000000E+00  0.64964244009E+03  0.64964244009E+03  0.00000000000E+00 0. -1.
         21   -1    0    0  501  503 -0.00000000000E+00 -0.00000000000E+00 -0.17284548558E+03  0.17284548558E+03  0.00000000000E+00 0. -1.
         25    1    1    2    0    0  0.24332735631E+03  0.15105083175E+03  0.86147311547E+02  0.32414644127E+03  0.12500000000E+03 0.  0.
          3    1    1    2  501    0 -0.21005370109E+03 -0.11831259229E+03  0.38069992246E+03  0.45061386773E+03  0.00000000000E+00 0. -1.
         -3    1    1    2    0  502 -0.33273655224E+02 -0.32738239463E+02  0.99497205032E+01  0.47727616672E+02  0.00000000000E+00 0.  1.
<mgrwt>
<rscale>  4 0.28069669E+03</rscale>
<asrwt>0</asrwt>
<pdfrwt beam="1">  1       21 0.99944990E-01 0.28069669E+03</pdfrwt>
<pdfrwt beam="2">  1       21 0.26591613E-01 0.28069669E+03</pdfrwt>
<totfact> 0.10499396E+04</totfact>
</mgrwt>
</event>
<event>
 5    0  0.8533808E-002  0.2491608E+03  0.7546771E-02  0.1113836E+00
         21   -1    0    0  501  502  0.00000000000E+00  0.00000000000E+00  0.94311728099E+03  0.94311728099E+03  0.00000000000E+00 0. -1.
         21   -1    0    0  502  503 -0.00000000000E+00 -0.00000000000E+00 -0.35814459016E+03  0.35814459016E+03  0.00000000000E+00 0. -1.
         25    1    1    2    0    0 -0.13342226584E+03  0.17138557256E+03 -0.29231888267E+03  0.38503226446E+03  0.12500000000E+03 0.  0.
          2    1    1    2  501    0 -0.16698087596E+02 -0.40325316297E+02  0.34692238951E+03  0.34965712006E+03  0.00000000000E+00 0.  1.
         -2    1    1    2    0  503  0.15012035344E+03 -0.13106025627E+03  0.53036918399E+03  0.56657248664E+03  0.00000000000E+00 0. -1.
<mgrwt>
<rscale>  4 0.24916083E+03</rscale>
<asrwt>0</asrwt>
<pdfrwt beam="1">  1       21 0.14509497E+00 0.24916083E+03</pdfrwt>
<pdfrwt beam="2">  1       21 0.55099168E-01 0.24916083E+03</pdfrwt>
<totfact> 0.96121892E+02</totfact>
</mgrwt>
</event>
<event>
 5    0  0.8533808E-002  0.1980437E+03  0.7546771E-02  0.1151400E+00
         21   -1    0    0  503  502  0.00000000000E+00  0.00000000000E+00  0.39047638402E+03  0.39047638402E+03  0.00000000000E+00 0.  1.
         21   -1    0    0  501  503 -0.00000000000E+00 -0.00000000000E+00 -0.24100321377E+03  0.24100321377E+03  0.00000000000E+00 0.  1.
         25    1    1    2    0    0 -0.16736944674E+03  0.15330626348E+03 -0.73927850458E+02  0.26945439168E+03  0.12500000000E+03 0.  0.
          2    1    1    2  501    0  0.40764898855E+02 -0.82240661739E+02 -0.43959976791E+01  0.91894658264E+02  0.00000000000E+00 0. -1.
         -2    1    1    2    0  502  0.12660454788E+03 -0.71065601738E+02  0.22779701839E+03  0.27013054785E+03  0.00000000000E+00 0.  1.
<mgrwt>
<rscale>  4 0.19804368E+03</rscale>
<asrwt>0</asrwt>
<pdfrwt beam="1">  1       21 0.60073290E-01 0.19804368E+03</pdfrwt>
<pdfrwt beam="2">  1       21 0.37077417E-01 0.19804368E+03</pdfrwt>
<totfact> 0.18070970E+04</totfact>
</mgrwt>
</event>
<event>
 5    0  0.8533808E-002  0.2928001E+03  0.7546771E-02  0.1088896E+00
         21   -1    0    0  501  502  0.00000000000E+00  0.00000000000E+00  0.28023469341E+04  0.28023469341E+04  0.00000000000E+00 0.  1.
         21   -1    0    0  502  503 -0.00000000000E+00 -0.00000000000E+00 -0.15270516351E+03  0.15270516351E+03  0.00000000000E+00 0. -1.
         25    1    1    2    0    0  0.18758169778E+03  0.19242944824E+03  0.12545282716E+02  0.29664519212E+03  0.12500000000E+03 0.  0.
          1    1    1    2  501    0 -0.19353954915E+02 -0.32884439650E+02  0.13535933800E+04  0.13541310869E+04  0.00000000000E+00 0.  1.
         -1    1    1    2    0  503 -0.16822774286E+03 -0.15954500859E+03  0.12835031079E+04  0.13042758187E+04  0.00000000000E+00 0. -1.
<mgrwt>
<rscale>  4 0.29280006E+03</rscale>
<asrwt>0</asrwt>
<pdfrwt beam="1">  1       21 0.43113026E+00 0.29280006E+03</pdfrwt>
<pdfrwt beam="2">  1       21 0.23493104E-01 0.29280006E+03</pdfrwt>
<totfact> 0.81202256E+01</totfact>
</mgrwt>
</event>
<event>
 5    0  0.8533808E-002  0.3026539E+03  0.7546771E-02  0.1083921E+00
         21   -1    0    0  503  502  0.00000000000E+00  0.00000000000E+00  0.76440269811E+02  0.76440269811E+02  0.00000000000E+00 0. -1.
         21   -1    0    0  501  503 -0.00000000000E+00 -0.00000000000E+00 -0.13430882724E+04  0.13430882724E+04  0.00000000000E+00 0. -1.
         25    1    1    2    0    0  0.25507463974E+03 -0.10445719343E+03 -0.35871945704E+03  0.46933892440E+03  0.12500000000E+03 0.  0.
          4    1    1    2  501    0 -0.23218534146E+03  0.10870808042E+03 -0.84762654924E+03  0.88554968608E+03  0.00000000000E+00 0. -1.
         -4    1    1    2    0  502 -0.22889298278E+02 -0.42508869908E+01 -0.60301996328E+02  0.64639931753E+02  0.00000000000E+00 0.  1.
<mgrwt>
<rscale>  4 0.30265389E+03</rscale>
<asrwt>0</asrwt>
<pdfrwt beam="1">  1       21 0.11760041E-01 0.30265389E+03</pdfrwt>
<pdfrwt beam="2">  1       21 0.20662897E+00 0.30265389E+03</pdfrwt>
<totfact> 0.68452243E+03</totfact>
</mgrwt>
</event>
