<event>
 5    0  0.1911311E+001  0.1919198E+03  0.7546771E-02  0.1156741E+00
         21   -1    0    0  503  501  0.00000000000E+00  0.00000000000E+00  0.49733545870E+02  0.49733545870E+02  0.00000000000E+00 0. -1.
         21   -1    0    0  501  502 -0.00000000000E+00 -0.00000000000E+00 -0.17200176852E+04  0.17200176852E+04  0.00000000000E+00 0. -1.
         25    1    1    2    0    0 -0.18907342941E+03  0.91293543258E+02 -0.68498976561E+03  0.72726834920E+03  0.12500000000E+03 0.  0.
         21    1    1    2  503  504  0.61711814742E+02 -0.58723266704E+02 -0.84848244860E+03  0.85274804937E+03  0.00000000000E+00 0. -1.
         21    1    1    2  504  502  0.12736161466E+03 -0.32570276554E+02 -0.13681192507E+03  0.18973483246E+03  0.00000000000E+00 0. -1.
<mgrwt>
<rscale>  4 0.19191984E+03</rscale>
<asrwt>0</asrwt>
<pdfrwt beam="1">  1       21 0.76513161E-02 0.19191984E+03</pdfrwt>
<pdfrwt beam="2">  1       21 0.26461806E+00 0.19191984E+03</pdfrwt>
<totfact> 0.70883380E+03</totfact>
</mgrwt>
</event>
<event>
 5    0  0.1911311E+001  0.2330773E+03  0.7546771E-02  0.1124492E+00
         21   -1    0    0  502  501  0.00000000000E+00  0.00000000000E+00  0.52729886190E+03  0.52729886190E+03  0.00000000000E+00 0. -1.
         21   -1    0    0  504  502 -0.00000000000E+00 -0.00000000000E+00 -0.11425804544E+04  0.11425804544E+04  0.00000000000E+00 0. -1.
         25    1    1    2    0    0 -0.11084785624E+03 -0.21203378180E+03  0.31112828302E+03  0.41191185993E+03  0.12500000000E+03 0.  0.
         21    1    1    2  503  501 -0.51161639884E+01  0.54327427230E+02  0.15222700518E+03  0.16171179793E+03  0.00000000000E+00 0. -1.
         21    1    1    2  504  503  0.11596402023E+03  0.15770635457E+03 -0.10786368807E+04  0.10962556584E+04  0.00000000000E+00 0. -1.
<mgrwt>
<rscale>  4 0.23307730E+03</rscale>
<asrwt>0</asrwt>
<pdfrwt beam="1">  1       21 0.81122902E-01 0.23307730E+03</pdfrwt>
<pdfrwt beam="2">  1       21 0.17578161E+00 0.23307730E+03</pdfrwt>
<totfact> 0.24714595E+02</totfact>
</mgrwt>
</event>
<event>
 5    0  0.1911311E+001  0.2212199E+03  0.7546771E-02  0.1132977E+00
         21   -1    0    0  504  501  0.00000000000E+00  0.00000000000E+00  0.58804483526E+03  0.58804483526E+03  0.00000000000E+00 0.  1.
         21   -1    0    0  501  502 -0.00000000000E+00 -0.00000000000E+00 -0.17699811932E+03  0.17699811932E+03  0.00000000000E+00 0.  1.
         25    1    1    2    0    0  0.24387759049E+02  0.20509752266E+03  0.42398296755E+03  0.48789990097E+03  0.12500000000E+03 0.  0.
         21    1    1    2  503  502 -0.98114936198E+02 -0.72177565353E+02 -0.26124900213E+02  0.12457388192E+03  0.00000000000E+00 0.  1.
         21    1    1    2  504  503  0.73727177150E+02 -0.13291995731E+03  0.13188648606E+02  0.15256917170E+03  0.00000000000E+00 0.  1.
<mgrwt>
<rscale>  4 0.22121990E+03</rscale>
<asrwt>0</asrwt>
<pdfrwt beam="1">  1       21 0.90468435E-01 0.22121990E+03</pdfrwt>
<pdfrwt beam="2">  1       21 0.27230480E-01 0.22121990E+03</pdfrwt>
<totfact> 0.13102977E+04</totfact>
</mgrwt>
</event>
<event>
 5    0  0.1911311E+001  0.2159897E+03  0.7546771E-02  0.1136909E+00
         21   -1    0    0  503  501  0.00000000000E+00  0.00000000000E+00  0.21438547276E+03  0.21438547276E+03  0.00000000000E+00 0. -1.
         21   -1    0    0  504  502 -0.00000000000E+00 -0.00000000000E+00 -0.40297237743E+03  0.40297237743E+03  0.00000000000E+00 0. -1.
         25    1    1    2    0    0  0.20644176677E+03  0.25143638041E+02 -0.25494967200E+03  0.35195843626E+03  0.12500000000E+03 0.  0.
         21    1    1    2  503  502 -0.37629521817E+02  0.41926931949E+01 -0.46696576157E+02  0.60117633130E+02  0.00000000000E+00 0.  1.
         21    1    1    2  504  501 -0.16881224496E+03 -0.29336331236E+02  0.11305934349E+03  0.20528178080E+03  0.00000000000E+00 0. -1.
<mgrwt>
<rscale>  4 0.21598973E+03</rscale>
<asrwt>0</asrwt>
<pdfrwt beam="1">  1       21 0.32982381E-01 0.21598973E+03</pdfrwt>
<pdfrwt beam="2">  1       21 0.61995749E-01 0.21598973E+03</pdfrwt>
<totfact> 0.21083132E+04</totfact>
</mgrwt>
</event>
<event>
 5    0  0.1911311E+001  0.2557629E+03  0.7546771E-02  0.1109716E+00
         21   -1    0    0  502  501  0.00000000000E+00  0.00000000000E+00  0.84346283278E+03  0.84346283278E+03  0.00000000000E+00 0. -1.
         21   -1    0    0  504  502 -0.00000000000E+00 -0.00000000000E+00 -0.69879715624E+03  0.69879715624E+03  0.00000000000E+00 0. -1.
         25    1    1    2    0    0 -0.78385418744E+02  0.22573887860E+03  0.71434863171E+03  0.76355830348E+03  0.12500000000E+03 0.  0.
         21    1    1    2  503  501  0.47929294638E+02 -0.49787610675E+01  0.79150030722E+02  0.92664624909E+02  0.00000000000E+00 0.  1.
         21    1    1    2  504  503  0.30456124106E+02 -0.22076011753E+03 -0.64883298589E+03  0.68603706064E+03  0.00000000000E+00 0. -1.
<mgrwt>
<rscale>  4 0.25576292E+03</rscale>
<asrwt>0</asrwt>
<pdfrwt beam="1">  1       21 0.12976351E+00 0.25576292E+03</pdfrwt>
<pdfrwt beam="2">  1       21 0.10750725E+00 0.25576292E+03</pdfrwt>
<totfact> 0.28037339E+02</totfact>
</mgrwt>
</event>
