<event>
 5    0  0.5803037E+000  0.2127758E+03  0.7546771E-02  0.1139387E+00
         21   -1    0    0  501  502  0.00000000000E+00  0.00000000000E+00  0.69122974223E+02  0.69122974223E+02  0.00000000000E+00 0.  1.
          4   -1    0    0  503    0 -0.00000000000E+00 -0.00000000000E+00 -0.17471087959E+04  0.17471087959E+04  0.00000000000E+00 0.  1.
         25    1    1    2    0    0 -0.84292939591E+02 -0.20798437800E+03 -0.32694384991E+03  0.41578850652E+03  0.12500000000E+03 0.  0.
         21    1    1    2  503  502  0.16061947629E+03  0.70609114992E+02 -0.10074791348E+04  0.10226428851E+04  0.00000000000E+00 0.  1.
          4    1    1    2  501    0 -0.76326536701E+02  0.13737526301E+03 -0.34356283689E+03  0.37780037848E+03  0.00000000000E+00 0.  1.
<mgrwt>
<rscale>  4 0.21277577E+03</rscale>
<asrwt>0</asrwt>
<pdfrwt beam="1">  1       21 0.10634303E-01 0.21277577E+03</pdfrwt>
<pdfrwt beam="2">  1        4 0.26878598E+00 0.21277577E+03</pdfrwt>
<totfact> 0.17157915E+02</totfact>
</mgrwt>
</event>
<event>
 5    0  0.5803037E+000  0.2622656E+03  0.7546771E-02  0.1105790E+00
         21   -1    0    0  501  502  0.00000000000E+00  0.00000000000E+00  0.80489588495E+03  0.80489588495E+03  0.00000000000E+00 0. -1.
          1   -1    0    0  503    0 -0.00000000000E+00 -0.00000000000E+00 -0.65676092145E+03  0.65676092145E+03  0.00000000000E+00 0.  1.
         25    1    1    2    0    0 -0.22828251702E+03  0.30113941709E+02  0.74927132350E+03  0.79375832171E+03  0.12500000000E+03 0.  0.
         21    1    1    2  503  502 -0.60227345512E+01  0.20796965297E+02 -0.10431639555E+01  0.21676606932E+02  0.00000000000E+00 0.  1.
          1    1    1    2  501    0  0.23430525157E+03 -0.50910907006E+02 -0.60009319604E+03  0.64622187776E+03  0.00000000000E+00 0.  1.
<mgrwt>
<rscale>  4 0.26226561E+03</rscale>
<asrwt>0</asrwt>
<pdfrwt beam="1">  1       21 0.12383014E+00 0.26226561E+03</pdfrwt>
<pdfrwt beam="2">  1        1 0.10104014E+00 0.26226561E+03</pdfrwt>
<totfact> 0.16002523E+02</totfact>
</mgrwt>
</event>
<event>
 5    0  0.5803037E+000  0.3121119E+03  0.7546771E-02  0.1079338E+00
         21   -1    0    0  501  502  0.00000000000E+00  0.00000000000E+00  0.10589368215E+03  0.10589368215E+03  0.00000000000E+00 0. -1.
          1   -1    0    0  503    0 -0.00000000000E+00 -0.00000000000E+00 -0.10403508487E+04  0.10403508487E+04  0.00000000000E+00 0. -1.
         25    1    1    2    0    0 -0.26230413057E+03 -0.11395335150E+03 -0.24109905455E+03  0.39438886564E+03  0.12500000000E+03 0.  0.
         21    1    1    2  503  502  0.24152657496E+02  0.29371202243E+02 -0.88822521540E+02  0.96620177593E+02  0.00000000000E+00 0.  1.
          1    1    1    2  501    0  0.23815147307E+03  0.84582149259E+02 -0.60453559047E+03  0.65523548763E+03  0.00000000000E+00 0. -1.
<mgrwt>
<rscale>  4 0.31211188E+03</rscale>
<asrwt>0</asrwt>
<pdfrwt beam="1">  1       21 0.16291335E-01 0.31211188E+03</pdfrwt>
<pdfrwt beam="2">  1        1 0.16005398E+00 0.31211188E+03</pdfrwt>
<totfact> 0.54629260E+03</totfact>
</mgrwt>
</event>
<event>
 5    0  0.5803037E+000  0.2931780E+03  0.7546771E-02  0.1088701E+00
          3   -1    0    0  503    0 -0.00000000000E+00  0.00000000000E+00  0.12975039620E+04  0.12975039620E+04  0.00000000000E+00 0. -1.
         21   -1    0    0  501  502  0.00000000000E+00 -0.00000000000E+00 -0.70465859601E+03  0.70465859601E+03  0.00000000000E+00 0. -1.
         25    1    1    2    0    0  0.25468812376E+02  0.26409264706E+03 -0.65749800128E+03  0.71994597597E+03  0.12500000000E+03 0.  0.
         21    1    1    2  503  502 -0.21882662931E+02 -0.25684730584E+01  0.12022461285E+03  0.12222686090E+03  0.00000000000E+00 0. -1.
          3    1    1    2  501    0 -0.35861494459E+01 -0.26152417400E+03  0.11301187544E+04  0.11599897211E+04  0.00000000000E+00 0. -1.
<mgrwt>
<rscale>  4 0.29317798E+03</rscale>
<asrwt>0</asrwt>
<pdfrwt beam="1">  1       21 0.10840902E+00 0.29317798E+03</pdfrwt>
<pdfrwt beam="2">  1        3 0.19961599E+00 0.29317798E+03</pdfrwt>
<totfact> 0.50884279E+00</totfact>
</mgrwt>
</event>
<event>
 5    0  0.5803037E+000  0.2559605E+03  0.7546771E-02  0.1109595E+00
          2   -1    0    0  503    0 -0.00000000000E+00  0.00000000000E+00  0.22761430042E+04  0.22761430042E+04  0.00000000000E+00 0. -1.
         21   -1    0    0  501  502  0.00000000000E+00 -0.00000000000E+00 -0.32371459428E+03  0.32371459428E+03  0.00000000000E+00 0. -1.
         25    1    1    2    0    0 -0.22210243810E+03 -0.42641006929E+02 -0.25520621253E+03  0.36318447020E+03  0.12500000000E+03 0.  0.
         21    1    1    2  503  502  0.57302002005E+02  0.14225008052E+03  0.68790030232E+03  0.70478750753E+03  0.00000000000E+00 0.  1.
          2    1    1    2  501    0  0.16480043610E+03 -0.99609073588E+02  0.15197343202E+04  0.15318856208E+04  0.00000000000E+00 0. -1.
<mgrwt>
<rscale>  4 0.25596045E+03</rscale>
<asrwt>0</asrwt>
<pdfrwt beam="1">  1       21 0.49802247E-01 0.25596045E+03</pdfrwt>
<pdfrwt beam="2">  1        2 0.35017584E+00 0.25596045E+03</pdfrwt>
<totfact> 0.25243687E+02</totfact>
</mgrwt>
</event>
<event>
 5    0  0.5803037E+000  0.2862329E+03  0.7546771E-02  0.1092333E+00
         21   -1    0    0  501  502  0.00000000000E+00  0.00000000000E+00  0.12676409633E+03  0.12676409633E+03  0.00000000000E+00 0. -1.
          2   -1    0    0  503    0 -0.00000000000E+00 -0.00000000000E+00 -0.19507395038E+04  0.19507395038E+04  0.00000000000E+00 0. -1.
         25    1    1    2    0    0  0.22013856046E+03  0.13633005194E+03 -0.73402600989E+02  0.29674873326E+03  0.12500000000E+03 0.  0.
         21    1    1    2  503  502  0.23212880841E+02 -0.64117554109E+02 -0.26393473855E+03  0.27260125604E+03  0.00000000000E+00 0. -1.
          2    1    1    2  501    0 -0.24335144130E+03 -0.72212497827E+02 -0.14866380679E+04  0.15081536108E+04  0.00000000000E+00 0. -1.
<mgrwt>
<rscale>  4 0.28623291E+03</rscale>
<asrwt>0</asrwt>
<pdfrwt beam="1">  1       21 0.19502169E-01 0.28623291E+03</pdfrwt>
<pdfrwt beam="2">  1        2 0.30011377E+00 0.28623291E+03</pdfrwt>
<totfact> 0.23609050E+03</totfact>
</mgrwt>
</event>
