<event>
 5    0  0.2275389E+000  0.2810968E+03  0.7546771E-02  0.1095091E+00
         21   -1    0    0  502  501  0.00000000000E+00  0.00000000000E+00  0.16317268116E+03  0.16317268116E+03  0.00000000000E+00 0.  1.
         21   -1    0    0  503  502 -0.00000000000E+00 -0.00000000000E+00 -0.66988562934E+03  0.66988562934E+03  0.00000000000E+00 0.  1.
         25    1    1    2    0    0  0.11024637160E+03 -0.23478924982E+03 -0.65086849198E+02  0.29519748004E+03  0.12500000000E+03 0.  0.
         21    1    1    2  503  504 -0.44205378119E+02  0.23685497305E+03 -0.34711996546E+03  0.42254782467E+03  0.00000000000E+00 0.  1.
         21    1    1    2  504  501 -0.66040993479E+02 -0.20657232275E+01 -0.94506133530E+02  0.11531300580E+03  0.00000000000E+00 0.  1.
<mgrwt>
<rscale>  4 0.28109685E+03</rscale>
<asrwt>0</asrwt>
<pdfrwt beam="1">  1       21 0.25103489E-01 0.28109685E+03</pdfrwt>
<pdfrwt beam="2">  1       21 0.10305933E+00 0.28109685E+03</pdfrwt>
<totfact> 0.10896047E+04</totfact>
</mgrwt>
</event>
<event>
 5    0  0.2159162E+000  0.2695962E+03  0.7546771E-02  0.1101511E+00
         21   -1    0    0  502  501  0.00000000000E+00  0.00000000000E+00  0.76147385891E+03  0.76147385891E+03  0.00000000000E+00 0.  1.
         21   -1    0    0  503  502 -0.00000000000E+00 -0.00000000000E+00 -0.18952275840E+03  0.18952275840E+03  0.00000000000E+00 0. -1.
         25    1    1    2    0    0 -0.17291197980E+03 -0.16479852087E+03  0.64174157479E+03  0.69607065306E+03  0.12500000000E+03 0.  0.
         21    1    1    2  503  504  0.10233185314E+03  0.82101885313E+02 -0.64197359725E+02  0.14606104455E+03  0.00000000000E+00 0. -1.
         21    1    1    2  504  501  0.70580126664E+02  0.82696635555E+02 -0.55931145509E+01  0.10886491971E+03  0.00000000000E+00 0. -1.
<mgrwt>
<rscale>  4 0.26959619E+03</rscale>
<asrwt>0</asrwt>
<pdfrwt beam="1">  1       21 0.11714982E+00 0.26959619E+03</pdfrwt>
<pdfrwt beam="2">  1       21 0.29157348E-01 0.26959619E+03</pdfrwt>
<totfact> 0.59913278E+03</totfact>
</mgrwt>
</event>
<event>
 5    0  0.2159162E+000  0.2426532E+03  0.7546771E-02  0.1118038E+00
         21   -1    0    0  502  501  0.00000000000E+00  0.00000000000E+00  0.21411720029E+03  0.21411720029E+03  0.00000000000E+00 0.  1.
         21   -1    0    0  503  502 -0.00000000000E+00 -0.00000000000E+00 -0.40517340303E+03  0.40517340303E+03  0.00000000000E+00 0.  1.
         25    1    1    2    0    0  0.24700664947E+02  0.23440394036E+03 -0.15407375041E+03  0.30808935501E+03  0.12500000000E+03 0.  0.
         21    1    1    2  503  504  0.38928849772E+02 -0.19694254111E+03  0.39817156224E+02  0.20466368944E+03  0.00000000000E+00 0.  1.
         21    1    1    2  504  501 -0.63629514719E+02 -0.37461399251E+02 -0.76799608549E+02  0.10653755887E+03  0.00000000000E+00 0.  1.
<mgrwt>
<rscale>  4 0.24265317E+03</rscale>
<asrwt>0</asrwt>
<pdfrwt beam="1">  1       21 0.32941108E-01 0.24265317E+03</pdfrwt>
<pdfrwt beam="2">  1       21 0.62334369E-01 0.24265317E+03</pdfrwt>
<totfact> 0.20597120E+04</totfact>
</mgrwt>
</event>
<event>
 5    0  0.2159162E+000  0.3147799E+03  0.7546771E-02  0.1078077E+00
         21   -1    0    0  502  501  0.00000000000E+00  0.00000000000E+00  0.22470652115E+03  0.22470652115E+03  0.00000000000E+00 0.  1.
         21   -1    0    0  503  502 -0.00000000000E+00 -0.00000000000E+00 -0.10141346481E+04  0.10141346481E+04  0.00000000000E+00 0. -1.
         25    1    1    2    0    0 -0.26675979494E+00 -0.28889673008E+03  0.75494156484E+02  0.32370628581E+03  0.12500000000E+03 0.  0.
         21    1    1    2  503  504  0.25100103046E+02  0.18650772544E+03 -0.46676600491E+03  0.50327492502E+03  0.00000000000E+00 0. -1.
         21    1    1    2  504  501 -0.24833343251E+02  0.10238900464E+03 -0.39815627858E+03  0.41185995846E+03  0.00000000000E+00 0. -1.
<mgrwt>
<rscale>  4 0.31477991E+03</rscale>
<asrwt>0</asrwt>
<pdfrwt beam="1">  1       21 0.34570234E-01 0.31477991E+03</pdfrwt>
<pdfrwt beam="2">  1       21 0.15602072E+00 0.31477991E+03</pdfrwt>
<totfact> 0.19802103E+03</totfact>
</mgrwt>
</event>
<event>
 5    0  0.2159162E+000  0.2478060E+03  0.7546771E-02  0.1114699E+00
         21   -1    0    0  502  501  0.00000000000E+00  0.00000000000E+00  0.37726467952E+03  0.37726467952E+03  0.00000000000E+00 0.  1.
         21   -1    0    0  503  502 -0.00000000000E+00 -0.00000000000E+00 -0.16711855295E+03  0.16711855295E+03  0.00000000000E+00 0.  1.
         25    1    1    2    0    0  0.13517135042E+03 -0.16586602721E+03  0.18736694729E+03  0.31066735569E+03  0.12500000000E+03 0.  0.
         21    1    1    2  503  504 -0.26275260438E+02  0.64960205323E+02  0.45468670347E+02  0.83532134953E+02  0.00000000000E+00 0.  1.
         21    1    1    2  504  501 -0.10889608999E+03  0.10090582188E+03 -0.22689491069E+02  0.15018374183E+03  0.00000000000E+00 0.  1.
<mgrwt>
<rscale>  4 0.24780604E+03</rscale>
<asrwt>0</asrwt>
<pdfrwt beam="1">  1       21 0.58040720E-01 0.24780604E+03</pdfrwt>
<pdfrwt beam="2">  1       21 0.25710547E-01 0.24780604E+03</pdfrwt>
<totfact> 0.38906940E+04</totfact>
</mgrwt>
</event>
<event>
 5    0  0.2159162E+000  0.4093922E+03  0.7546771E-02  0.1040575E+00
         21   -1    0    0  502  501  0.00000000000E+00  0.00000000000E+00  0.10444788643E+04  0.10444788643E+04  0.00000000000E+00 0. -1.
         21   -1    0    0  503  502 -0.00000000000E+00 -0.00000000000E+00 -0.17548157342E+03  0.17548157342E+03  0.00000000000E+00 0. -1.
         25    1    1    2    0    0 -0.17713087015E+03  0.34727748892E+03  0.61951451772E+03  0.74256328831E+03  0.12500000000E+03 0.  0.
         21    1    1    2  503  504  0.79957063261E+02 -0.27298740499E+03  0.18202846363E+03  0.33771232850E+03  0.00000000000E+00 0. -1.
         21    1    1    2  504  501  0.97173806888E+02 -0.74290083925E+02  0.67454309492E+02  0.13968482088E+03  0.00000000000E+00 0.  1.
<mgrwt>
<rscale>  4 0.40939223E+03</rscale>
<asrwt>0</asrwt>
<pdfrwt beam="1">  1       21 0.16068905E+00 0.40939223E+03</pdfrwt>
<pdfrwt beam="2">  1       21 0.26997166E-01 0.40939223E+03</pdfrwt>
<totfact> 0.28419258E+03</totfact>
</mgrwt>
</event>
<event>
 5    0  0.2159162E+000  0.2362624E+03  0.7546771E-02  0.1122308E+00
         21   -1    0    0  502  501  0.00000000000E+00  0.00000000000E+00  0.25033562418E+03  0.25033562418E+03  0.00000000000E+00 0. -1.
         21   -1    0    0  503  502 -0.00000000000E+00 -0.00000000000E+00 -0.76444229435E+03  0.76444229435E+03  0.00000000000E+00 0. -1.
         25    1    1    2    0    0  0.17433541166E+02  0.20061204568E+03  0.17005514208E+03  0.29170682641E+03  0.12500000000E+03 0.  0.
         21    1    1    2  503  504 -0.19925177897E+02 -0.91729899799E+01 -0.13822936758E+02  0.25927399407E+02  0.00000000000E+00 0. -1.
         21    1    1    2  504  501  0.24916367314E+01 -0.19143905570E+03 -0.67033887548E+03  0.69714369271E+03  0.00000000000E+00 0. -1.
<mgrwt>
<rscale>  4 0.23626238E+03</rscale>
<asrwt>0</asrwt>
<pdfrwt beam="1">  1       21 0.38513173E-01 0.23626238E+03</pdfrwt>
<pdfrwt beam="2">  1       21 0.11760651E+00 0.23626238E+03</pdfrwt>
<totfact> 0.34860714E+03</totfact>
</mgrwt>
</event>
<event>
 5    0  0.2159162E+000  0.3270229E+03  0.7546771E-02  0.1072462E+00
         21   -1    0    0  502  501  0.00000000000E+00  0.00000000000E+00  0.57236400455E+03  0.57236400455E+03  0.00000000000E+00 0.  1.
         21   -1    0    0  503  502 -0.00000000000E+00 -0.00000000000E+00 -0.25101088373E+03  0.25101088373E+03  0.00000000000E+00 0.  1.
         25    1    1    2    0    0  0.24584748849E+03 -0.11653591513E+03  0.15450821034E+03  0.33692639281E+03  0.12500000000E+03 0.  0.
         21    1    1    2  503  504 -0.31491023547E+03  0.10730706181E+03  0.21996437965E+03  0.39883278480E+03  0.00000000000E+00 0.  1.
         21    1    1    2  504  501  0.69062746980E+02  0.92288533252E+01 -0.53119469165E+02  0.87615710683E+02  0.00000000000E+00 0. -1.
<mgrwt>
<rscale>  4 0.32702286E+03</rscale>
<asrwt>0</asrwt>
<pdfrwt beam="1">  1       21 0.88056000E-01 0.32702286E+03</pdfrwt>
<pdfrwt beam="2">  1       21 0.38617059E-01 0.32702286E+03</pdfrwt>
<totfact> 0.66083709E+03</totfact>
</mgrwt>
</event>
<event>
 5    0  0.2184355E+000  0.2679968E+03  0.7546771E-02  0.1102432E+00
         21   -1    0    0  502  501  0.00000000000E+00  0.00000000000E+00  0.84613167598E+03  0.84613167598E+03  0.00000000000E+00 0.  1.
         21   -1    0    0  503  502 -0.00000000000E+00 -0.00000000000E+00 -0.83032109538E+02  0.83032109538E+02  0.00000000000E+00 0.  1.
         25    1    1    2    0    0  0.14658780919E+03 -0.18630433167E+03  0.26639392425E+03  0.37787301131E+03  0.12500000000E+03 0.  0.
         21    1    1    2  503  504 -0.24398836215E+02  0.15255521419E+02  0.67286464725E+02  0.73181298687E+02  0.00000000000E+00 0.  1.
         21    1    1    2  504  501 -0.12218897297E+03  0.17104881025E+03  0.42941917747E+03  0.47810947552E+03  0.00000000000E+00 0.  1.
<mgrwt>
<rscale>  4 0.26799681E+03</rscale>
<asrwt>0</asrwt>
<pdfrwt beam="1">  1       21 0.13017410E+00 0.26799681E+03</pdfrwt>
<pdfrwt beam="2">  1       21 0.12774171E-01 0.26799681E+03</pdfrwt>
<totfact> 0.21666623E+04</totfact>
</mgrwt>
</event>
<event>
 5    0  0.1485863E+001  0.2381000E+03  0.7546771E-02  0.1121065E+00
         21   -1    0    0  502  501  0.00000000000E+00  0.00000000000E+00  0.24599395959E+03  0.24599395959E+03  0.00000000000E+00 0. -1.
         21   -1    0    0  503  502 -0.00000000000E+00 -0.00000000000E+00 -0.25655635388E+03  0.25655635388E+03  0.00000000000E+00 0. -1.
         25    1    1    2    0    0  0.91256525617E+02 -0.20314017113E+03  0.12703988758E+02  0.25569527552E+03  0.12500000000E+03 0.  0.
         21    1    1    2  503  504 -0.81343258132E+02  0.17391702733E+03 -0.57830532329E+02  0.20051989554E+03  0.00000000000E+00 0. -1.
         21    1    1    2  504  501 -0.99132674844E+01  0.29223143801E+02  0.34564149288E+02  0.46335142406E+02  0.00000000000E+00 0.  1.
<mgrwt>
<rscale>  4 0.23809996E+03</rscale>
<asrwt>0</asrwt>
<pdfrwt beam="1">  1       21 0.37845225E-01 0.23809996E+03</pdfrwt>
<pdfrwt beam="2">  1       21 0.39470208E-01 0.23809996E+03</pdfrwt>
<totfact> 0.40770371E+04</totfact>
</mgrwt>
</event>
<event>
 5    0  0.2159162E+000  0.2602803E+03  0.7546771E-02  0.1106975E+00
         21   -1    0    0  502  501  0.00000000000E+00  0.00000000000E+00  0.71568479695E+02  0.71568479695E+02  0.00000000000E+00 0.  1.
         21   -1    0    0  503  502 -0.00000000000E+00 -0.00000000000E+00 -0.98047520984E+03  0.98047520984E+03  0.00000000000E+00 0.  1.
         25    1    1    2    0    0 -0.11721027846E+03 -0.19591476407E+03 -0.28345618944E+03  0.38482886520E+03  0.12500000000E+03 0.  0.
         21    1    1    2  503  504  0.68298278657E+02  0.14605280293E+03 -0.46709522384E+03  0.49413968091E+03  0.00000000000E+00 0.  1.
         21    1    1    2  504  501  0.48911999805E+02  0.49861961140E+02 -0.15835531686E+03  0.17307514342E+03  0.00000000000E+00 0. -1.
<mgrwt>
<rscale>  4 0.26028032E+03</rscale>
<asrwt>0</asrwt>
<pdfrwt beam="1">  1       21 0.11010537E-01 0.26028032E+03</pdfrwt>
<pdfrwt beam="2">  1       21 0.15084232E+00 0.26028032E+03</pdfrwt>
<totfact> 0.19346015E+04</totfact>
</mgrwt>
</event>
<event>
 5    0  0.2159162E+000  0.2385980E+03  0.7546771E-02  0.1120730E+00
         21   -1    0    0  502  501  0.00000000000E+00  0.00000000000E+00  0.13005949030E+04  0.13005949030E+04  0.00000000000E+00 0. -1.
         21   -1    0    0  503  502 -0.00000000000E+00 -0.00000000000E+00 -0.95766247869E+02  0.95766247869E+02  0.00000000000E+00 0. -1.
         25    1    1    2    0    0 -0.32918542940E+02  0.20055018658E+03  0.11543070901E+04  0.11787085586E+04  0.12500000000E+03 0.  0.
         21    1    1    2  503  504  0.64000734425E+00 -0.61871517202E+02  0.42453330062E+02  0.75038519999E+02  0.00000000000E+00 0. -1.
         21    1    1    2  504  501  0.32278535595E+02 -0.13867866938E+03  0.80682349666E+01  0.14261407229E+03  0.00000000000E+00 0. -1.
<mgrwt>
<rscale>  4 0.23859800E+03</rscale>
<asrwt>0</asrwt>
<pdfrwt beam="1">  1       21 0.20009151E+00 0.23859800E+03</pdfrwt>
<pdfrwt beam="2">  1       21 0.14733270E-01 0.23859800E+03</pdfrwt>
<totfact> 0.52270920E+03</totfact>
</mgrwt>
</event>
<event>
 5    0  0.2159162E+000  0.2931118E+03  0.7546771E-02  0.1088736E+00
         21   -1    0    0  502  501  0.00000000000E+00  0.00000000000E+00  0.26223882734E+03  0.26223882734E+03  0.00000000000E+00 0. -1.
         21   -1    0    0  503  502 -0.00000000000E+00 -0.00000000000E+00 -0.93166976963E+03  0.93166976963E+03  0.00000000000E+00 0. -1.
         25    1    1    2    0    0 -0.26249992429E+03 -0.37192878973E+02  0.15015945892E+03  0.32933627738E+03  0.12500000000E+03 0.  0.
         21    1    1    2  503  504  0.86648859296E+02 -0.25633578066E+01 -0.17575176176E+03  0.19596754165E+03  0.00000000000E+00 0. -1.
         21    1    1    2  504  501  0.17585106499E+03  0.39756236780E+02 -0.64383863946E+03  0.66860477794E+03  0.00000000000E+00 0. -1.
<mgrwt>
<rscale>  4 0.29311179E+03</rscale>
<asrwt>0</asrwt>
<pdfrwt beam="1">  1       21 0.40344435E-01 0.29311179E+03</pdfrwt>
<pdfrwt beam="2">  1       21 0.14333381E+00 0.29311179E+03</pdfrwt>
<totfact> 0.18421381E+03</totfact>
</mgrwt>
</event>
<event>
 5    0  0.2159162E+000  0.3596985E+03  0.7546771E-02  0.1058703E+00
         21   -1    0    0  502  501  0.00000000000E+00  0.00000000000E+00  0.10812016918E+03  0.10812016918E+03  0.00000000000E+00 0.  1.
         21   -1    0    0  503  502 -0.00000000000E+00 -0.00000000000E+00 -0.21532955621E+04  0.21532955621E+04  0.00000000000E+00 0.  1.
         25    1    1    2    0    0 -0.19547921431E+03  0.39557957699E+03 -0.80008494843E+03  0.92220184865E+03  0.12500000000E+03 0.  0.
         21    1    1    2  503  504  0.13190298192E+03 -0.27194031255E+03 -0.10890989301E+04  0.11302594436E+04  0.00000000000E+00 0.  1.
         21    1    1    2  504  501  0.63576232383E+02 -0.12363926444E+03 -0.15599151439E+03  0.20895443905E+03  0.00000000000E+00 0.  1.
<mgrwt>
<rscale>  4 0.35969847E+03</rscale>
<asrwt>0</asrwt>
<pdfrwt beam="1">  1       21 0.16633873E-01 0.35969847E+03</pdfrwt>
<pdfrwt beam="2">  1       21 0.33127623E+00 0.35969847E+03</pdfrwt>
<totfact> 0.61415513E+02</totfact>
</mgrwt>
</event>
<event>
 5    0  0.2159162E+000  0.2618262E+03  0.7546771E-02  0.1106051E+00
         21   -1    0    0  502  501  0.00000000000E+00  0.00000000000E+00  0.12966456124E+04  0.12966456124E+04  0.00000000000E+00 0. -1.
         21   -1    0    0  503  502 -0.00000000000E+00 -0.00000000000E+00 -0.38915389105E+03  0.38915389105E+03  0.00000000000E+00 0.  1.
         25    1    1    2    0    0  0.23091787357E+03 -0.21005347840E+02  0.12296644359E+04  0.12575626879E+04  0.12500000000E+03 0.  0.
         21    1    1    2  503  504 -0.47864045011E+02  0.31905752905E+01  0.95765521533E+01  0.48916836842E+02  0.00000000000E+00 0.  1.
         21    1    1    2  504  501 -0.18305382856E+03  0.17814772550E+02 -0.33174926674E+03  0.37931997872E+03  0.00000000000E+00 0.  1.
<mgrwt>
<rscale>  4 0.26182621E+03</rscale>
<asrwt>0</asrwt>
<pdfrwt beam="1">  1       21 0.19948394E+00 0.26182621E+03</pdfrwt>
<pdfrwt beam="2">  1       21 0.59869830E-01 0.26182621E+03</pdfrwt>
<totfact> 0.32652472E+02</totfact>
</mgrwt>
</event>
