<event>
 5    0  0.2159162E+000  0.2924556E+03  0.7546771E-02  0.1089074E+00
         21   -1    0    0  502  501  0.00000000000E+00  0.00000000000E+00  0.10407610420E+04  0.10407610420E+04  0.00000000000E+00 0. -1.
         21   -1    0    0  503  502 -0.00000000000E+00 -0.00000000000E+00 -0.26713514029E+03  0.26713514029E+03  0.00000000000E+00 0.  1.
         25    1    1    2    0    0  0.11160178719E+03  0.24527209846E+03  0.92835147891E+03  0.97471782049E+03  0.12500000000E+03 0.  0.
         21    1    1    2  503  504 -0.98113739146E+02 -0.19203806841E+03 -0.17174721760E+03  0.27568466094E+03  0.00000000000E+00 0.  1.
         21    1    1    2  504  501 -0.13488048040E+02 -0.53234030056E+02  0.17021640391E+02  0.57493700851E+02  0.00000000000E+00 0. -1.
<mgrwt>
<rscale>  4 0.29245557E+03</rscale>
<asrwt>0</asrwt>
<pdfrwt beam="1">  1       21 0.16011708E+00 0.29245557E+03</pdfrwt>
<pdfrwt beam="2">  1       21 0.41097715E-01 0.29245557E+03</pdfrwt>
<totfact> 0.13178134E+03</totfact>
</mgrwt>
</event>
<event>
 5    0  0.2159162E+000  0.2933843E+03  0.7546771E-02  0.1088595E+00
         21   -1    0    0  502  501  0.00000000000E+00  0.00000000000E+00  0.87273963214E+03  0.87273963214E+03  0.00000000000E+00 0.  1.
         21   -1    0    0  503  502 -0.00000000000E+00 -0.00000000000E+00 -0.99272377196E+03  0.99272377196E+03  0.00000000000E+00 0.  1.
         25    1    1    2    0    0 -0.12985298189E+03  0.23858732885E+03  0.81003162195E+03  0.86345928621E+03  0.12500000000E+03 0.  0.
         21    1    1    2  503  504 -0.54293245442E+02 -0.16434122399E+03 -0.47521976379E+03  0.50575648122E+03  0.00000000000E+00 0.  1.
         21    1    1    2  504  501  0.18414622733E+03 -0.74246104859E+02 -0.45479599797E+03  0.49624763667E+03  0.00000000000E+00 0.  1.
<mgrwt>
<rscale>  4 0.29338428E+03</rscale>
<asrwt>0</asrwt>
<pdfrwt beam="1">  1       21 0.13426764E+00 0.29338428E+03</pdfrwt>
<pdfrwt beam="2">  1       21 0.15272673E+00 0.29338428E+03</pdfrwt>
<totfact> 0.10141543E+02</totfact>
</mgrwt>
</event>
<event>
 5    0  0.2159162E+000  0.3788792E+03  0.7546771E-02  0.1051349E+00
         21   -1    0    0  502  501  0.00000000000E+00  0.00000000000E+00  0.95700655499E+03  0.95700655499E+03  0.00000000000E+00 0.  1.
         21   -1    0    0  503  502 -0.00000000000E+00 -0.00000000000E+00 -0.25022568799E+03  0.25022568799E+03  0.00000000000E+00 0. -1.
         25    1    1    2    0    0  0.30979944616E+03  0.17874223589E+03  0.74512630860E+03  0.83592027102E+03  0.12500000000E+03 0.  0.
         21    1    1    2  503  504 -0.27608556180E+02 -0.37263879775E+02  0.19632623858E+02  0.50361384311E+02  0.00000000000E+00 0. -1.
         21    1    1    2  504  501 -0.28219088998E+03 -0.14147835611E+03 -0.57978065455E+02  0.32095058764E+03  0.00000000000E+00 0. -1.
<mgrwt>
<rscale>  4 0.37887925E+03</rscale>
<asrwt>0</asrwt>
<pdfrwt beam="1">  1       21 0.14723178E+00 0.37887925E+03</pdfrwt>
<pdfrwt beam="2">  1       21 0.38496260E-01 0.37887925E+03</pdfrwt>
<totfact> 0.18004258E+03</totfact>
</mgrwt>
</event>
<event>
 5    0  0.2159162E+000  0.3977446E+03  0.7546771E-02  0.1044563E+00
         21   -1    0    0  502  501  0.00000000000E+00  0.00000000000E+00  0.17410228754E+04  0.17410228754E+04  0.00000000000E+00 0.  1.
         21   -1    0    0  503  502 -0.00000000000E+00 -0.00000000000E+00 -0.24526320631E+03  0.24526320631E+03  0.00000000000E+00 0.  1.
         25    1    1    2    0    0  0.10435003405E+03 -0.45474285087E+03  0.12456945384E+04  0.13360613284E+04  0.12500000000E+03 0.  0.
         21    1    1    2  503  504  0.38521122767E+02  0.27922630982E+03  0.30708660315E+03  0.41683736736E+03  0.00000000000E+00 0.  1.
         21    1    1    2  504  501 -0.14287115682E+03  0.17551654105E+03 -0.57021472481E+02  0.23338738602E+03  0.00000000000E+00 0.  1.
<mgrwt>
<rscale>  4 0.39774465E+03</rscale>
<asrwt>0</asrwt>
<pdfrwt beam="1">  1       21 0.26784967E+00 0.39774465E+03</pdfrwt>
<pdfrwt beam="2">  1       21 0.37732802E-01 0.39774465E+03</pdfrwt>
<totfact> 0.29156814E+02</totfact>
</mgrwt>
</event>
<event>
 5    0  0.2159162E+000  0.2707560E+03  0.7546771E-02  0.1100848E+00
         21   -1    0    0  502  501  0.00000000000E+00  0.00000000000E+00  0.33408695491E+03  0.33408695491E+03  0.00000000000E+00 0. -1.
         21   -1    0    0  503  502 -0.00000000000E+00 -0.00000000000E+00 -0.24139339131E+03  0.24139339131E+03  0.00000000000E+00 0. -1.
         25    1    1    2    0    0  0.22751503247E+03  0.76946230747E+02  0.16725925257E+03  0.31825221130E+03  0.12500000000E+03 0.  0.
         21    1    1    2  503  504 -0.13953941876E+03 -0.64052260477E+02 -0.68442382695E+02  0.16810205593E+03  0.00000000000E+00 0. -1.
         21    1    1    2  504  501 -0.87975613708E+02 -0.12893970270E+02 -0.61233062781E+01  0.89126078992E+02  0.00000000000E+00 0. -1.
<mgrwt>
<rscale>  4 0.27075600E+03</rscale>
<asrwt>0</asrwt>
<pdfrwt beam="1">  1       21 0.51397993E-01 0.27075600E+03</pdfrwt>
<pdfrwt beam="2">  1       21 0.37137445E-01 0.27075600E+03</pdfrwt>
<totfact> 0.24186687E+04</totfact>
</mgrwt>
</event>
<event>
 5    0  0.2160899E+000  0.2548518E+03  0.7546771E-02  0.1110276E+00
         21   -1    0    0  502  501  0.00000000000E+00  0.00000000000E+00  0.48332577955E+03  0.48332577955E+03  0.00000000000E+00 0. -1.
         21   -1    0    0  503  502 -0.00000000000E+00 -0.00000000000E+00 -0.27703142198E+03  0.27703142198E+03  0.00000000000E+00 0. -1.
         25    1    1    2    0    0 -0.77068198087E+02  0.22276049957E+03  0.35719075769E+03  0.44583851864E+03  0.12500000000E+03 0.  0.
         21    1    1    2  503  504  0.11474997983E+03 -0.13790442489E+03 -0.12319233858E+03  0.21762706761E+03  0.00000000000E+00 0. -1.
         21    1    1    2  504  501 -0.37681781740E+02 -0.84856074685E+02 -0.27704061538E+02  0.96891615281E+02  0.00000000000E+00 0. -1.
<mgrwt>
<rscale>  4 0.25485176E+03</rscale>
<asrwt>0</asrwt>
<pdfrwt beam="1">  1       21 0.74357812E-01 0.25485176E+03</pdfrwt>
<pdfrwt beam="2">  1       21 0.42620219E-01 0.25485176E+03</pdfrwt>
<totfact> 0.82479701E+03</totfact>
</mgrwt>
</event>
<event>
 5    0  0.2676392E+000  0.2497659E+03  0.7546771E-02  0.1113453E+00
         21   -1    0    0  502  501  0.00000000000E+00  0.00000000000E+00  0.27869966013E+03  0.27869966013E+03  0.00000000000E+00 0.  1.
         21   -1    0    0  503  502 -0.00000000000E+00 -0.00000000000E+00 -0.39916125042E+03  0.39916125042E+03  0.00000000000E+00 0. -1.
         25    1    1    2    0    0  0.15837550837E+03 -0.14722501578E+03  0.17710903975E+03  0.30618722848E+03  0.12500000000E+03 0.  0.
         21    1    1    2  503  504 -0.44794148754E+02  0.15432679569E+02 -0.81416601486E+02  0.94198441382E+02  0.00000000000E+00 0. -1.
         21    1    1    2  504  501 -0.11358135962E+03  0.13179233621E+03 -0.21615402855E+03  0.27747524069E+03  0.00000000000E+00 0. -1.
<mgrwt>
<rscale>  4 0.24976590E+03</rscale>
<asrwt>0</asrwt>
<pdfrwt beam="1">  1       21 0.42876871E-01 0.24976590E+03</pdfrwt>
<pdfrwt beam="2">  1       21 0.61409423E-01 0.24976590E+03</pdfrwt>
<totfact> 0.12461454E+04</totfact>
</mgrwt>
</event>
<event>
 5    0  0.2260971E+000  0.2386710E+03  0.7546771E-02  0.1120681E+00
         21   -1    0    0  502  501  0.00000000000E+00  0.00000000000E+00  0.70248863739E+02  0.70248863739E+02  0.00000000000E+00 0. -1.
         21   -1    0    0  503  502 -0.00000000000E+00 -0.00000000000E+00 -0.21165970244E+04  0.21165970244E+04  0.00000000000E+00 0.  1.
         25    1    1    2    0    0 -0.20056627511E+03  0.59103946549E+02 -0.18057867913E+03  0.30323879462E+03  0.12500000000E+03 0.  0.
         21    1    1    2  503  504  0.16896855085E+03 -0.39728325575E+01 -0.16511597632E+04  0.16597875521E+04  0.00000000000E+00 0.  1.
         21    1    1    2  504  501  0.31597724254E+02 -0.55131113991E+02 -0.21460971836E+03  0.22381954142E+03  0.00000000000E+00 0.  1.
<mgrwt>
<rscale>  4 0.23867104E+03</rscale>
<asrwt>0</asrwt>
<pdfrwt beam="1">  1       21 0.10807517E-01 0.23867104E+03</pdfrwt>
<pdfrwt beam="2">  1       21 0.32563034E+00 0.23867104E+03</pdfrwt>
<totfact> 0.16230106E+03</totfact>
</mgrwt>
</event>
<event>
 5    0  0.2159162E+000  0.2539489E+03  0.7546771E-02  0.1110834E+00
         21   -1    0    0  502  501  0.00000000000E+00  0.00000000000E+00  0.77206512170E+02  0.77206512170E+02  0.00000000000E+00 0. -1.
         21   -1    0    0  503  502 -0.00000000000E+00 -0.00000000000E+00 -0.81273784884E+03  0.81273784884E+03  0.00000000000E+00 0. -1.
         25    1    1    2    0    0 -0.89029280543E+02 -0.20233345997E+03 -0.29053450432E+03  0.38587606821E+03  0.12500000000E+03 0.  0.
         21    1    1    2  503  504  0.45356271259E+02  0.15326083637E+03 -0.37720003029E+03  0.40966564190E+03  0.00000000000E+00 0. -1.
         21    1    1    2  504  501  0.43673009284E+02  0.49072623597E+02 -0.67796802069E+02  0.94402650902E+02  0.00000000000E+00 0. -1.
<mgrwt>
<rscale>  4 0.25394890E+03</rscale>
<asrwt>0</asrwt>
<pdfrwt beam="1">  1       21 0.11877926E-01 0.25394890E+03</pdfrwt>
<pdfrwt beam="2">  1       21 0.12503658E+00 0.25394890E+03</pdfrwt>
<totfact> 0.27551125E+04</totfact>
</mgrwt>
</event>
<event>
 5    0  0.2159162E+000  0.3233710E+03  0.7546771E-02  0.1074108E+00
         21   -1    0    0  502  501  0.00000000000E+00  0.00000000000E+00  0.11015075958E+04  0.11015075958E+04  0.00000000000E+00 0.  1.
         21   -1    0    0  503  502 -0.00000000000E+00 -0.00000000000E+00 -0.39702351833E+03  0.39702351833E+03  0.00000000000E+00 0. -1.
         25    1    1    2    0    0  0.21389379522E+03  0.20782987212E+03  0.10128130028E+04  0.10631834226E+04  0.12500000000E+03 0.  0.
         21    1    1    2  503  504 -0.24796266924E+02 -0.31965297600E+02 -0.84189802949E+02  0.93405342592E+02  0.00000000000E+00 0.  1.
         21    1    1    2  504  501 -0.18909752830E+03 -0.17586457452E+03 -0.22413912244E+03  0.34194234892E+03  0.00000000000E+00 0. -1.
<mgrwt>
<rscale>  4 0.32337101E+03</rscale>
<asrwt>0</asrwt>
<pdfrwt beam="1">  1       21 0.16946271E+00 0.32337101E+03</pdfrwt>
<pdfrwt beam="2">  1       21 0.61080542E-01 0.32337101E+03</pdfrwt>
<totfact> 0.47753636E+02</totfact>
</mgrwt>
</event>
<event>
 5    0  0.2159162E+000  0.3039340E+03  0.7546771E-02  0.1083290E+00
         21   -1    0    0  502  501  0.00000000000E+00  0.00000000000E+00  0.73159045632E+03  0.73159045632E+03  0.00000000000E+00 0. -1.
         21   -1    0    0  503  502 -0.00000000000E+00 -0.00000000000E+00 -0.53218276946E+03  0.53218276946E+03  0.00000000000E+00 0. -1.
         25    1    1    2    0    0 -0.79635838903E+02 -0.26400729280E+03  0.64766175498E+03  0.71493528822E+03  0.12500000000E+03 0.  0.
         21    1    1    2  503  504  0.76824928666E+02  0.28406899145E+03 -0.40070686567E+03  0.49715516065E+03  0.00000000000E+00 0. -1.
         21    1    1    2  504  501  0.28109102371E+01 -0.20061698650E+02 -0.47547202443E+02  0.51682776911E+02  0.00000000000E+00 0. -1.
<mgrwt>
<rscale>  4 0.30393399E+03</rscale>
<asrwt>0</asrwt>
<pdfrwt beam="1">  1       21 0.11255238E+00 0.30393399E+03</pdfrwt>
<pdfrwt beam="2">  1       21 0.81874272E-01 0.30393399E+03</pdfrwt>
<totfact> 0.73434266E+02</totfact>
</mgrwt>
</event>
