<event>
 5    0  0.2159162E+000  0.5586367E+03  0.7546771E-02  0.9995144E-01
         21   -1    0    0  502  501  0.00000000000E+00  0.00000000000E+00  0.27135088353E+03  0.27135088353E+03  0.00000000000E+00 0. -1.
         21   -1    0    0  503  502 -0.00000000000E+00 -0.00000000000E+00 -0.11269871268E+04  0.11269871268E+04  0.00000000000E+00 0. -1.
         25    1    1    2    0    0  0.15364264968E+03  0.52234456721E+03 -0.45426781866E+03  0.72002372306E+03  0.12500000000E+03 0.  0.
         21    1    1    2  503  504 -0.13834404491E+03 -0.50355417539E+03 -0.37810752767E+03  0.64472566631E+03  0.00000000000E+00 0. -1.
         21    1    1    2  504  501 -0.15298604768E+02 -0.18790391823E+02 -0.23260896971E+02  0.33588620999E+02  0.00000000000E+00 0.  1.
<mgrwt>
<rscale>  4 0.55863665E+03</rscale>
<asrwt>0</asrwt>
<pdfrwt beam="1">  1       21 0.41746289E-01 0.55863665E+03</pdfrwt>
<pdfrwt beam="2">  1       21 0.17338264E+00 0.55863665E+03</pdfrwt>
<totfact> 0.89742921E+02</totfact>
</mgrwt>
</event>
<event>
 5    0  0.2159162E+000  0.2915266E+03  0.7546771E-02  0.1089555E+00
         21   -1    0    0  502  501  0.00000000000E+00  0.00000000000E+00  0.48609018796E+03  0.48609018796E+03  0.00000000000E+00 0. -1.
         21   -1    0    0  503  502 -0.00000000000E+00 -0.00000000000E+00 -0.27893415157E+03  0.27893415157E+03  0.00000000000E+00 0. -1.
         25    1    1    2    0    0  0.20752383457E+03  0.16216223663E+03  0.34288936268E+03  0.45006760375E+03  0.12500000000E+03 0.  0.
         21    1    1    2  503  504 -0.11234391812E+03 -0.23759448027E+02 -0.39863266169E+02  0.12155141833E+03  0.00000000000E+00 0. -1.
         21    1    1    2  504  501 -0.95179916458E+02 -0.13840278860E+03 -0.95870060122E+02  0.19340531745E+03  0.00000000000E+00 0. -1.
<mgrwt>
<rscale>  4 0.29152656E+03</rscale>
<asrwt>0</asrwt>
<pdfrwt beam="1">  1       21 0.74783106E-01 0.29152656E+03</pdfrwt>
<pdfrwt beam="2">  1       21 0.42912946E-01 0.29152656E+03</pdfrwt>
<totfact> 0.78768755E+03</totfact>
</mgrwt>
</event>
<event>
 5    0  0.2159162E+000  0.2779857E+03  0.7546771E-02  0.1096794E+00
         21   -1    0    0  502  501  0.00000000000E+00  0.00000000000E+00  0.85018730869E+03  0.85018730869E+03  0.00000000000E+00 0.  1.
         21   -1    0    0  503  502 -0.00000000000E+00 -0.00000000000E+00 -0.20344794014E+03  0.20344794014E+03  0.00000000000E+00 0.  1.
         25    1    1    2    0    0  0.11595400897E+03 -0.21955798534E+03  0.73107213375E+03  0.78213969716E+03  0.12500000000E+03 0.  0.
         21    1    1    2  503  504 -0.37179689752E+02  0.28231380612E+02  0.32873042724E+01  0.46799001600E+02  0.00000000000E+00 0. -1.
         21    1    1    2  504  501 -0.78774319214E+02  0.19132660472E+03 -0.87620069477E+02  0.22469655008E+03  0.00000000000E+00 0.  1.
<mgrwt>
<rscale>  4 0.27798569E+03</rscale>
<asrwt>0</asrwt>
<pdfrwt beam="1">  1       21 0.13079805E+00 0.27798569E+03</pdfrwt>
<pdfrwt beam="2">  1       21 0.31299684E-01 0.27798569E+03</pdfrwt>
<totfact> 0.39263072E+03</totfact>
</mgrwt>
</event>
<event>
 5    0  0.5691175E+000  0.3677420E+03  0.7546771E-02  0.1055560E+00
         21   -1    0    0  502  501  0.00000000000E+00  0.00000000000E+00  0.61725804588E+03  0.61725804588E+03  0.00000000000E+00 0.  1.
         21   -1    0    0  503  502 -0.00000000000E+00 -0.00000000000E+00 -0.24942000620E+03  0.24942000620E+03  0.00000000000E+00 0.  1.
         25    1    1    2    0    0  0.22428458552E+03 -0.26325954841E+03  0.36380020982E+03  0.51728595360E+03  0.12500000000E+03 0.  0.
         21    1    1    2  503  504 -0.20420011507E+03  0.25101370184E+03 -0.64265987579E+01  0.32364620603E+03  0.00000000000E+00 0.  1.
         21    1    1    2  504  501 -0.20084470450E+02  0.12245846571E+02  0.10464428630E+02  0.25745892450E+02  0.00000000000E+00 0.  1.
<mgrwt>
<rscale>  4 0.36774198E+03</rscale>
<asrwt>0</asrwt>
<pdfrwt beam="1">  1       21 0.94962776E-01 0.36774198E+03</pdfrwt>
<pdfrwt beam="2">  1       21 0.38372309E-01 0.36774198E+03</pdfrwt>
<totfact> 0.55052972E+03</totfact>
</mgrwt>
</event>
<event>
 5    0  0.2159162E+000  0.4141518E+03  0.7546771E-02  0.1038987E+00
         21   -1    0    0  502  501  0.00000000000E+00  0.00000000000E+00  0.60321509275E+03  0.60321509275E+03  0.00000000000E+00 0.  1.
         21   -1    0    0  503  502 -0.00000000000E+00 -0.00000000000E+00 -0.32691392591E+03  0.32691392591E+03  0.00000000000E+00 0.  1.
         25    1    1    2    0    0  0.13679108860E+02  0.39653071643E+03  0.29829571568E+03  0.51188774266E+03  0.12500000000E+03 0.  0.
         21    1    1    2  503  504  0.24912762023E+02 -0.68222820760E+01  0.18894851996E+01  0.25899023122E+02  0.00000000000E+00 0. -1.
         21    1    1    2  504  501 -0.38591870884E+02 -0.38970843436E+03 -0.23884034043E+02  0.39234225287E+03  0.00000000000E+00 0.  1.
<mgrwt>
<rscale>  4 0.41415182E+03</rscale>
<asrwt>0</asrwt>
<pdfrwt beam="1">  1       21 0.92802322E-01 0.41415182E+03</pdfrwt>
<pdfrwt beam="2">  1       21 0.50294450E-01 0.41415182E+03</pdfrwt>
<totfact> 0.32508004E+03</totfact>
</mgrwt>
</event>
<event>
 5    0  0.2159162E+000  0.3112701E+03  0.7546771E-02  0.1079739E+00
         21   -1    0    0  502  501  0.00000000000E+00  0.00000000000E+00  0.48834136265E+03  0.48834136265E+03  0.00000000000E+00 0. -1.
         21   -1    0    0  503  502 -0.00000000000E+00 -0.00000000000E+00 -0.69746254434E+03  0.69746254434E+03  0.00000000000E+00 0. -1.
         25    1    1    2    0    0  0.27800342881E+03  0.63072869065E+02  0.40305000158E+03  0.50925278302E+03  0.12500000000E+03 0.  0.
         21    1    1    2  503  504 -0.18660274286E+02 -0.14114703845E+02 -0.37975949741E+02  0.44604971246E+02  0.00000000000E+00 0.  1.
         21    1    1    2  504  501 -0.25934315452E+03 -0.48958165221E+02 -0.57419523352E+03  0.63194615272E+03  0.00000000000E+00 0. -1.
<mgrwt>
<rscale>  4 0.31127013E+03</rscale>
<asrwt>0</asrwt>
<pdfrwt beam="1">  1       21 0.75129440E-01 0.31127013E+03</pdfrwt>
<pdfrwt beam="2">  1       21 0.10730193E+00 0.31127013E+03</pdfrwt>
<totfact> 0.99975059E+02</totfact>
</mgrwt>
</event>
<event>
 5    0  0.1550727E+001  0.2635023E+03  0.7546771E-02  0.1105057E+00
         21   -1    0    0  502  501  0.00000000000E+00  0.00000000000E+00  0.20934992169E+03  0.20934992169E+03  0.00000000000E+00 0. -1.
         21   -1    0    0  503  502 -0.00000000000E+00 -0.00000000000E+00 -0.33481345238E+03  0.33481345238E+03  0.00000000000E+00 0. -1.
         25    1    1    2    0    0 -0.35944265422E+02 -0.22916470376E+03  0.21909145262E+02  0.26441153968E+03  0.12500000000E+03 0.  0.
         21    1    1    2  503  504 -0.99507341821E+01  0.22818293686E+02 -0.65150705620E+01  0.25732038044E+02  0.00000000000E+00 0.  1.
         21    1    1    2  504  501  0.45894999604E+02  0.20634641008E+03 -0.14085760539E+03  0.25401979635E+03  0.00000000000E+00 0. -1.
<mgrwt>
<rscale>  4 0.26350228E+03</rscale>
<asrwt>0</asrwt>
<pdfrwt beam="1">  1       21 0.32207680E-01 0.26350228E+03</pdfrwt>
<pdfrwt beam="2">  1       21 0.51509762E-01 0.26350228E+03</pdfrwt>
<totfact> 0.32097506E+04</totfact>
</mgrwt>
</event>
<event>
 5    0  0.2159162E+000  0.2852089E+03  0.7546771E-02  0.1092877E+00
         21   -1    0    0  502  501  0.00000000000E+00  0.00000000000E+00  0.84392806457E+02  0.84392806457E+02  0.00000000000E+00 0. -1.
         21   -1    0    0  503  502 -0.00000000000E+00 -0.00000000000E+00 -0.22110390657E+04  0.22110390657E+04  0.00000000000E+00 0. -1.
         25    1    1    2    0    0 -0.10235886990E+03  0.23503574906E+03 -0.19521970380E+03  0.34562244478E+03  0.12500000000E+03 0.  0.
         21    1    1    2  503  504  0.49754402079E+02 -0.10259433228E+03 -0.59666680305E+03  0.60746388486E+03  0.00000000000E+00 0. -1.
         21    1    1    2  504  501  0.52604467819E+02 -0.13244141678E+03 -0.13347597524E+04  0.13423455425E+04  0.00000000000E+00 0. -1.
<mgrwt>
<rscale>  4 0.28520894E+03</rscale>
<asrwt>0</asrwt>
<pdfrwt beam="1">  1       21 0.12983510E-01 0.28520894E+03</pdfrwt>
<pdfrwt beam="2">  1       21 0.34015983E+00 0.28520894E+03</pdfrwt>
<totfact> 0.91251773E+02</totfact>
</mgrwt>
</event>
<event>
 5    0  0.2159162E+000  0.3577287E+03  0.7546771E-02  0.1059487E+00
         21   -1    0    0  502  501  0.00000000000E+00  0.00000000000E+00  0.10785799296E+04  0.10785799296E+04  0.00000000000E+00 0.  1.
         21   -1    0    0  503  502 -0.00000000000E+00 -0.00000000000E+00 -0.27899744147E+03  0.27899744147E+03  0.00000000000E+00 0. -1.
         25    1    1    2    0    0  0.28025118103E+03  0.18385898305E+03  0.92934099023E+03  0.99581349973E+03  0.12500000000E+03 0.  0.
         21    1    1    2  503  504 -0.19413450754E+02 -0.15715002561E+02 -0.21900169190E+02  0.33218380247E+02  0.00000000000E+00 0. -1.
         21    1    1    2  504  501 -0.26083773027E+03 -0.16814398048E+03 -0.10785833295E+03  0.32854549106E+03  0.00000000000E+00 0. -1.
<mgrwt>
<rscale>  4 0.35772874E+03</rscale>
<asrwt>0</asrwt>
<pdfrwt beam="1">  1       21 0.16593537E+00 0.35772874E+03</pdfrwt>
<pdfrwt beam="2">  1       21 0.42922684E-01 0.35772874E+03</pdfrwt>
<totfact> 0.10487057E+03</totfact>
</mgrwt>
</event>
