<event>
 5    0  0.2159162E+000  0.2417900E+03  0.7546771E-02  0.1118606E+00
         21   -1    0    0  502  501  0.00000000000E+00  0.00000000000E+00  0.33749563420E+03  0.33749563420E+03  0.00000000000E+00 0. -1.
         21   -1    0    0  503  502 -0.00000000000E+00 -0.00000000000E+00 -0.37520902571E+03  0.37520902571E+03  0.00000000000E+00 0. -1.
         25    1    1    2    0    0  0.14044119579E+03  0.15203180976E+03  0.25135853402E+03  0.34877430135E+03  0.12500000000E+03 0.  0.
         21    1    1    2  503  504 -0.37279080085E+02 -0.97410243798E+02 -0.13203386893E+03  0.16826000105E+03  0.00000000000E+00 0. -1.
         21    1    1    2  504  501 -0.10316211571E+03 -0.54621565967E+02 -0.15703805661E+03  0.19567035752E+03  0.00000000000E+00 0. -1.
<mgrwt>
<rscale>  4 0.24178999E+03</rscale>
<asrwt>0</asrwt>
<pdfrwt beam="1">  1       21 0.51922405E-01 0.24178999E+03</pdfrwt>
<pdfrwt beam="2">  1       21 0.57724466E-01 0.24178999E+03</pdfrwt>
<totfact> 0.96054453E+03</totfact>
</mgrwt>
</event>
<event>
 5    0  0.2159162E+000  0.2601523E+03  0.7546771E-02  0.1107052E+00
         21   -1    0    0  502  501  0.00000000000E+00  0.00000000000E+00  0.25751999638E+04  0.25751999638E+04  0.00000000000E+00 0. -1.
         21   -1    0    0  503  502 -0.00000000000E+00 -0.00000000000E+00 -0.24385892980E+02  0.24385892980E+02  0.00000000000E+00 0. -1.
         25    1    1    2    0    0 -0.22265856405E+03  0.49773409928E+02  0.14023411491E+04  0.14262678314E+04  0.12500000000E+03 0.  0.
         21    1    1    2  503  504  0.17107883003E+03 -0.61004315718E+02  0.98266571476E+03  0.99931046206E+03  0.00000000000E+00 0. -1.
         21    1    1    2  504  501  0.51579734022E+02  0.11230905790E+02  0.16580720704E+03  0.17400756338E+03  0.00000000000E+00 0. -1.
<mgrwt>
<rscale>  4 0.26015232E+03</rscale>
<asrwt>0</asrwt>
<pdfrwt beam="1">  1       21 0.39618440E+00 0.26015232E+03</pdfrwt>
<pdfrwt beam="2">  1       21 0.37516779E-02 0.26015232E+03</pdfrwt>
<totfact> 0.37045000E+03</totfact>
</mgrwt>
</event>
<event>
 5    0  0.2159162E+000  0.3388648E+03  0.7546771E-02  0.1067280E+00
         21   -1    0    0  502  501  0.00000000000E+00  0.00000000000E+00  0.14029152288E+04  0.14029152288E+04  0.00000000000E+00 0. -1.
         21   -1    0    0  503  502 -0.00000000000E+00 -0.00000000000E+00 -0.34433961824E+03  0.34433961824E+03  0.00000000000E+00 0. -1.
         25    1    1    2    0    0  0.19432852330E+03  0.31418841248E+03  0.11243218004E+04  0.11900430431E+04  0.12500000000E+03 0.  0.
         21    1    1    2  503  504 -0.19156800163E+03 -0.24545027283E+03 -0.22472551587E+03  0.38398657941E+03  0.00000000000E+00 0. -1.
         21    1    1    2  504  501 -0.27605216682E+01 -0.68738139644E+02  0.15897932596E+03  0.17322522451E+03  0.00000000000E+00 0. -1.
<mgrwt>
<rscale>  4 0.33886485E+03</rscale>
<asrwt>0</asrwt>
<pdfrwt beam="1">  1       21 0.21583311E+00 0.33886485E+03</pdfrwt>
<pdfrwt beam="2">  1       21 0.52975326E-01 0.33886485E+03</pdfrwt>
<totfact> 0.31282479E+02</totfact>
</mgrwt>
</event>
<event>
 5    0  0.2159162E+000  0.2658857E+03  0.7546771E-02  0.1103658E+00
         21   -1    0    0  502  501  0.00000000000E+00  0.00000000000E+00  0.13970757324E+03  0.13970757324E+03  0.00000000000E+00 0.  1.
         21   -1    0    0  503  502 -0.00000000000E+00 -0.00000000000E+00 -0.15848873376E+04  0.15848873376E+04  0.00000000000E+00 0. -1.
         25    1    1    2    0    0 -0.28700881434E+01 -0.23465287847E+03 -0.70192051818E+01  0.26597834502E+03  0.12500000000E+03 0.  0.
         21    1    1    2  503  504  0.26414376411E+02  0.18413817348E+03 -0.11733829576E+04  0.11880371002E+04  0.00000000000E+00 0. -1.
         21    1    1    2  504  501 -0.23544288267E+02  0.50514704994E+02 -0.26477760162E+03  0.27057946568E+03  0.00000000000E+00 0. -1.
<mgrwt>
<rscale>  4 0.26588571E+03</rscale>
<asrwt>0</asrwt>
<pdfrwt beam="1">  1       21 0.21493473E-01 0.26588571E+03</pdfrwt>
<pdfrwt beam="2">  1       21 0.24382882E+00 0.26588571E+03</pdfrwt>
<totfact> 0.13543189E+03</totfact>
</mgrwt>
</event>
<event>
 5    0  0.1573046E+001  0.3461785E+03  0.7546771E-02  0.1064195E+00
         21   -1    0    0  502  501  0.00000000000E+00  0.00000000000E+00  0.30708337517E+03  0.30708337517E+03  0.00000000000E+00 0.  1.
         21   -1    0    0  503  502 -0.00000000000E+00 -0.00000000000E+00 -0.46604157657E+03  0.46604157657E+03  0.00000000000E+00 0.  1.
         25    1    1    2    0    0  0.24846143115E+03  0.20611028239E+03  0.87967793253E+02  0.35718043609E+03  0.12500000000E+03 0.  0.
         21    1    1    2  503  504 -0.21912772299E+03 -0.21118716336E+03 -0.23178358638E+03  0.38254490961E+03  0.00000000000E+00 0.  1.
         21    1    1    2  504  501 -0.29333708167E+02  0.50768809708E+01 -0.15142408277E+02  0.33399606040E+02  0.00000000000E+00 0. -1.
<mgrwt>
<rscale>  4 0.34617847E+03</rscale>
<asrwt>0</asrwt>
<pdfrwt beam="1">  1       21 0.47243596E-01 0.34617847E+03</pdfrwt>
<pdfrwt beam="2">  1       21 0.71698704E-01 0.34617847E+03</pdfrwt>
<totfact> 0.69199154E+03</totfact>
</mgrwt>
</event>
<event>
 5    0  0.2246329E+000  0.2601791E+03  0.7546771E-02  0.1107036E+00
         21   -1    0    0  502  501  0.00000000000E+00  0.00000000000E+00  0.11218840362E+03  0.11218840362E+03  0.00000000000E+00 0. -1.
         21   -1    0    0  503  502 -0.00000000000E+00 -0.00000000000E+00 -0.57803250501E+03  0.57803250501E+03  0.00000000000E+00 0. -1.
         25    1    1    2    0    0  0.11640921923E+03 -0.19625769160E+03 -0.16085193044E+03  0.30588646809E+03  0.12500000000E+03 0.  0.
         21    1    1    2  503  504 -0.88458116930E+02  0.13380283804E+03 -0.17469157457E+03  0.23716067158E+03  0.00000000000E+00 0. -1.
         21    1    1    2  504  501 -0.27951102305E+02  0.62454853557E+02 -0.13030059639E+03  0.14717376897E+03  0.00000000000E+00 0. -1.
<mgrwt>
<rscale>  4 0.26017915E+03</rscale>
<asrwt>0</asrwt>
<pdfrwt beam="1">  1       21 0.17259755E-01 0.26017915E+03</pdfrwt>
<pdfrwt beam="2">  1       21 0.88928076E-01 0.26017915E+03</pdfrwt>
<totfact> 0.31685445E+04</totfact>
</mgrwt>
</event>
<event>
 5    0  0.2664126E+000  0.2226921E+03  0.7546771E-02  0.1131892E+00
         21   -1    0    0  502  501  0.00000000000E+00  0.00000000000E+00  0.43658589027E+03  0.43658589027E+03  0.00000000000E+00 0. -1.
         21   -1    0    0  503  502 -0.00000000000E+00 -0.00000000000E+00 -0.16943543178E+03  0.16943543178E+03  0.00000000000E+00 0. -1.
         25    1    1    2    0    0 -0.22755391017E+02 -0.21285519072E+03  0.23578306079E+03  0.34211663478E+03  0.12500000000E+03 0.  0.
         21    1    1    2  503  504 -0.20153374262E+02  0.40833741024E+02  0.68991441520E+02  0.82664211743E+02  0.00000000000E+00 0. -1.
         21    1    1    2  504  501  0.42908765278E+02  0.17202144970E+03 -0.37624043820E+02  0.18124047552E+03  0.00000000000E+00 0. -1.
<mgrwt>
<rscale>  4 0.22269212E+03</rscale>
<asrwt>0</asrwt>
<pdfrwt beam="1">  1       21 0.67167059E-01 0.22269212E+03</pdfrwt>
<pdfrwt beam="2">  1       21 0.26066990E-01 0.22269212E+03</pdfrwt>
<totfact> 0.27910511E+04</totfact>
</mgrwt>
</event>
<event>
 5    0  0.2159162E+000  0.3823132E+03  0.7546771E-02  0.1050082E+00
         21   -1    0    0  502  501  0.00000000000E+00  0.00000000000E+00  0.10453049532E+04  0.10453049532E+04  0.00000000000E+00 0.  1.
         21   -1    0    0  503  502 -0.00000000000E+00 -0.00000000000E+00 -0.32232596655E+03  0.32232596655E+03  0.00000000000E+00 0.  1.
         25    1    1    2    0    0  0.93409315579E+02  0.21782753477E+03  0.65744374921E+03  0.70995170153E+03  0.12500000000E+03 0.  0.
         21    1    1    2  503  504 -0.78954343173E+02  0.17401246182E+03  0.16576318493E+03  0.25296552858E+03  0.00000000000E+00 0.  1.
         21    1    1    2  504  501 -0.14454972406E+02 -0.39183999659E+03 -0.10022794744E+03  0.40471368967E+03  0.00000000000E+00 0.  1.
<mgrwt>
<rscale>  4 0.38231322E+03</rscale>
<asrwt>0</asrwt>
<pdfrwt beam="1">  1       21 0.16081614E+00 0.38231322E+03</pdfrwt>
<pdfrwt beam="2">  1       21 0.49588611E-01 0.38231322E+03</pdfrwt>
<totfact> 0.83468577E+02</totfact>
</mgrwt>
</event>
<event>
 5    0  0.2797708E+000  0.3022789E+03  0.7546771E-02  0.1084107E+00
         21   -1    0    0  502  501  0.00000000000E+00  0.00000000000E+00  0.79248273137E+03  0.79248273137E+03  0.00000000000E+00 0.  1.
         21   -1    0    0  503  502 -0.00000000000E+00 -0.00000000000E+00 -0.10964208012E+03  0.10964208012E+03  0.00000000000E+00 0.  1.
         25    1    1    2    0    0  0.27512199525E+03 -0.74454671515E+01  0.34574575553E+03  0.45925229963E+03  0.12500000000E+03 0.  0.
         21    1    1    2  503  504 -0.21834803882E+03 -0.24142782711E+02  0.23353957905E+03  0.32062357211E+03  0.00000000000E+00 0.  1.
         21    1    1    2  504  501 -0.56773956427E+02  0.31588249862E+02  0.10355531668E+03  0.12224893975E+03  0.00000000000E+00 0.  1.
<mgrwt>
<rscale>  4 0.30227892E+03</rscale>
<asrwt>0</asrwt>
<pdfrwt beam="1">  1       21 0.12192042E+00 0.30227892E+03</pdfrwt>
<pdfrwt beam="2">  1       21 0.16868013E-01 0.30227892E+03</pdfrwt>
<totfact> 0.15127704E+04</totfact>
</mgrwt>
</event>
