<event>
 5    0  0.6041737E-002  0.5179191E+03  0.7546771E-02  0.1009205E+00
         -2   -1    0    0    0  501 -0.00000000000E+00  0.00000000000E+00  0.12623905317E+04  0.12623905317E+04  0.00000000000E+00 0. -1.
          2   -1    0    0  503    0  0.00000000000E+00 -0.00000000000E+00 -0.53121478484E+02  0.53121478484E+02  0.00000000000E+00 0.  1.
         25    1    1    2    0    0  0.76362818673E+02 -0.20946838123E+03  0.41132834450E+03  0.48427707957E+03  0.12500000000E+03 0.  0.
         21    1    1    2  502  501  0.98086839783E+01  0.30798346994E+02  0.15730707351E+03  0.16059347383E+03  0.00000000000E+00 0.  1.
         21    1    1    2  503  502 -0.86171502651E+02  0.17867003423E+03  0.64063363521E+03  0.67064145679E+03  0.00000000000E+00 0. -1.
<mgrwt>
<rscale>  4 0.51791911E+03</rscale>
<asrwt>0</asrwt>
<pdfrwt beam="1">  1        2 0.81725361E-02 0.51791911E+03</pdfrwt>
<pdfrwt beam="2">  1       -2 0.19421391E+00 0.51791911E+03</pdfrwt>
<totfact> 0.12856615E+02</totfact>
</mgrwt>
</event>
<event>
 5    0  0.6041737E-002  0.5621809E+03  0.7546771E-02  0.9987132E-01
          2   -1    0    0  503    0  0.00000000000E+00  0.00000000000E+00  0.53791147872E+03  0.53791147872E+03  0.00000000000E+00 0. -1.
         -2   -1    0    0    0  501 -0.00000000000E+00 -0.00000000000E+00 -0.14688633527E+03  0.14688633527E+03  0.00000000000E+00 0.  1.
         25    1    1    2    0    0  0.16427488098E+03  0.15267983877E+03  0.37664693448E+03  0.45583471011E+03  0.12500000000E+03 0.  0.
         21    1    1    2  502  501 -0.50591175723E+02 -0.21769380010E+02  0.55677122080E+01  0.55356773626E+02  0.00000000000E+00 0. -1.
         21    1    1    2  503  502 -0.11368370525E+03 -0.13091045876E+03  0.88104967607E+01  0.17360633026E+03  0.00000000000E+00 0.  1.
<mgrwt>
<rscale>  4 0.56218092E+03</rscale>
<asrwt>0</asrwt>
<pdfrwt beam="1">  1        2 0.82755611E-01 0.56218092E+03</pdfrwt>
<pdfrwt beam="2">  1       -2 0.22597898E-01 0.56218092E+03</pdfrwt>
<totfact> 0.97476951E+02</totfact>
</mgrwt>
</event>
<event>
 5    0  0.6041737E-002  0.7336939E+03  0.7546771E-02  0.9661285E-01
         -2   -1    0    0    0  501 -0.00000000000E+00  0.00000000000E+00  0.26921327625E+03  0.26921327625E+03  0.00000000000E+00 0.  1.
          2   -1    0    0  503    0  0.00000000000E+00 -0.00000000000E+00 -0.53769644622E+03  0.53769644622E+03  0.00000000000E+00 0. -1.
         25    1    1    2    0    0  0.14928026357E+03 -0.22822530890E+03 -0.38446500944E+03  0.48765739223E+03  0.12500000000E+03 0.  0.
         21    1    1    2  502  501 -0.12388501627E+03  0.23625646494E+03  0.11964108105E+03  0.29236723954E+03  0.00000000000E+00 0.  1.
         21    1    1    2  503  502 -0.25395247297E+02 -0.80311560461E+01 -0.36592415794E+01  0.26885090694E+02  0.00000000000E+00 0.  1.
<mgrwt>
<rscale>  4 0.73369388E+03</rscale>
<asrwt>0</asrwt>
<pdfrwt beam="1">  1        2 0.82722530E-01 0.73369388E+03</pdfrwt>
<pdfrwt beam="2">  1       -2 0.41417427E-01 0.73369388E+03</pdfrwt>
<totfact> 0.31481110E+02</totfact>
</mgrwt>
</event>
<event>
 5    0  0.6041737E-002  0.5489367E+03  0.7546771E-02  0.1001740E+00
         -1   -1    0    0    0  501 -0.00000000000E+00  0.00000000000E+00  0.49437382167E+02  0.49437382167E+02  0.00000000000E+00 0. -1.
          1   -1    0    0  503    0  0.00000000000E+00 -0.00000000000E+00 -0.15238041161E+04  0.15238041161E+04  0.00000000000E+00 0.  1.
         25    1    1    2    0    0 -0.23037232517E+03  0.62971779445E+02 -0.48920681841E+03  0.55855632159E+03  0.12500000000E+03 0.  0.
         21    1    1    2  502  501  0.73476659773E+02 -0.13888837572E+02 -0.23046318530E+03  0.24229114536E+03  0.00000000000E+00 0.  1.
         21    1    1    2  503  502  0.15689566540E+03 -0.49082941872E+02 -0.75469673022E+03  0.77239403131E+03  0.00000000000E+00 0.  1.
<mgrwt>
<rscale>  4 0.54893674E+03</rscale>
<asrwt>0</asrwt>
<pdfrwt beam="1">  1        1 0.23443142E+00 0.54893674E+03</pdfrwt>
<pdfrwt beam="2">  1       -1 0.76057505E-02 0.54893674E+03</pdfrwt>
<totfact> 0.62898374E+02</totfact>
</mgrwt>
</event>
<event>
 5    0  0.6041737E-002  0.4214859E+03  0.7546771E-02  0.1036584E+00
          1   -1    0    0  503    0  0.00000000000E+00  0.00000000000E+00  0.10926297820E+04  0.10926297820E+04  0.00000000000E+00 0.  1.
         -1   -1    0    0    0  501 -0.00000000000E+00 -0.00000000000E+00 -0.63183479913E+02  0.63183479913E+02  0.00000000000E+00 0. -1.
         25    1    1    2    0    0  0.99775710843E+02 -0.20272794404E+03  0.58390976125E+03  0.63845862908E+03  0.12500000000E+03 0.  0.
         21    1    1    2  502  501  0.23268208067E+02  0.99892434051E+02  0.16919364018E+03  0.19785448128E+03  0.00000000000E+00 0.  1.
         21    1    1    2  503  502 -0.12304391891E+03  0.10283550999E+03  0.27634290071E+03  0.31950015159E+03  0.00000000000E+00 0.  1.
<mgrwt>
<rscale>  4 0.42148592E+03</rscale>
<asrwt>0</asrwt>
<pdfrwt beam="1">  1        1 0.16809688E+00 0.42148592E+03</pdfrwt>
<pdfrwt beam="2">  1       -1 0.97205361E-02 0.42148592E+03</pdfrwt>
<totfact> 0.86553710E+02</totfact>
</mgrwt>
</event>
<event>
 5    0  0.6041737E-002  0.4769575E+03  0.7546771E-02  0.1019975E+00
          2   -1    0    0  503    0  0.00000000000E+00  0.00000000000E+00  0.40628217957E+04  0.40628217957E+04  0.00000000000E+00 0.  1.
         -2   -1    0    0    0  501 -0.00000000000E+00 -0.00000000000E+00 -0.13998179684E+02  0.13998179684E+02  0.00000000000E+00 0. -1.
         25    1    1    2    0    0  0.19715253161E+03  0.92683228179E+02  0.18324433893E+04  0.18495764586E+04  0.12500000000E+03 0.  0.
         21    1    1    2  502  501 -0.18218910897E+03 -0.76846405538E+02  0.19671994766E+04  0.19771120409E+04  0.00000000000E+00 0.  1.
         21    1    1    2  503  502 -0.14963422645E+02 -0.15836822641E+02  0.24918075011E+03  0.25013147581E+03  0.00000000000E+00 0.  1.
<mgrwt>
<rscale>  4 0.47695748E+03</rscale>
<asrwt>0</asrwt>
<pdfrwt beam="1">  1        2 0.62504857E+00 0.47695748E+03</pdfrwt>
<pdfrwt beam="2">  1       -2 0.21535693E-02 0.47695748E+03</pdfrwt>
<totfact> 0.26287978E+02</totfact>
</mgrwt>
</event>
<event>
 5    0  0.6041737E-002  0.5387178E+03  0.7546771E-02  0.1004140E+00
         -2   -1    0    0    0  501 -0.00000000000E+00  0.00000000000E+00  0.70989920930E+03  0.70989920930E+03  0.00000000000E+00 0. -1.
          2   -1    0    0  503    0  0.00000000000E+00 -0.00000000000E+00 -0.10220354569E+03  0.10220354569E+03  0.00000000000E+00 0.  1.
         25    1    1    2    0    0 -0.20957136424E+03 -0.28277477035E+02  0.52872763529E+03  0.58300744827E+03  0.12500000000E+03 0.  0.
         21    1    1    2  502  501  0.17400809051E+03  0.87093971213E+01  0.59771962306E+02  0.18419380185E+03  0.00000000000E+00 0.  1.
         21    1    1    2  503  502  0.35563273725E+02  0.19568079914E+02  0.19196066014E+02  0.44901504874E+02  0.00000000000E+00 0. -1.
<mgrwt>
<rscale>  4 0.53871780E+03</rscale>
<asrwt>0</asrwt>
<pdfrwt beam="1">  1        2 0.15723623E-01 0.53871780E+03</pdfrwt>
<pdfrwt beam="2">  1       -2 0.10921526E+00 0.53871780E+03</pdfrwt>
<totfact> 0.25645796E+02</totfact>
</mgrwt>
</event>
<event>
 5    0  0.6041737E-002  0.6627363E+03  0.7546771E-02  0.9783170E-01
          1   -1    0    0  503    0  0.00000000000E+00  0.00000000000E+00  0.15943513066E+04  0.15943513066E+04  0.00000000000E+00 0. -1.
         -1   -1    0    0    0  501 -0.00000000000E+00 -0.00000000000E+00 -0.84835472924E+02  0.84835472924E+02  0.00000000000E+00 0.  1.
         25    1    1    2    0    0 -0.12175184425E+03 -0.18105957566E+03  0.12786891984E+04  0.13031796298E+04  0.12500000000E+03 0.  0.
         21    1    1    2  502  501  0.58990053410E+02  0.15197737977E+03  0.32859450427E+02  0.16630301815E+03  0.00000000000E+00 0.  1.
         21    1    1    2  503  502  0.62761790837E+02  0.29082195883E+02  0.19796718481E+03  0.20970413150E+03  0.00000000000E+00 0. -1.
<mgrwt>
<rscale>  4 0.66273629E+03</rscale>
<asrwt>0</asrwt>
<pdfrwt beam="1">  1        1 0.24528479E+00 0.66273629E+03</pdfrwt>
<pdfrwt beam="2">  1       -1 0.13051612E-01 0.66273629E+03</pdfrwt>
<totfact> 0.23835123E+02</totfact>
</mgrwt>
</event>
<event>
 5    0  0.6041737E-002  0.5061266E+03  0.7546771E-02  0.1012192E+00
          1   -1    0    0  503    0  0.00000000000E+00  0.00000000000E+00  0.14118809942E+04  0.14118809942E+04  0.00000000000E+00 0. -1.
         -1   -1    0    0    0  501 -0.00000000000E+00 -0.00000000000E+00 -0.45358664240E+02  0.45358664240E+02  0.00000000000E+00 0.  1.
         25    1    1    2    0    0  0.60015962075E+02 -0.21892009285E+03  0.90237404994E+03  0.93884601973E+03  0.12500000000E+03 0.  0.
         21    1    1    2  502  501 -0.34267939402E+02  0.56852875258E+02  0.14752367841E+03  0.16177075381E+03  0.00000000000E+00 0.  1.
         21    1    1    2  503  502 -0.25748022673E+02  0.16206721760E+03  0.31662460160E+03  0.35662288489E+03  0.00000000000E+00 0.  1.
<mgrwt>
<rscale>  4 0.50612661E+03</rscale>
<asrwt>0</asrwt>
<pdfrwt beam="1">  1        1 0.21721243E+00 0.50612661E+03</pdfrwt>
<pdfrwt beam="2">  1       -1 0.69782571E-02 0.50612661E+03</pdfrwt>
<totfact> 0.85855774E+02</totfact>
</mgrwt>
</event>
<event>
 5    0  0.6041737E-002  0.4958726E+03  0.7546771E-02  0.1014862E+00
          1   -1    0    0  503    0  0.00000000000E+00  0.00000000000E+00  0.29698799100E+03  0.29698799100E+03  0.00000000000E+00 0. -1.
         -1   -1    0    0    0  501 -0.00000000000E+00 -0.00000000000E+00 -0.20698617484E+03  0.20698617484E+03  0.00000000000E+00 0.  1.
         25    1    1    2    0    0 -0.19969960598E+03 -0.91981104057E+02 -0.97673465266E+01  0.25310246382E+03  0.12500000000E+03 0.  0.
         21    1    1    2  502  501  0.26039667272E+02  0.36080687455E+00  0.35994343634E+02  0.44427325227E+02  0.00000000000E+00 0. -1.
         21    1    1    2  503  502  0.17365993871E+03  0.91620297182E+02  0.63774819048E+02  0.20644437680E+03  0.00000000000E+00 0.  1.
<mgrwt>
<rscale>  4 0.49587260E+03</rscale>
<asrwt>0</asrwt>
<pdfrwt beam="1">  1        1 0.45690460E-01 0.49587260E+03</pdfrwt>
<pdfrwt beam="2">  1       -1 0.31844027E-01 0.49587260E+03</pdfrwt>
<totfact> 0.82008281E+02</totfact>
</mgrwt>
</event>
<event>
 5    0  0.6041737E-002  0.6194401E+03  0.7546771E-02  0.9865875E-01
         -2   -1    0    0    0  501 -0.00000000000E+00  0.00000000000E+00  0.22564409063E+03  0.22564409063E+03  0.00000000000E+00 0. -1.
          2   -1    0    0  503    0  0.00000000000E+00 -0.00000000000E+00 -0.49463304070E+03  0.49463304070E+03  0.00000000000E+00 0.  1.
         25    1    1    2    0    0  0.11906413957E+03 -0.17260101493E+03  0.11079840487E+03  0.26808331952E+03  0.12500000000E+03 0.  0.
         21    1    1    2  502  501 -0.47187432075E+02  0.11938561439E+02 -0.21912537721E+02  0.53379231022E+02  0.00000000000E+00 0.  1.
         21    1    1    2  503  502 -0.71876707497E+02  0.16066245349E+03 -0.35787481722E+03  0.39881458078E+03  0.00000000000E+00 0.  1.
<mgrwt>
<rscale>  4 0.61944011E+03</rscale>
<asrwt>0</asrwt>
<pdfrwt beam="1">  1        2 0.76097390E-01 0.61944011E+03</pdfrwt>
<pdfrwt beam="2">  1       -2 0.34714476E-01 0.61944011E+03</pdfrwt>
<totfact> 0.48929416E+02</totfact>
</mgrwt>
</event>
<event>
 5    0  0.6041737E-002  0.6564200E+03  0.7546771E-02  0.9794806E-01
         -2   -1    0    0    0  501 -0.00000000000E+00  0.00000000000E+00  0.48523901787E+03  0.48523901787E+03  0.00000000000E+00 0. -1.
          2   -1    0    0  503    0  0.00000000000E+00 -0.00000000000E+00 -0.22199744042E+03  0.22199744042E+03  0.00000000000E+00 0.  1.
         25    1    1    2    0    0  0.28302664296E+03 -0.12557978106E+03  0.15840174500E+03  0.36958148608E+03  0.12500000000E+03 0.  0.
         21    1    1    2  502  501 -0.10726318175E+03  0.45525918607E+01  0.40804208224E+02  0.11485251265E+03  0.00000000000E+00 0.  1.
         21    1    1    2  503  502 -0.17576346120E+03  0.12102718919E+03  0.64035624231E+02  0.22280245957E+03  0.00000000000E+00 0.  1.
<mgrwt>
<rscale>  4 0.65642005E+03</rscale>
<asrwt>0</asrwt>
<pdfrwt beam="1">  1        2 0.34153453E-01 0.65642005E+03</pdfrwt>
<pdfrwt beam="2">  1       -2 0.74652156E-01 0.65642005E+03</pdfrwt>
<totfact> 0.25064461E+02</totfact>
</mgrwt>
</event>
<event>
 5    0  0.6041737E-002  0.7100456E+03  0.7546771E-02  0.9700205E-01
          2   -1    0    0  503    0  0.00000000000E+00  0.00000000000E+00  0.52077049421E+03  0.52077049421E+03  0.00000000000E+00 0.  1.
         -2   -1    0    0    0  501 -0.00000000000E+00 -0.00000000000E+00 -0.24202830815E+03  0.24202830815E+03  0.00000000000E+00 0. -1.
         25    1    1    2    0    0  0.10352209781E+02  0.32796108467E+03  0.24176896282E+03  0.42631311578E+03  0.12500000000E+03 0.  0.
         21    1    1    2  502  501 -0.21073020952E+02 -0.30061434118E+03  0.18784296793E+02  0.30193692080E+03  0.00000000000E+00 0.  1.
         21    1    1    2  503  502  0.10720811171E+02 -0.27346743490E+02  0.18188926450E+02  0.34548765782E+02  0.00000000000E+00 0.  1.
<mgrwt>
<rscale>  4 0.71004564E+03</rscale>
<asrwt>0</asrwt>
<pdfrwt beam="1">  1        2 0.80118537E-01 0.71004564E+03</pdfrwt>
<pdfrwt beam="2">  1       -2 0.37235124E-01 0.71004564E+03</pdfrwt>
<totfact> 0.40221710E+02</totfact>
</mgrwt>
</event>
<event>
 5    0  0.6041737E-002  0.8151129E+03  0.7546771E-02  0.9538396E-01
         -1   -1    0    0    0  501 -0.00000000000E+00  0.00000000000E+00  0.63613507501E+02  0.63613507501E+02  0.00000000000E+00 0. -1.
          1   -1    0    0  503    0  0.00000000000E+00 -0.00000000000E+00 -0.33076416726E+04  0.33076416726E+04  0.00000000000E+00 0.  1.
         25    1    1    2    0    0 -0.29040400413E+03 -0.14860978999E+03 -0.25329777199E+04  0.25569553154E+04  0.12500000000E+03 0.  0.
         21    1    1    2  502  501  0.31591699054E+03  0.96267279035E+02 -0.65463152629E+03  0.73322122796E+03  0.00000000000E+00 0. -1.
         21    1    1    2  503  502 -0.25512986408E+02  0.52342510953E+02 -0.56418918903E+02  0.81078636757E+02  0.00000000000E+00 0. -1.
<mgrwt>
<rscale>  4 0.81511286E+03</rscale>
<asrwt>0</asrwt>
<pdfrwt beam="1">  1        1 0.50886814E+00 0.81511286E+03</pdfrwt>
<pdfrwt beam="2">  1       -1 0.97866899E-02 0.81511286E+03</pdfrwt>
<totfact> 0.24346096E+01</totfact>
</mgrwt>
</event>
<event>
 5    0  0.6041737E-002  0.5927281E+03  0.7546771E-02  0.9920609E-01
         -1   -1    0    0    0  501 -0.00000000000E+00  0.00000000000E+00  0.25440484277E+03  0.25440484277E+03  0.00000000000E+00 0. -1.
          1   -1    0    0  503    0  0.00000000000E+00 -0.00000000000E+00 -0.34524365534E+03  0.34524365534E+03  0.00000000000E+00 0.  1.
         25    1    1    2    0    0  0.19952988787E+03 -0.16776181144E+03  0.16511000672E+02  0.28957523145E+03  0.12500000000E+03 0.  0.
         21    1    1    2  502  501 -0.11279352681E+03  0.94765588857E+02 -0.12762072973E+03  0.19491010025E+03  0.00000000000E+00 0.  1.
         21    1    1    2  503  502 -0.86736361054E+02  0.72996222581E+02  0.20270916489E+02  0.11516316640E+03  0.00000000000E+00 0.  1.
<mgrwt>
<rscale>  4 0.59272813E+03</rscale>
<asrwt>0</asrwt>
<pdfrwt beam="1">  1        1 0.53114408E-01 0.59272813E+03</pdfrwt>
<pdfrwt beam="2">  1       -1 0.39139207E-01 0.59272813E+03</pdfrwt>
<totfact> 0.46756227E+02</totfact>
</mgrwt>
</event>
<event>
 5    0  0.6041737E-002  0.4942712E+03  0.7546771E-02  0.1015285E+00
         -2   -1    0    0    0  501 -0.00000000000E+00  0.00000000000E+00  0.14712713776E+03  0.14712713776E+03  0.00000000000E+00 0. -1.
          2   -1    0    0  503    0  0.00000000000E+00 -0.00000000000E+00 -0.54719172924E+03  0.54719172924E+03  0.00000000000E+00 0.  1.
         25    1    1    2    0    0 -0.23293074215E+03  0.78864203088E+01 -0.34333369496E+03  0.43338430101E+03  0.12500000000E+03 0.  0.
         21    1    1    2  502  501  0.20254588399E+03  0.76448998458E+01 -0.81818450249E+02  0.21858073661E+03  0.00000000000E+00 0.  1.
         21    1    1    2  503  502  0.30384858160E+02 -0.15531320155E+02  0.25087553731E+02  0.42353829382E+02  0.00000000000E+00 0. -1.
<mgrwt>
<rscale>  4 0.49427125E+03</rscale>
<asrwt>0</asrwt>
<pdfrwt beam="1">  1        2 0.84183344E-01 0.49427125E+03</pdfrwt>
<pdfrwt beam="2">  1       -2 0.22634944E-01 0.49427125E+03</pdfrwt>
<totfact> 0.95322199E+02</totfact>
</mgrwt>
</event>
<event>
 5    0  0.6041737E-002  0.5885410E+03  0.7546771E-02  0.9929469E-01
         -3   -1    0    0    0  501 -0.00000000000E+00  0.00000000000E+00  0.31672592183E+03  0.31672592183E+03  0.00000000000E+00 0. -1.
          3   -1    0    0  503    0  0.00000000000E+00 -0.00000000000E+00 -0.27340717240E+03  0.27340717240E+03  0.00000000000E+00 0.  1.
         25    1    1    2    0    0  0.55328326690E+02  0.26499799206E+03 -0.48187276726E+02  0.30204664072E+03  0.12500000000E+03 0.  0.
         21    1    1    2  502  501 -0.49768216937E+01 -0.28620818531E+02  0.22508381490E+02  0.36749792446E+02  0.00000000000E+00 0.  1.
         21    1    1    2  503  502 -0.50351504996E+02 -0.23637717353E+03  0.68997644665E+02  0.25133666106E+03  0.00000000000E+00 0. -1.
<mgrwt>
<rscale>  4 0.58854104E+03</rscale>
<asrwt>0</asrwt>
<pdfrwt beam="1">  1        3 0.42062642E-01 0.58854104E+03</pdfrwt>
<pdfrwt beam="2">  1       -3 0.48727065E-01 0.58854104E+03</pdfrwt>
<totfact> 0.61747911E+01</totfact>
</mgrwt>
</event>
<event>
 5    0  0.6041737E-002  0.5275071E+03  0.7546771E-02  0.1006839E+00
         -1   -1    0    0    0  501 -0.00000000000E+00  0.00000000000E+00  0.81365585641E+02  0.81365585641E+02  0.00000000000E+00 0.  1.
          1   -1    0    0  503    0  0.00000000000E+00 -0.00000000000E+00 -0.85497969470E+03  0.85497969470E+03  0.00000000000E+00 0. -1.
         25    1    1    2    0    0  0.13829836528E+03  0.14631696211E+03 -0.66217390091E+03  0.70330247141E+03  0.12500000000E+03 0.  0.
         21    1    1    2  502  501 -0.97707342332E+02 -0.12455961210E+03 -0.80901897982E+02  0.17778340420E+03  0.00000000000E+00 0.  1.
         21    1    1    2  503  502 -0.40591022951E+02 -0.21757350020E+02 -0.30538310171E+02  0.55259404740E+02  0.00000000000E+00 0.  1.
<mgrwt>
<rscale>  4 0.52750706E+03</rscale>
<asrwt>0</asrwt>
<pdfrwt beam="1">  1        1 0.13153533E+00 0.52750706E+03</pdfrwt>
<pdfrwt beam="2">  1       -1 0.12517783E-01 0.52750706E+03</pdfrwt>
<totfact> 0.88435937E+02</totfact>
</mgrwt>
</event>
<event>
 5    0  0.6041737E-002  0.4874693E+03  0.7546771E-02  0.1017102E+00
         -1   -1    0    0    0  501 -0.00000000000E+00  0.00000000000E+00  0.10377537428E+03  0.10377537428E+03  0.00000000000E+00 0.  1.
          1   -1    0    0  503    0  0.00000000000E+00 -0.00000000000E+00 -0.57245354619E+03  0.57245354619E+03  0.00000000000E+00 0. -1.
         25    1    1    2    0    0  0.18676734341E+03  0.11427647879E+03 -0.32672506281E+03  0.41269288925E+03  0.12500000000E+03 0.  0.
         21    1    1    2  502  501 -0.22124442684E+02 -0.29470856535E+01 -0.22284922020E+02  0.31540355536E+02  0.00000000000E+00 0.  1.
         21    1    1    2  503  502 -0.16464290072E+03 -0.11132939314E+03 -0.11966818708E+03  0.23199567568E+03  0.00000000000E+00 0. -1.
<mgrwt>
<rscale>  4 0.48746931E+03</rscale>
<asrwt>0</asrwt>
<pdfrwt beam="1">  1        1 0.88069776E-01 0.48746931E+03</pdfrwt>
<pdfrwt beam="2">  1       -1 0.15965442E-01 0.48746931E+03</pdfrwt>
<totfact> 0.10930006E+03</totfact>
</mgrwt>
</event>
<event>
 5    0  0.6041737E-002  0.5150866E+03  0.7546771E-02  0.1009914E+00
         -2   -1    0    0    0  501 -0.00000000000E+00  0.00000000000E+00  0.61392508154E+02  0.61392508154E+02  0.00000000000E+00 0. -1.
          2   -1    0    0  503    0  0.00000000000E+00 -0.00000000000E+00 -0.10804014175E+04  0.10804014175E+04  0.00000000000E+00 0.  1.
         25    1    1    2    0    0 -0.16125574130E+03 -0.17169635241E+03 -0.63121594244E+03  0.68523106871E+03  0.12500000000E+03 0.  0.
         21    1    1    2  502  501  0.70574700540E+02  0.10994698906E+03 -0.22689666593E+03  0.26182289007E+03  0.00000000000E+00 0. -1.
         21    1    1    2  503  502  0.90681040759E+02  0.61749363351E+02 -0.16089630097E+03  0.19473996687E+03  0.00000000000E+00 0. -1.
<mgrwt>
<rscale>  4 0.51508661E+03</rscale>
<asrwt>0</asrwt>
<pdfrwt beam="1">  1        2 0.16621560E+00 0.51508661E+03</pdfrwt>
<pdfrwt beam="2">  1       -2 0.94450012E-02 0.51508661E+03</pdfrwt>
<totfact> 0.17017583E+03</totfact>
</mgrwt>
</event>
<event>
 5    0  0.6041737E-002  0.6046503E+03  0.7546771E-02  0.9895805E-01
         -1   -1    0    0    0  501 -0.00000000000E+00  0.00000000000E+00  0.89926488609E+02  0.89926488609E+02  0.00000000000E+00 0.  1.
          1   -1    0    0  503    0  0.00000000000E+00 -0.00000000000E+00 -0.10163913832E+04  0.10163913832E+04  0.00000000000E+00 0. -1.
         25    1    1    2    0    0 -0.16646832428E+03 -0.17377896531E+03 -0.77200080758E+03  0.81824267713E+03  0.12500000000E+03 0.  0.
         21    1    1    2  502  501  0.20259532518E+02  0.71640937183E+01 -0.13179444974E+02  0.25208543522E+02  0.00000000000E+00 0.  1.
         21    1    1    2  503  502  0.14620879176E+03  0.16661487160E+03 -0.14128464207E+03  0.26286665119E+03  0.00000000000E+00 0.  1.
<mgrwt>
<rscale>  4 0.60465034E+03</rscale>
<asrwt>0</asrwt>
<pdfrwt beam="1">  1        1 0.15636791E+00 0.60465034E+03</pdfrwt>
<pdfrwt beam="2">  1       -1 0.13834844E-01 0.60465034E+03</pdfrwt>
<totfact> 0.55935202E+02</totfact>
</mgrwt>
</event>
<event>
 5    0  0.6041737E-002  0.7712411E+03  0.7546771E-02  0.9602603E-01
         -1   -1    0    0    0  501 -0.00000000000E+00  0.00000000000E+00  0.35434196021E+03  0.35434196021E+03  0.00000000000E+00 0. -1.
          1   -1    0    0  503    0  0.00000000000E+00 -0.00000000000E+00 -0.41966017022E+03  0.41966017022E+03  0.00000000000E+00 0.  1.
         25    1    1    2    0    0  0.90159399598E+02  0.36133232227E+03 -0.37718901791E+02  0.39463588282E+03  0.12500000000E+03 0.  0.
         21    1    1    2  502  501 -0.96024421253E+02 -0.32865805325E+03 -0.11800187711E+02  0.34260188247E+03  0.00000000000E+00 0. -1.
         21    1    1    2  503  502  0.58650216556E+01 -0.32674269028E+02 -0.15799120509E+02  0.36764365143E+02  0.00000000000E+00 0. -1.
<mgrwt>
<rscale>  4 0.77124110E+03</rscale>
<asrwt>0</asrwt>
<pdfrwt beam="1">  1        1 0.64563103E-01 0.77124110E+03</pdfrwt>
<pdfrwt beam="2">  1       -1 0.54514148E-01 0.77124110E+03</pdfrwt>
<totfact> 0.19366935E+02</totfact>
</mgrwt>
</event>
<event>
 5    0  0.6041737E-002  0.5730154E+03  0.7546771E-02  0.9963028E-01
         -2   -1    0    0    0  501 -0.00000000000E+00  0.00000000000E+00  0.30603431625E+02  0.30603431625E+02  0.00000000000E+00 0.  1.
          2   -1    0    0  503    0  0.00000000000E+00 -0.00000000000E+00 -0.33839093003E+04  0.33839093003E+04  0.00000000000E+00 0. -1.
         25    1    1    2    0    0  0.27837580344E+03 -0.87242308744E+02 -0.15710021416E+04  0.16027404773E+04  0.12500000000E+03 0.  0.
         21    1    1    2  502  501 -0.46457209035E+02 -0.28282429051E+01 -0.90443935043E+02  0.10171714022E+03  0.00000000000E+00 0. -1.
         21    1    1    2  503  502 -0.23191859440E+03  0.90070551649E+02 -0.16918597919E+04  0.17100551144E+04  0.00000000000E+00 0.  1.
<mgrwt>
<rscale>  4 0.57301539E+03</rscale>
<asrwt>0</asrwt>
<pdfrwt beam="1">  1        2 0.52060135E+00 0.57301539E+03</pdfrwt>
<pdfrwt beam="2">  1       -2 0.47082210E-02 0.57301539E+03</pdfrwt>
<totfact> 0.24309264E+02</totfact>
</mgrwt>
</event>
<event>
 5    0  0.6041737E-002  0.6418016E+03  0.7546771E-02  0.9822286E-01
         -2   -1    0    0    0  501 -0.00000000000E+00  0.00000000000E+00  0.52333828834E+02  0.52333828834E+02  0.00000000000E+00 0.  1.
          2   -1    0    0  503    0  0.00000000000E+00 -0.00000000000E+00 -0.19677008681E+04  0.19677008681E+04  0.00000000000E+00 0. -1.
         25    1    1    2    0    0 -0.24262725538E+03 -0.15310794203E+03 -0.65545785100E+03  0.72633327158E+03  0.12500000000E+03 0.  0.
         21    1    1    2  502  501  0.68697448803E+02  0.30772987148E+02 -0.45463170344E+03  0.46082133412E+03  0.00000000000E+00 0. -1.
         21    1    1    2  503  502  0.17392980658E+03  0.12233495488E+03 -0.80527748487E+03  0.83288009127E+03  0.00000000000E+00 0. -1.
<mgrwt>
<rscale>  4 0.64180159E+03</rscale>
<asrwt>0</asrwt>
<pdfrwt beam="1">  1        2 0.30272318E+00 0.64180159E+03</pdfrwt>
<pdfrwt beam="2">  1       -2 0.80513590E-02 0.64180159E+03</pdfrwt>
<totfact> 0.69850635E+02</totfact>
</mgrwt>
</event>
<event>
 5    0  0.6041737E-002  0.4622346E+03  0.7546771E-02  0.1024135E+00
         -2   -1    0    0    0  501 -0.00000000000E+00  0.00000000000E+00  0.11937073822E+03  0.11937073822E+03  0.00000000000E+00 0. -1.
          2   -1    0    0  503    0  0.00000000000E+00 -0.00000000000E+00 -0.44747327431E+03  0.44747327431E+03  0.00000000000E+00 0.  1.
         25    1    1    2    0    0  0.19794571273E+03 -0.74560445368E+02 -0.18972972536E+03  0.31042573007E+03  0.12500000000E+03 0.  0.
         21    1    1    2  502  501 -0.78377506303E+02  0.17454637743E+02 -0.31769576699E+02  0.86353945345E+02  0.00000000000E+00 0.  1.
         21    1    1    2  503  502 -0.11956820643E+03  0.57105807626E+02 -0.10660323404E+03  0.17006433712E+03  0.00000000000E+00 0. -1.
<mgrwt>
<rscale>  4 0.46223464E+03</rscale>
<asrwt>0</asrwt>
<pdfrwt beam="1">  1        2 0.68842042E-01 0.46223464E+03</pdfrwt>
<pdfrwt beam="2">  1       -2 0.18364729E-01 0.46223464E+03</pdfrwt>
<totfact> 0.17264992E+03</totfact>
</mgrwt>
</event>
<event>
 5    0  0.6041737E-002  0.4561657E+03  0.7546771E-02  0.1025899E+00
          1   -1    0    0  503    0  0.00000000000E+00  0.00000000000E+00  0.74562494573E+03  0.74562494573E+03  0.00000000000E+00 0.  1.
         -1   -1    0    0    0  501 -0.00000000000E+00 -0.00000000000E+00 -0.16715444630E+03  0.16715444630E+03  0.00000000000E+00 0. -1.
         25    1    1    2    0    0 -0.41875255930E+02  0.22118557935E+03  0.59699339461E+03  0.65015591267E+03  0.12500000000E+03 0.  0.
         21    1    1    2  502  501 -0.27290804723E+01 -0.95154977824E+02 -0.71255388162E+02  0.11890857003E+03  0.00000000000E+00 0. -1.
         21    1    1    2  503  502  0.44604336402E+02 -0.12603060152E+03  0.52732492982E+02  0.14371490933E+03  0.00000000000E+00 0. -1.
<mgrwt>
<rscale>  4 0.45616571E+03</rscale>
<asrwt>0</asrwt>
<pdfrwt beam="1">  1        1 0.11471153E+00 0.45616571E+03</pdfrwt>
<pdfrwt beam="2">  1       -1 0.25716069E-01 0.45616571E+03</pdfrwt>
<totfact> 0.33806526E+02</totfact>
</mgrwt>
</event>
<event>
 5    0  0.6041737E-002  0.5792082E+03  0.7546771E-02  0.9949507E-01
          2   -1    0    0  503    0  0.00000000000E+00  0.00000000000E+00  0.13407128788E+03  0.13407128788E+03  0.00000000000E+00 0.  1.
         -2   -1    0    0    0  501 -0.00000000000E+00 -0.00000000000E+00 -0.62556667857E+03  0.62556667857E+03  0.00000000000E+00 0. -1.
         25    1    1    2    0    0  0.87906120102E+02  0.23938519271E+03 -0.14517319348E+03  0.31895612950E+03  0.12500000000E+03 0.  0.
         21    1    1    2  502  501  0.17704550791E+01 -0.11843208752E+03 -0.18793223382E+03  0.22214368858E+03  0.00000000000E+00 0. -1.
         21    1    1    2  503  502 -0.89676575181E+02 -0.12095310518E+03 -0.15838996340E+03  0.21853814838E+03  0.00000000000E+00 0. -1.
<mgrwt>
<rscale>  4 0.57920818E+03</rscale>
<asrwt>0</asrwt>
<pdfrwt beam="1">  1        2 0.20626352E-01 0.57920818E+03</pdfrwt>
<pdfrwt beam="2">  1       -2 0.96241029E-01 0.57920818E+03</pdfrwt>
<totfact> 0.25072697E+02</totfact>
</mgrwt>
</event>
<event>
 5    0  0.6041737E-002  0.5667072E+03  0.7546771E-02  0.9976992E-01
          1   -1    0    0  503    0  0.00000000000E+00  0.00000000000E+00  0.37424408581E+03  0.37424408581E+03  0.00000000000E+00 0.  1.
         -1   -1    0    0    0  501 -0.00000000000E+00 -0.00000000000E+00 -0.21453713272E+03  0.21453713272E+03  0.00000000000E+00 0. -1.
         25    1    1    2    0    0 -0.23946635284E+03  0.91890693574E+02  0.14981180388E+03  0.32226791695E+03  0.12500000000E+03 0.  0.
         21    1    1    2  502  501  0.28316180540E+02 -0.10194741872E+02 -0.22805627593E+02  0.37760236918E+02  0.00000000000E+00 0. -1.
         21    1    1    2  503  502  0.21115017230E+03 -0.81695951701E+02  0.32700776797E+02  0.22875306466E+03  0.00000000000E+00 0. -1.
<mgrwt>
<rscale>  4 0.56670717E+03</rscale>
<asrwt>0</asrwt>
<pdfrwt beam="1">  1        1 0.57576013E-01 0.56670717E+03</pdfrwt>
<pdfrwt beam="2">  1       -1 0.33005713E-01 0.56670717E+03</pdfrwt>
<totfact> 0.57039038E+02</totfact>
</mgrwt>
</event>
