<LesHouchesEvents version="3.0">
  <!--
  <scalesfunctionalform>
    muR  H_T/2 := sum_i mT(i)/2, i=final state
    muF1 H_T/2 := sum_i mT(i)/2, i=final state
    muF2 H_T/2 := sum_i mT(i)/2, i=final state
    QES  H_T/2 := sum_i mT(i)/2, i=final state
  </scalesfunctionalform>
HERWIG6   
  -->
  <header>
        7
  </header>
  <init>
   2212   2212 0.65000000D+04 0.65000000D+04 -1 -1   244800   244800 -4   1
 0.68126678D-05 0.55007815D-06 0.19531769D-05     66
  </init>
  <event>
  5     66 0.19531769E-05 0.20348816E+02 0.75467711E-02 0.79703423E-01
       -1 -1    0    0    0  501 0.00000000E+00 0.00000000E+00 0.73011555E+03 0.73011562E+03 0.32000000E+00 0.0000E+00 0.9000E+01
       -4 -1    0    0    0  502 0.00000000E+00 0.00000000E+00 -.11306193E+04 0.11306203E+04 0.15500000E+01 0.0000E+00 0.9000E+01
       25  1    1    2    0    0 0.12441552E+03 0.44853992E+03 -.19158750E+03 0.51865022E+03 0.12500000E+03 0.0000E+00 0.9000E+01
       -2  1    1    2    0  501 -.20825545E+00 -.20350184E+02 0.50228234E+03 0.50269456E+03 0.32000000E+00 0.0000E+00 0.9000E+01
       -3  1    1    2    0  502 -.12420726E+03 -.42818974E+03 -.71119857E+03 0.83939118E+03 0.50000000E+00 0.0000E+00 0.9000E+01
#aMCatNLO 1  0  0  1  1 0.14910171D+03 0.00000000D+00  -5  6  0 0.00000000D+00 0.00000000D+00 0.00000000D+00 0.00000000D+00 0.00000000D+00
  <mgrwgt>
 0.1263800061D-02    5    4    0
 0.908561377715594D+03 0.000000000000000D+00 0.000000000000000D+00 0.908561377715594D+03
 0.908561377715594D+03 0.000000000000000D+00 0.000000000000000D+00 -.908561377715594D+03
 0.488918555173216D+03 0.124432464883513D+03 0.448597389492367D+03 -.818125749277693D+02
 0.625390746438361D+03 -.208230545547122D+00 -.203477504016402D+02 0.625059606297162D+03
 0.702813453819610D+03 -.124224234337966D+03 -.428249639090727D+03 -.543247031369392D+03
 0.000000000000000D+00 -.000000000000000D+00 0.000000000000000D+00 0.000000000000000D+00
 0.277310583307293D+04 0.000000000000000D+00 0.000000000000000D+00 0.277310583307293D+04
 0.242676158852485D+04 0.000000000000000D+00 0.000000000000000D+00 -.242676158852485D+04
 0.895437381408999D+03 0.787294080054964D+03 0.399572068741925D+03 -.818125749277693D+02
 0.100172438791258D+04 0.778892098730011D+03 -.779700997205547D+02 0.625059606297162D+03
 0.100873943204811D+04 0.695306841736743D+03 -.488862251059705D+03 -.543247031369392D+03
 0.229396622022809D+04 -.226149302052172D+04 0.167260282038335D+03 0.346344244548081D+03
 0.908561377715594D+03 0.000000000000000D+00 0.000000000000000D+00 0.908561377715594D+03
 0.908561377715594D+03 0.000000000000000D+00 0.000000000000000D+00 -.908561377715594D+03
 0.488918555173216D+03 0.124432464883513D+03 0.448597389492367D+03 -.818125749277693D+02
 0.000000000000000D+00 -.000000000000000D+00 0.000000000000000D+00 0.000000000000000D+00
 0.625390746438361D+03 -.208230545547122D+00 -.203477504016402D+02 0.625059606297162D+03
 0.702813453819610D+03 -.124224234337966D+03 -.428249639090727D+03 -.543247031369392D+03
 0.277310583307293D+04 0.000000000000000D+00 0.000000000000000D+00 0.277310583307293D+04
 0.242676158852485D+04 0.000000000000000D+00 0.000000000000000D+00 -.242676158852485D+04
 0.895437381408999D+03 0.787294080054964D+03 0.399572068741925D+03 -.818125749277693D+02
 0.229396622022809D+04 -.226149302052172D+04 0.167260282038335D+03 0.346344244548081D+03
 0.100172438791258D+04 0.778892098730011D+03 -.779700997205547D+02 0.625059606297162D+03
 0.100873943204811D+04 0.695306841736743D+03 -.488862251059705D+03 -.543247031369392D+03
0.211661555910D-01 0.000000000000D+00 0.000000000000D+00 0.145478589067D-03 0.000000000000D+00  6 -1 -4 25 -2 -3 21 0 0.11232556D+00 0.17394152D+00 0.22480717D+06 0.22480717D+06 0.22480717D+06 0.10939465D+01  1  2  2  1  6  1       -1 0.107258935127D-02 0.100000000000D+01
0.162146293702D-01 0.000000000000D+00 -.812836106460D-04 0.145478589067D-03 0.000000000000D+00  6 -1 -4 25 -2 -3 21 2 0.11232556D+00 0.17394152D+00 0.22480717D+06 0.22480717D+06 0.22480717D+06 0.10939465D+01  1  2  3  1  6  1       -1 0.983310531618D-03 0.100000000000D+01
-.130922086763D-01 0.000000000000D+00 0.000000000000D+00 0.145478589067D-03 0.000000000000D+00  6 -1 -4 25 -2 -3 21 2 0.11232556D+00 0.17394152D+00 0.22480717D+06 0.22480717D+06 0.22480717D+06 0.10939465D+01  1  2 15  1  6  1       -1 -.793956271199D-03 0.100000000000D+01
0.436310474680D-01 0.000000000000D+00 -.163214846788D-01 0.145478589067D-03 0.000000000000D+00  6 -1 -4 25 -2 -3 21 2 0.55981291D+00 0.17394152D+00 0.22480717D+06 0.22480717D+06 0.22480717D+06 0.10939465D+01  1  2  5  1  6  1       -1 0.336634244111D-06 0.100000000000D+01
0.808605697895D-02 0.000000000000D+00 -.319447298676D-02 0.145478589067D-03 0.000000000000D+00  6 21 -4 25 1 -2 -3 2 0.55981291D+00 0.17394152D+00 0.22480717D+06 0.22480717D+06 0.22480717D+06 0.10939465D+01  3  4  5  5  4  1       -1 0.151981487249D-05 0.100000000000D+01
  </mgrwgt>
  </event>
  <event>
  6     66 0.19531769E-05 0.55898202E+02 0.75467711E-02 0.93527873E-01
       -1 -1    0    0    0  501 0.00000000E+00 0.00000000E+00 0.10561999E+04 0.10562000E+04 0.32000000E+00 0.0000E+00 0.9000E+01
       -4 -1    0    0    0  503 0.00000000E+00 0.00000000E+00 -.15247613E+04 0.15247620E+04 0.15500000E+01 0.0000E+00 0.9000E+01
       25  1    1    2    0    0 -.47125893E+03 0.58479788E+02 -.51598510E+03 0.71229943E+03 0.12500000E+03 0.0000E+00 0.9000E+01
       -2  1    1    2    0  501 0.51911721E+03 -.11665032E+03 0.88180444E+03 0.10298879E+04 0.32000000E+00 0.0000E+00 0.9000E+01
       -3  1    1    2    0  502 -.47902690E+02 0.42251161E+02 -.50724606E+03 0.51125204E+03 0.50000000E+00 0.0000E+00 0.9000E+01
       21  1    1    2  502  503 0.44405817E-01 0.15919376E+02 -.32713463E+03 0.32752261E+03 0.75000000E+00 0.0000E+00 0.9000E+01
#aMCatNLO 2  0  0  2  5 0.15919438D+02 0.00000000D+00  -5  6  0 0.00000000D+00 0.00000000D+00 0.00000000D+00 0.00000000D+00 0.00000000D+00
  <mgrwgt>
 0.1298501329D-02    2    2    0
 0.112447033938493D+04 0.000000000000000D+00 0.000000000000000D+00 0.112447033938493D+04
 0.112447033938493D+04 0.000000000000000D+00 0.000000000000000D+00 -.112447033938493D+04
 0.681798092973860D+03 -.471264792182495D+03 0.633172739004382D+02 -.472360093633871D+03
 0.108660285833659D+04 0.519146890569221D+03 -.108957838294173D+03 0.948325085206443D+03
 0.480539727459420D+03 -.478820983867259D+02 0.456405643937344D+02 -.475964991572572D+03
 0.000000000000000D+00 0.000000000000000D+00 0.000000000000000D+00 -.000000000000000D+00
 0.112470462368482D+04 0.000000000000000D+00 0.000000000000000D+00 0.112470462368482D+04
 0.143188926660325D+04 0.000000000000000D+00 0.000000000000000D+00 -.143188926660325D+04
 0.681376281103065D+03 -.471278250099435D+03 0.584926437704633D+02 -.472360093633871D+03
 0.108739110075429D+04 0.519125427849054D+03 -.116652170697183D+03 0.948325085206443D+03
 0.480229640181109D+03 -.478915835667543D+02 0.422401506776137D+02 -.475964991572572D+03
 0.307596868249595D+03 0.444058171352677D-01 0.159193762491058D+02 -.307184642918427D+03
-.385258123473D+00 0.000000000000D+00 0.000000000000D+00 0.450619267290D-04 0.000000000000D+00  6 -1 -4 25 -2 -3 21 2 0.16245844D+00 0.24470401D+00 0.30410682D+06 0.30410682D+06 0.30410682D+06 0.10841153D+01  1  2 13  2  6  2       -4 -.220505212726D-02 0.100000000000D+01
0.509619568909D+00 0.000000000000D+00 0.000000000000D+00 0.450619267290D-04 0.195192040121D-05  6 -1 -4 25 -2 -3 21 2 0.16249229D+00 0.23457862D+00 0.30410682D+06 0.30410682D+06 0.30410682D+06 0.10841153D+01  1  2  1  2  6  2       -4 0.350355345630D-02 0.100000000000D+01
  </mgrwgt>
  </event>
  <event>
  6     66 0.19531769E-05 0.16873404E+02 0.75467711E-02 0.94800603E-01
       -1 -1    0    0    0  501 0.00000000E+00 0.00000000E+00 0.52026709E+03 0.52026718E+03 0.32000000E+00 0.0000E+00 0.9000E+01
       -4 -1    0    0    0  503 0.00000000E+00 0.00000000E+00 -.62020203E+03 0.62020396E+03 0.15500000E+01 0.0000E+00 0.9000E+01
       25  1    1    2    0    0 -.27801532E+03 0.39104934E+03 -.15990695E+03 0.52096769E+03 0.12500000E+03 0.0000E+00 0.9000E+01
       -2  1    1    2    0  501 0.26672275E+03 -.33188995E+03 0.16977081E+03 0.45838215E+03 0.32000000E+00 0.0000E+00 0.9000E+01
       -3  1    1    2    0  502 0.13126057E+02 -.20220303E+02 -.11870367E+03 0.12112789E+03 0.50000000E+00 0.0000E+00 0.9000E+01
       21  1    1    2  502  503 -.18334879E+01 -.38939091E+02 0.89048712E+01 0.39993421E+02 0.75000000E+00 0.0000E+00 0.9000E+01
#aMCatNLO 2  0  0  2  2 0.38982233D+02 0.00000000D+00  -5  6  0 0.00000000D+00 0.00000000D+00 0.00000000D+00 0.00000000D+00 0.00000000D+00
  <mgrwgt>
 0.4735448703D-04    2    2    0
 0.547194095094075D+03 0.000000000000000D+00 0.000000000000000D+00 0.547194095094075D+03
 0.547194095094075D+03 0.000000000000000D+00 0.000000000000000D+00 -.547194095094075D+03
 0.494539734976176D+03 -.278863352435420D+03 0.373236162105542D+03 -.108970397060446D+03
 0.489200573039878D+03 0.265925057447756D+03 -.349097831325568D+03 0.216175319238201D+03
 0.110647882172095D+03 0.129382949876637D+02 -.241383307799744D+02 -.107204922177755D+03
 0.000000000000000D+00 -.000000000000000D+00 -.000000000000000D+00 0.000000000000000D+00
 0.574537246619103D+03 0.000000000000000D+00 0.000000000000000D+00 0.574537246619103D+03
 0.561613648059485D+03 0.000000000000000D+00 0.000000000000000D+00 -.561613648059485D+03
 0.507666176470353D+03 -.278024093587234D+03 0.391060101111726D+03 -.108970397060446D+03
 0.477535197258038D+03 0.266734613188561D+03 -.331904718405274D+03 0.216175319238201D+03
 0.109880872193909D+03 0.131229683230204D+02 -.202162913846408D+02 -.107204922177755D+03
 0.410686487562874D+02 -.183348792434762D+01 -.389390913218119D+02 0.129235985596185D+02
-.853965464895D-05 0.000000000000D+00 0.000000000000D+00 0.201656323994D-05 0.000000000000D+00  6 -1 -4 25 -2 -3 21 2 0.76231494D-01 0.92965468D-01 0.22496877D+06 0.22496877D+06 0.22496877D+06 0.10939228D+01  1  2  8  2  6  2       -4 -.816536494294D-05 0.100000000000D+01
0.692060815363D-04 0.000000000000D+00 0.000000000000D+00 0.201656323994D-05 0.155237030271D-07  6 -1 -4 25 -2 -3 21 2 0.80040763D-01 0.95415276D-01 0.24241849D+06 0.24241849D+06 0.24241849D+06 0.10914667D+01  1  2  1  2  6  2       -4 0.555198519687D-04 0.100000000000D+01
  </mgrwgt>
  </event>
  <event>
  5     66 -.19531769E-05 0.71168132E+02 0.75467711E-02 0.93867747E-01
       -1 -1    0    0    0  501 0.00000000E+00 0.00000000E+00 0.13729897E+04 0.13729898E+04 0.32000000E+00 0.0000E+00 0.9000E+01
       -4 -1    0    0    0  502 0.00000000E+00 0.00000000E+00 -.46945150E+03 0.46945406E+03 0.15500000E+01 0.0000E+00 0.9000E+01
       25  1    1    2    0    0 0.36842474E+01 0.50181815E+03 0.21902598E+03 0.56163370E+03 0.12500000E+03 0.0000E+00 0.9000E+01
       -2  1    1    2    0  501 0.66304246E+02 -.25905395E+02 0.78597670E+03 0.78919378E+03 0.32000000E+00 0.0000E+00 0.9000E+01
       -3  1    1    2    0  502 -.69988493E+02 -.47591276E+03 -.10146446E+03 0.49161635E+03 0.50000000E+00 0.0000E+00 0.9000E+01
#aMCatNLO 1  0  0  4  1 0.26688064D+01 0.00000000D+00  -5  6  0 0.00000000D+00 0.00000000D+00 0.00000000D+00 0.00000000D+00 0.00000000D+00
  <mgrwgt>
 -.6892451759D-03    8    2    0
 0.802841505313586D+03 0.000000000000000D+00 0.000000000000000D+00 0.802841505313586D+03
 0.802841505313586D+03 -.000000000000000D+00 -.000000000000000D+00 -.802841505313586D+03
 0.521263811899947D+03 0.370309665992129D+01 0.501896015627529D+03 -.646346514557150D+02
 0.463171090841521D+03 0.662882836118547D+02 -.258991582500980D+02 0.457670794839539D+03
 0.621248107885705D+03 -.699913802717761D+02 -.475996857377431D+03 -.393036143383824D+03
 0.000000000000000D+00 0.000000000000000D+00 0.000000000000000D+00 0.000000000000000D+00
 0.802841505313586D+03 0.000000000000000D+00 0.000000000000000D+00 0.802841505313586D+03
 0.802841505313586D+03 -.000000000000000D+00 -.000000000000000D+00 -.802841505313586D+03
 0.521261140360762D+03 0.370527735767979D+01 0.501895163618195D+03 -.646195953760875D+02
 0.956339820320193D+02 0.143475629057531D+02 -.791851882970500D+01 0.942194407620301D+02
 0.621237240958460D+03 -.699887813075889D+02 -.475997872805514D+03 -.393018199488757D+03
 0.367550647275932D+03 0.519359410441558D+02 -.179787719829762D+02 0.363418354102814D+03
0.362243790597D-04 0.000000000000D+00 0.000000000000D+00 0.915267050489D-05 0.000000000000D+00  6 -1 -4 25 -2 -3 21 0 0.21122939D+00 0.72223508D-01 0.28597059D+06 0.28597059D+06 0.28597059D+06 0.10860941D+01  1  2  2  3  6  4       -2 0.358012018450D-05 0.100000000000D+01
0.101199006251D-04 0.000000000000D+00 -.139111153687D-06 0.915267050489D-05 0.000000000000D+00  6 -1 -4 25 -2 -3 21 2 0.21122939D+00 0.72223508D-01 0.28597059D+06 0.28597059D+06 0.28597059D+06 0.10860941D+01  1  2  3  3  6  4       -2 0.117979841548D-05 0.100000000000D+01
-.262633689001D-04 0.000000000000D+00 0.000000000000D+00 0.915267050489D-05 0.000000000000D+00  6 -1 -4 25 -2 -3 21 2 0.21122939D+00 0.72223508D-01 0.28597059D+06 0.28597059D+06 0.28597059D+06 0.10860941D+01  1  2 15  3  6  4       -2 -.306183649042D-05 0.100000000000D+01
0.977929118583D-04 0.000000000000D+00 0.000000000000D+00 0.915267050489D-05 0.000000000000D+00  6 -1 -4 25 -2 -3 21 2 0.21122939D+00 0.72223508D-01 0.28606639D+06 0.28606639D+06 0.28606639D+06 0.10860833D+01  1  2 12  3  6  4       -2 0.114004820806D-04 0.100000000000D+01
-.313633614715D-01 0.000000000000D+00 0.000000000000D+00 0.915267050489D-05 0.000000000000D+00  6 -1 -4 25 -2 -3 21 2 0.21122939D+00 0.72223508D-01 0.28597059D+06 0.28597059D+06 0.28597059D+06 0.10860941D+01  1  2  4  3  6  4       -2 -.365640390542D-02 0.100000000000D+01
-.128959579230D-01 0.000000000000D+00 0.000000000000D+00 0.915267050489D-05 0.000000000000D+00  6 -1 -4 25 -2 -3 21 2 0.21122939D+00 0.72223508D-01 0.28597059D+06 0.28597059D+06 0.28597059D+06 0.10860941D+01  1  2  5  3  6  4       -2 -.150343677149D-02 0.100000000000D+01
0.247375873162D-01 0.000000000000D+00 -.000000000000D+00 0.915267050489D-05 0.000000000000D+00  6 -1 -4 25 -2 -3 21 2 0.21122939D+00 0.72223508D-01 0.28597059D+06 0.28597059D+06 0.28597059D+06 0.10860941D+01  1  2  6  3  6  4       -2 0.288395779757D-02 0.100000000000D+01
0.134977602934D-01 0.000000000000D+00 0.000000000000D+00 0.915267050489D-05 0.917962511753D-06  6 -1 -4 25 -2 -3 21 2 0.21122939D+00 0.72223508D-01 0.28606639D+06 0.28606639D+06 0.28606639D+06 0.10860833D+01  1  2 11  3  6  4       -2 0.157353913928D-02 0.100000000000D+01
  </mgrwgt>
  </event>
  <event>
  6     66 -.19531769E-05 0.16508766E+03 0.75467711E-02 0.95160000E-01
       -1 -1    0    0    0  501 0.00000000E+00 0.00000000E+00 0.28923693E+03 0.28923711E+03 0.32000000E+00 0.0000E+00 0.9000E+01
       -4 -1    0    0    0  503 0.00000000E+00 0.00000000E+00 -.14696414E+04 0.14696422E+04 0.15500000E+01 0.0000E+00 0.9000E+01
       25  1    1    2    0    0 -.29121588E+03 -.34222897E+03 -.38639092E+03 0.60568169E+03 0.12500000E+03 0.0000E+00 0.9000E+01
       -2  1    1    2    0  501 0.24229233E+03 0.13809775E+03 -.40302396E+02 0.28178173E+03 0.32000000E+00 0.0000E+00 0.9000E+01
       -3  1    1    2    0  502 0.68966930E+02 0.19765929E+03 -.12805674E+03 0.24540662E+03 0.50000000E+00 0.0000E+00 0.9000E+01
       21  1    1    2  502  503 -.20043373E+02 0.64719367E+01 -.62565438E+03 0.62600925E+03 0.75000000E+00 0.0000E+00 0.9000E+01
#aMCatNLO 2  0  0  2  5 0.21062354D+02 0.00000000D+00  -5  6  0 0.00000000D+00 0.00000000D+00 0.00000000D+00 0.00000000D+00 0.00000000D+00
  <mgrwgt>
 -.2709444995D-05    1    2    0
 0.493761904082728D+03 0.000000000000000D+00 0.000000000000000D+00 0.493761904082728D+03
 0.493761904082728D+03 0.000000000000000D+00 0.000000000000000D+00 -.493761904082728D+03
 0.481435691850225D+03 -.300936603695086D+03 -.339117835470814D+03 -.102915400253619D+03
 0.296516162906376D+03 0.236164588706649D+03 0.140013747896893D+03 0.112001215643425D+03
 0.209571953408855D+03 0.647720149884364D+02 0.199104087573920D+03 -.908581538980638D+01
 0.000000000000000D+00 -.000000000000000D+00 0.000000000000000D+00 -.000000000000000D+00
 0.494176976875259D+03 0.000000000000000D+00 0.000000000000000D+00 0.494176976875259D+03
 0.860167091149641D+03 0.000000000000000D+00 0.000000000000000D+00 -.860167091149641D+03
 0.477659670882955D+03 -.291204524301032D+03 -.342260290722223D+03 -.102915400253619D+03
 0.300459327381753D+03 0.242222185368603D+03 0.138057770590244D+03 0.112001215643425D+03
 0.209629398065284D+03 0.690257117459881D+02 0.197730583395375D+03 -.908581538980638D+01
 0.366595671694909D+03 -.200433728135600D+02 0.647193673660420D+01 -.365990114274382D+03
-.191934402661D-04 0.000000000000D+00 0.000000000000D+00 0.329046812453D-08 0.000000000000D+00  6 -1 -4 25 -2 -3 21 2 0.44460656D-01 0.22638811D+00 0.23801689D+06 0.23801689D+06 0.23801689D+06 0.10920676D+01  1  2 13  2  6  2       -4 -.270944499467D-05 0.100000000000D+01
  </mgrwgt>
  </event>
  <event>
  5     66 0.19531769E-05 0.49207737E+02 0.75467711E-02 0.93839257E-01
       -1 -1    0    0    0  501 0.00000000E+00 0.00000000E+00 0.10862395E+04 0.10862396E+04 0.32000000E+00 0.0000E+00 0.9000E+01
       -4 -1    0    0    0  502 0.00000000E+00 0.00000000E+00 -.13574201E+04 0.13574210E+04 0.15500000E+01 0.0000E+00 0.9000E+01
       25  1    1    2    0    0 0.49200074E+03 0.12545838E+03 -.45945364E+03 0.69607986E+03 0.12500000E+03 0.0000E+00 0.9000E+01
       -2  1    1    2    0  501 -.44452366E+03 -.11252078E+03 0.91273792E+03 0.10214464E+04 0.32000000E+00 0.0000E+00 0.9000E+01
       -3  1    1    2    0  502 -.47477075E+02 -.12937602E+02 -.72446488E+03 0.72613433E+03 0.50000000E+00 0.0000E+00 0.9000E+01
#aMCatNLO 1  0  0  2  1 0.33017379D+02 0.00000000D+00  -5  6  0 0.00000000D+00 0.00000000D+00 0.00000000D+00 0.00000000D+00 0.00000000D+00
  <mgrwgt>
 0.9267463981D-03    7    4    0
 0.121428356789139D+04 0.000000000000000D+00 0.000000000000000D+00 0.121428356789139D+04
 0.121428356789139D+04 0.000000000000000D+00 0.000000000000000D+00 -.121428356789139D+04
 0.649109922592092D+03 0.492001236780152D+03 0.125458497257638D+03 -.384595423893951D+03
 0.112971610899630D+04 -.444524678545596D+03 -.112521040825504D+03 0.103247048987427D+04
 0.649741104194381D+03 -.474765582345565D+02 -.129374564321340D+02 -.647875065980318D+03
 0.000000000000000D+00 0.000000000000000D+00 -.000000000000000D+00 -.000000000000000D+00
 0.121478512760793D+04 0.000000000000000D+00 0.000000000000000D+00 0.121478512760793D+04
 0.191438617770404D+04 0.000000000000000D+00 0.000000000000000D+00 -.191438617770404D+04
 0.645609690050357D+03 0.485739978236299D+03 0.131643098374924D+03 -.384595423893951D+03
 0.113304511947561D+04 -.455467382229179D+03 -.101712310128056D+03 0.103247048987427D+04
 0.650136758371423D+03 -.537627620531154D+02 -.672821544848120D+01 -.647875065980318D+03
 0.700379737414584D+03 0.234901660459958D+02 -.232025727983860D+02 -.699601050096116D+03
 0.121428356789139D+04 0.000000000000000D+00 0.000000000000000D+00 0.121428356789139D+04
 0.121428356789139D+04 0.000000000000000D+00 0.000000000000000D+00 -.121428356789139D+04
 0.649109922592092D+03 0.492001236780152D+03 0.125458497257638D+03 -.384595423893951D+03
 0.000000000000000D+00 0.000000000000000D+00 -.000000000000000D+00 -.000000000000000D+00
 0.112971610899630D+04 -.444524678545596D+03 -.112521040825504D+03 0.103247048987427D+04
 0.649741104194381D+03 -.474765582345565D+02 -.129374564321340D+02 -.647875065980318D+03
 0.121478512760793D+04 0.000000000000000D+00 0.000000000000000D+00 0.121478512760793D+04
 0.191438617770404D+04 0.000000000000000D+00 0.000000000000000D+00 -.191438617770404D+04
 0.645609690050357D+03 0.485739978236299D+03 0.131643098374924D+03 -.384595423893951D+03
 0.700379737414584D+03 0.234901660459958D+02 -.232025727983860D+02 -.699601050096116D+03
 0.113304511947561D+04 -.455467382229179D+03 -.101712310128056D+03 0.103247048987427D+04
 0.650136758371423D+03 -.537627620531154D+02 -.672821544848120D+01 -.647875065980318D+03
0.113467335401D-02 0.000000000000D+00 0.000000000000D+00 0.287132225193D-03 0.000000000000D+00  6 -1 -4 25 -2 -3 21 0 0.16711385D+00 0.20883394D+00 0.26556385D+06 0.26556385D+06 0.26556385D+06 0.10884914D+01  1  2  2  2  6  2       -4 0.988374130499D-05 0.100000000000D+01
0.419756306679D-03 0.000000000000D+00 -.435744444574D-05 0.287132225193D-03 0.000000000000D+00  6 -1 -4 25 -2 -3 21 2 0.16711385D+00 0.20883394D+00 0.26556385D+06 0.26556385D+06 0.26556385D+06 0.10884914D+01  1  2  3  2  6  2       -4 0.433209262916D-05 0.100000000000D+01
-.728023359154D-03 0.000000000000D+00 0.000000000000D+00 0.287132225193D-03 0.000000000000D+00  6 -1 -4 25 -2 -3 21 2 0.16711385D+00 0.20883394D+00 0.26556385D+06 0.26556385D+06 0.26556385D+06 0.10884914D+01  1  2 15  2  6  2       -4 -.751356103021D-05 0.100000000000D+01
-.880997549694D-01 0.000000000000D+00 0.000000000000D+00 0.287132225193D-03 0.000000000000D+00  6 -1 -4 25 -2 -3 21 2 0.16711385D+00 0.20883394D+00 0.26556385D+06 0.26556385D+06 0.26556385D+06 0.10884914D+01  1  2  4  2  6  2       -4 -.909233031311D-03 0.100000000000D+01
-.308957066425D+00 0.000000000000D+00 -.542050091833D-03 0.287132225193D-03 0.000000000000D+00  6 -1 -4 25 -2 -3 21 2 0.16711385D+00 0.32927388D+00 0.26556385D+06 0.26556385D+06 0.26556385D+06 0.10884914D+01  1  2  5  2  6  2       -4 -.358089955512D-03 0.100000000000D+01
0.279748879908D+00 0.000000000000D+00 0.490331953412D-03 0.287132225193D-03 0.000000000000D+00  6 -1 -4 25 -2 -3 21 2 0.16711385D+00 0.20883394D+00 0.26556385D+06 0.26556385D+06 0.26556385D+06 0.10884914D+01  1  2  6  2  6  2       -4 0.288714675964D-02 0.100000000000D+01
-.161779683000D-01 0.000000000000D+00 -.284218587563D-04 0.287132225193D-03 0.000000000000D+00  6 -1 21 25 4 -2 -3 2 0.16711385D+00 0.32927388D+00 0.26556385D+06 0.26556385D+06 0.26556385D+06 0.10884914D+01  3  4  5  6  4  2       -4 -.699779647630D-03 0.100000000000D+01
  </mgrwgt>
  </event>
  <event>
  5     66 -.19531769E-05 0.40379866E+02 0.75467711E-02 0.92898087E-01
       -1 -1    0    0    0  501 0.00000000E+00 0.00000000E+00 0.18337808E+04 0.18337809E+04 0.32000000E+00 0.0000E+00 0.9000E+01
       -4 -1    0    0    0  502 0.00000000E+00 0.00000000E+00 -.39842384E+03 0.39842686E+03 0.15500000E+01 0.0000E+00 0.9000E+01
       25  1    1    2    0    0 0.50937544E+03 -.10140336E+03 0.74924750E+02 0.53942998E+03 0.12500000E+03 0.0000E+00 0.9000E+01
       -2  1    1    2    0  501 0.36583159E+02 -.17115920E+02 0.10555564E+04 0.10563289E+04 0.32000000E+00 0.0000E+00 0.9000E+01
       -3  1    1    2    0  502 -.54595860E+03 0.11851928E+03 0.30487581E+03 0.63644884E+03 0.50000000E+00 0.0000E+00 0.9000E+01
#aMCatNLO 1  0  0  2  5 0.26173362D+02 0.00000000D+00  -5  6  0 0.00000000D+00 0.00000000D+00 0.00000000D+00 0.00000000D+00 0.00000000D+00
  <mgrwgt>
 -.2161511338D-03    9    4    0
 0.854766288228655D+03 0.000000000000000D+00 0.000000000000000D+00 0.854766288228655D+03
 0.854766288228655D+03 0.000000000000000D+00 0.000000000000000D+00 -.854766288228655D+03
 0.641501796360912D+03 0.509463021802110D+03 -.101422335579360D+03 -.355049988024457D+03
 0.492913469755473D+03 0.365747632238974D+02 -.171119922619937D+02 0.491256709961626D+03
 0.575117310340924D+03 -.546037785026007D+03 0.118534327841354D+03 -.136206721937169D+03
 0.000000000000000D+00 -.000000000000000D+00 0.000000000000000D+00 -.000000000000000D+00
 0.857121773734163D+03 0.000000000000000D+00 0.000000000000000D+00 0.857121773734163D+03
 0.930803308467884D+03 0.000000000000000D+00 0.000000000000000D+00 -.930803308467884D+03
 0.649511484063799D+03 0.519000765536733D+03 -.104009034736783D+03 -.355049988024457D+03
 0.493580258071458D+03 0.438627783934476D+02 -.190885501590075D+02 0.491256709961626D+03
 0.566641182872267D+03 -.537602705325267D+03 0.116246678459928D+03 -.136206721937169D+03
 0.781921571945234D+02 -.252608386049130D+02 0.685090643586230D+01 -.736815347337218D+02
 0.854766288228655D+03 0.000000000000000D+00 0.000000000000000D+00 0.854766288228655D+03
 0.854766288228655D+03 0.000000000000000D+00 0.000000000000000D+00 -.854766288228655D+03
 0.641501796360912D+03 0.509463021802110D+03 -.101422335579360D+03 -.355049988024457D+03
 0.000000000000000D+00 -.000000000000000D+00 0.000000000000000D+00 -.000000000000000D+00
 0.492913469755473D+03 0.365747632238974D+02 -.171119922619937D+02 0.491256709961626D+03
 0.575117310340924D+03 -.546037785026007D+03 0.118534327841354D+03 -.136206721937169D+03
 0.857121773734163D+03 0.000000000000000D+00 0.000000000000000D+00 0.857121773734163D+03
 0.930803308467884D+03 0.000000000000000D+00 0.000000000000000D+00 -.930803308467884D+03
 0.649511484063799D+03 0.519000765536733D+03 -.104009034736783D+03 -.355049988024457D+03
 0.781921571945234D+02 -.252608386049130D+02 0.685090643586230D+01 -.736815347337218D+02
 0.493580258071458D+03 0.438627783934476D+02 -.190885501590075D+02 0.491256709961626D+03
 0.566641182872267D+03 -.537602705325267D+03 0.116246678459928D+03 -.136206721937169D+03
0.242475238247D-03 0.000000000000D+00 0.000000000000D+00 0.551871258426D-05 0.000000000000D+00  6 -1 -4 25 -2 -3 21 0 0.28212036D+00 0.61296210D-01 0.32116231D+06 0.32116231D+06 0.32116231D+06 0.10823685D+01  1  2  2  2  6  2       -4 0.914672415632D-05 0.100000000000D+01
0.113301740026D-03 0.000000000000D+00 -.931168760066D-06 0.551871258426D-05 0.000000000000D+00  6 -1 -4 25 -2 -3 21 2 0.28212036D+00 0.61296210D-01 0.32116231D+06 0.32116231D+06 0.32116231D+06 0.10823685D+01  1  2  3  2  6  2       -4 0.500708564073D-05 0.100000000000D+01
-.161130812731D-03 0.000000000000D+00 0.000000000000D+00 0.551871258426D-05 0.000000000000D+00  6 -1 -4 25 -2 -3 21 2 0.28212036D+00 0.61296210D-01 0.32116231D+06 0.32116231D+06 0.32116231D+06 0.10823685D+01  1  2 15  2  6  2       -4 -.712077130074D-05 0.100000000000D+01
0.822133355411D-02 0.000000000000D+00 0.000000000000D+00 0.551871258426D-05 0.000000000000D+00  6 -1 -4 25 -2 -3 21 2 0.28212036D+00 0.67082325D-01 0.34100708D+06 0.34100708D+06 0.34100708D+06 0.10804591D+01  1  2 12  2  6  2       -4 0.290107810267D-03 0.100000000000D+01
-.131616753440D-01 0.000000000000D+00 0.000000000000D+00 0.551871258426D-05 0.000000000000D+00  6 -1 -4 25 -2 -3 21 2 0.28212036D+00 0.61296210D-01 0.32116231D+06 0.32116231D+06 0.32116231D+06 0.10823685D+01  1  2  4  2  6  2       -4 -.581647162767D-03 0.100000000000D+01
-.105790840827D-01 0.000000000000D+00 -.550091147854D-03 0.551871258426D-05 0.000000000000D+00  6 -1 -4 25 -2 -3 21 2 0.28212036D+00 0.66842551D-01 0.32116231D+06 0.32116231D+06 0.32116231D+06 0.10823685D+01  1  2  5  2  6  2       -4 -.379300957315D-03 0.100000000000D+01
0.105890398684D-01 0.000000000000D+00 0.548033818414D-03 0.551871258426D-05 0.000000000000D+00  6 -1 -4 25 -2 -3 21 2 0.28212036D+00 0.61296210D-01 0.32116231D+06 0.32116231D+06 0.32116231D+06 0.10823685D+01  1  2  6  2  6  2       -4 0.467956003693D-03 0.100000000000D+01
0.126367666567D-03 0.000000000000D+00 0.000000000000D+00 0.551871258426D-05 0.000000000000D+00  6 -1 21 25 4 -2 -3 2 0.28212036D+00 0.67082325D-01 0.34100708D+06 0.34100708D+06 0.34100708D+06 0.10804591D+01  3  4 12  6  4  2       -4 0.923800560785D-04 0.100000000000D+01
-.151348179760D-03 0.000000000000D+00 -.788286420266D-05 0.551871258426D-05 0.000000000000D+00  6 -1 21 25 4 -2 -3 2 0.28212036D+00 0.66842551D-01 0.32116231D+06 0.32116231D+06 0.32116231D+06 0.10823685D+01  3  4  5  6  4  2       -4 -.112679922261D-03 0.100000000000D+01
  </mgrwgt>
  </event>
</LesHouchesEvents>
