<event>
 5    0  0.1911311E+001  0.2952791E+03  0.7546771E-02  0.1087625E+00
         21   -1    0    0  504  501  0.00000000000E+00  0.00000000000E+00  0.17884483572E+04  0.17884483572E+04  0.00000000000E+00 0. -1.
         21   -1    0    0  503  502 -0.00000000000E+00 -0.00000000000E+00 -0.24943967542E+03  0.24943967542E+03  0.00000000000E+00 0. -1.
         25    1    1    2    0    0 -0.18457696978E+03 -0.17864056784E+03  0.97521149619E+03  0.10161907166E+04  0.12500000000E+03 0.  0.
         21    1    1    2  503  501 -0.98812414437E+02  0.83911996266E+02 -0.17902406066E+03  0.22103106265E+03  0.00000000000E+00 0. -1.
         21    1    1    2  504  502  0.28338938422E+03  0.94728571575E+02  0.74282124629E+03  0.80066625338E+03  0.00000000000E+00 0. -1.
<mgrwt>
<rscale>  4 0.29527912E+03</rscale>
<asrwt>0</asrwt>
<pdfrwt beam="1">  1       21 0.27514589E+00 0.29527912E+03</pdfrwt>
<pdfrwt beam="2">  1       21 0.38375336E-01 0.29527912E+03</pdfrwt>
<totfact> 0.27594282E+02</totfact>
</mgrwt>
</event>
<event>
 5    0  0.1911311E+001  0.3546783E+03  0.7546771E-02  0.1060711E+00
         21   -1    0    0  504  501  0.00000000000E+00  0.00000000000E+00  0.27861435114E+03  0.27861435114E+03  0.00000000000E+00 0.  1.
         21   -1    0    0  503  502 -0.00000000000E+00 -0.00000000000E+00 -0.50602805264E+03  0.50602805264E+03  0.00000000000E+00 0.  1.
         25    1    1    2    0    0  0.33160607358E+03 -0.14460687286E+02 -0.26350108115E+03  0.44184784630E+03  0.12500000000E+03 0.  0.
         21    1    1    2  503  501 -0.26730898214E+03 -0.33967078010E+01  0.85092631159E+00  0.26733191660E+03  0.00000000000E+00 0.  1.
         21    1    1    2  504  502 -0.64297091435E+02  0.17857395087E+02  0.35236453338E+02  0.75462640890E+02  0.00000000000E+00 0. -1.
<mgrwt>
<rscale>  4 0.35467830E+03</rscale>
<asrwt>0</asrwt>
<pdfrwt beam="1">  1       21 0.42863747E-01 0.35467830E+03</pdfrwt>
<pdfrwt beam="2">  1       21 0.77850469E-01 0.35467830E+03</pdfrwt>
<totfact> 0.70084623E+03</totfact>
</mgrwt>
</event>
<event>
 5    0  0.1911311E+001  0.2426965E+03  0.7546771E-02  0.1118009E+00
         21   -1    0    0  503  501  0.00000000000E+00  0.00000000000E+00  0.86617772974E+03  0.86617772974E+03  0.00000000000E+00 0. -1.
         21   -1    0    0  504  502 -0.00000000000E+00 -0.00000000000E+00 -0.72353848114E+02  0.72353848114E+02  0.00000000000E+00 0. -1.
         25    1    1    2    0    0  0.11710532477E+03 -0.18743177841E+03  0.36498833615E+03  0.44461872900E+03  0.12500000000E+03 0.  0.
         21    1    1    2  503  502  0.17172660236E+01  0.25493326365E+02  0.66785804876E+01  0.26409508308E+02  0.00000000000E+00 0. -1.
         21    1    1    2  504  501 -0.11882259080E+03  0.16193845205E+03  0.42215696499E+03  0.46750334055E+03  0.00000000000E+00 0. -1.
<mgrwt>
<rscale>  4 0.24269651E+03</rscale>
<asrwt>0</asrwt>
<pdfrwt beam="1">  1       21 0.13325810E+00 0.24269651E+03</pdfrwt>
<pdfrwt beam="2">  1       21 0.11131362E-01 0.24269651E+03</pdfrwt>
<totfact> 0.26475027E+04</totfact>
</mgrwt>
</event>
