<event>
 5    0  0.1467858E+000  0.2665569E+03  0.7546771E-02  0.1103267E+00
         21   -1    0    0  504  501  0.00000000000E+00  0.00000000000E+00  0.28683533547E+03  0.28683533547E+03  0.00000000000E+00 0. -1.
         21   -1    0    0  501  502 -0.00000000000E+00 -0.00000000000E+00 -0.24847994504E+03  0.24847994504E+03  0.00000000000E+00 0. -1.
         25    1    1    2    0    0 -0.38579591717E+02  0.23224807824E+03 -0.44903589415E+02  0.27031257293E+03  0.12500000000E+03 0.  0.
         21    1    1    2  503  502  0.49152478618E+02 -0.18682700734E+03  0.97293278208E+02  0.21630136109E+03  0.00000000000E+00 0. -1.
         21    1    1    2  504  503 -0.10572886901E+02 -0.45421070893E+02 -0.14034298360E+02  0.48701346480E+02  0.00000000000E+00 0. -1.
<mgrwt>
<rscale>  4 0.26655685E+03</rscale>
<asrwt>0</asrwt>
<pdfrwt beam="1">  1       21 0.44128513E-01 0.26655685E+03</pdfrwt>
<pdfrwt beam="2">  1       21 0.38227684E-01 0.26655685E+03</pdfrwt>
<totfact> 0.31420434E+04</totfact>
</mgrwt>
</event>
<event>
 5    0  0.1467858E+000  0.2032625E+03  0.7546771E-02  0.1147015E+00
         21   -1    0    0  504  501  0.00000000000E+00  0.00000000000E+00  0.30314537459E+03  0.30314537459E+03  0.00000000000E+00 0. -1.
         21   -1    0    0  501  502 -0.00000000000E+00 -0.00000000000E+00 -0.20128838227E+03  0.20128838227E+03  0.00000000000E+00 0. -1.
         25    1    1    2    0    0  0.16879085761E+03  0.11512376093E+03  0.49394239254E+02  0.24455801932E+03  0.12500000000E+03 0.  0.
         21    1    1    2  503  502 -0.14455452626E+03 -0.16416762831E+02  0.61263083972E+02  0.15785653810E+03  0.00000000000E+00 0. -1.
         21    1    1    2  504  503 -0.24236331356E+02 -0.98706998098E+02 -0.88003309025E+01  0.10201919944E+03  0.00000000000E+00 0. -1.
<mgrwt>
<rscale>  4 0.20326252E+03</rscale>
<asrwt>0</asrwt>
<pdfrwt beam="1">  1       21 0.46637750E-01 0.20326252E+03</pdfrwt>
<pdfrwt beam="2">  1       21 0.30967444E-01 0.20326252E+03</pdfrwt>
<totfact> 0.43858800E+04</totfact>
</mgrwt>
</event>
<event>
 5    0  0.1467858E+000  0.2510181E+03  0.7546771E-02  0.1112663E+00
         21   -1    0    0  504  501  0.00000000000E+00  0.00000000000E+00  0.36979774100E+02  0.36979774100E+02  0.00000000000E+00 0. -1.
         21   -1    0    0  501  502 -0.00000000000E+00 -0.00000000000E+00 -0.21584671566E+04  0.21584671566E+04  0.00000000000E+00 0. -1.
         25    1    1    2    0    0  0.75426385475E+02 -0.23119980294E+03 -0.93691100728E+03  0.97599678486E+03  0.12500000000E+03 0.  0.
         21    1    1    2  503  502  0.46336608114E+01  0.20253680849E+03 -0.76707927589E+03  0.79338089535E+03  0.00000000000E+00 0. -1.
         21    1    1    2  504  503 -0.80060046287E+02  0.28662994451E+02 -0.41749709938E+03  0.42606925054E+03  0.00000000000E+00 0. -1.
<mgrwt>
<rscale>  4 0.25101807E+03</rscale>
<asrwt>0</asrwt>
<pdfrwt beam="1">  1       21 0.56891958E-02 0.25101807E+03</pdfrwt>
<pdfrwt beam="2">  1       21 0.33207188E+00 0.25101807E+03</pdfrwt>
<totfact> 0.45127870E+03</totfact>
</mgrwt>
</event>
<event>
 5    0  0.1467858E+000  0.1914393E+03  0.7546771E-02  0.1157170E+00
         21   -1    0    0  504  501  0.00000000000E+00  0.00000000000E+00  0.38092580884E+04  0.38092580884E+04  0.00000000000E+00 0. -1.
         21   -1    0    0  501  502 -0.00000000000E+00 -0.00000000000E+00 -0.16510104687E+02  0.16510104687E+02  0.00000000000E+00 0. -1.
         25    1    1    2    0    0 -0.16903886076E+03 -0.10965646238E+03  0.24631882015E+04  0.24745746689E+04  0.12500000000E+03 0.  0.
         21    1    1    2  503  502  0.38558946499E+02  0.76544800062E+02  0.80832445029E+03  0.81285565491E+03  0.00000000000E+00 0. -1.
         21    1    1    2  504  503  0.13047991426E+03  0.33111662315E+02  0.52123533191E+03  0.53833786922E+03  0.00000000000E+00 0. -1.
<mgrwt>
<rscale>  4 0.19143930E+03</rscale>
<asrwt>0</asrwt>
<pdfrwt beam="1">  1       21 0.58603901E+00 0.19143930E+03</pdfrwt>
<pdfrwt beam="2">  1       21 0.25400191E-02 0.19143930E+03</pdfrwt>
<totfact> 0.36516881E+02</totfact>
</mgrwt>
</event>
<event>
 5    0  0.1467858E+000  0.3084496E+03  0.7546771E-02  0.1081091E+00
         21   -1    0    0  504  501  0.00000000000E+00  0.00000000000E+00  0.51168955062E+03  0.51168955062E+03  0.00000000000E+00 0. -1.
         21   -1    0    0  501  502 -0.00000000000E+00 -0.00000000000E+00 -0.55419341493E+03  0.55419341493E+03  0.00000000000E+00 0. -1.
         25    1    1    2    0    0 -0.15872119177E+02  0.32601862458E+03 -0.39249009208E+03  0.52556021550E+03  0.12500000000E+03 0.  0.
         21    1    1    2  503  502  0.12532603909E+01 -0.20087583662E+03  0.38792992624E+02  0.20459122336E+03  0.00000000000E+00 0. -1.
         21    1    1    2  504  503  0.14618858786E+02 -0.12514278796E+03  0.31119323515E+03  0.33573152669E+03  0.00000000000E+00 0. -1.
<mgrwt>
<rscale>  4 0.30844957E+03</rscale>
<asrwt>0</asrwt>
<pdfrwt beam="1">  1       21 0.78721470E-01 0.30844957E+03</pdfrwt>
<pdfrwt beam="2">  1       21 0.85260525E-01 0.30844957E+03</pdfrwt>
<totfact> 0.15569057E+03</totfact>
</mgrwt>
</event>
<event>
 5    0  0.1467858E+000  0.3417774E+03  0.7546771E-02  0.1066041E+00
         21   -1    0    0  504  501  0.00000000000E+00  0.00000000000E+00  0.43183626558E+03  0.43183626558E+03  0.00000000000E+00 0. -1.
         21   -1    0    0  501  502 -0.00000000000E+00 -0.00000000000E+00 -0.26394550688E+03  0.26394550688E+03  0.00000000000E+00 0. -1.
         25    1    1    2    0    0 -0.25366405279E+02 -0.31708573604E+03  0.10206975202E+03  0.35669321944E+03  0.12500000000E+03 0.  0.
         21    1    1    2  503  502 -0.37045881865E+01  0.28749698630E+03  0.40158770343E+02  0.29031184602E+03  0.00000000000E+00 0. -1.
         21    1    1    2  504  503  0.29070993465E+02  0.29588749743E+02  0.25662236331E+02  0.48776707002E+02  0.00000000000E+00 0. -1.
<mgrwt>
<rscale>  4 0.34177744E+03</rscale>
<asrwt>0</asrwt>
<pdfrwt beam="1">  1       21 0.66436348E-01 0.34177744E+03</pdfrwt>
<pdfrwt beam="2">  1       21 0.40607001E-01 0.34177744E+03</pdfrwt>
<totfact> 0.11249660E+04</totfact>
</mgrwt>
</event>
<event>
 5    0  0.1467858E+000  0.4266349E+03  0.7546771E-02  0.1034928E+00
         21   -1    0    0  504  501  0.00000000000E+00  0.00000000000E+00  0.66979298694E+03  0.66979298694E+03  0.00000000000E+00 0.  1.
         21   -1    0    0  501  502 -0.00000000000E+00 -0.00000000000E+00 -0.18495827178E+04  0.18495827178E+04  0.00000000000E+00 0.  1.
         25    1    1    2    0    0 -0.45310542600E+02 -0.40411952896E+03 -0.17380345247E+04  0.17893447538E+04  0.12500000000E+03 0.  0.
         21    1    1    2  503  502 -0.87497346791E+01 -0.28778446067E+02  0.64462075037E+02  0.71134491866E+02  0.00000000000E+00 0. -1.
         21    1    1    2  504  503  0.54060277279E+02  0.43289797503E+03  0.49378271880E+03  0.65889645905E+03  0.00000000000E+00 0.  1.
<mgrwt>
<rscale>  4 0.42663490E+03</rscale>
<asrwt>0</asrwt>
<pdfrwt beam="1">  1       21 0.10304508E+00 0.42663490E+03</pdfrwt>
<pdfrwt beam="2">  1       21 0.28455119E+00 0.42663490E+03</pdfrwt>
<totfact> 0.24526298E+01</totfact>
</mgrwt>
</event>
<event>
 5    0  0.1467858E+000  0.2382063E+03  0.7546771E-02  0.1120994E+00
         21   -1    0    0  504  501  0.00000000000E+00  0.00000000000E+00  0.46992763836E+03  0.46992763836E+03  0.00000000000E+00 0.  1.
         21   -1    0    0  501  502 -0.00000000000E+00 -0.00000000000E+00 -0.82656236100E+03  0.82656236100E+03  0.00000000000E+00 0.  1.
         25    1    1    2    0    0  0.19158827911E+03 -0.66416645638E+02 -0.78394621243E+03  0.81933747839E+03  0.12500000000E+03 0.  0.
         21    1    1    2  503  502 -0.10333381825E+03  0.53105523554E+02  0.29965248910E+03  0.32138713236E+03  0.00000000000E+00 0.  1.
         21    1    1    2  504  503 -0.88254460858E+02  0.13311122084E+02  0.12765900069E+03  0.15576538861E+03  0.00000000000E+00 0.  1.
<mgrwt>
<rscale>  4 0.23820630E+03</rscale>
<asrwt>0</asrwt>
<pdfrwt beam="1">  1       21 0.72296561E-01 0.23820630E+03</pdfrwt>
<pdfrwt beam="2">  1       21 0.12716344E+00 0.23820630E+03</pdfrwt>
<totfact> 0.75415094E+02</totfact>
</mgrwt>
</event>
<event>
 5    0  0.1467858E+000  0.2441589E+03  0.7546771E-02  0.1117053E+00
         21   -1    0    0  504  501  0.00000000000E+00  0.00000000000E+00  0.28992954123E+03  0.28992954123E+03  0.00000000000E+00 0.  1.
         21   -1    0    0  501  502 -0.00000000000E+00 -0.00000000000E+00 -0.43138392844E+03  0.43138392844E+03  0.00000000000E+00 0. -1.
         25    1    1    2    0    0 -0.16197914950E+03  0.13323411212E+03 -0.34205767907E+03  0.42025828881E+03  0.12500000000E+03 0.  0.
         21    1    1    2  503  502  0.31855989024E+02 -0.24641408755E+02  0.90205478413E+02  0.98787809966E+02  0.00000000000E+00 0.  1.
         21    1    1    2  504  503  0.13012316047E+03 -0.10859270336E+03  0.11039781344E+03  0.20226737089E+03  0.00000000000E+00 0.  1.
<mgrwt>
<rscale>  4 0.24415891E+03</rscale>
<asrwt>0</asrwt>
<pdfrwt beam="1">  1       21 0.44604545E-01 0.24415891E+03</pdfrwt>
<pdfrwt beam="2">  1       21 0.66366758E-01 0.24415891E+03</pdfrwt>
<totfact> 0.97266625E+03</totfact>
</mgrwt>
</event>
<event>
 5    0  0.1467858E+000  0.3109036E+03  0.7546771E-02  0.1079914E+00
         21   -1    0    0  504  501  0.00000000000E+00  0.00000000000E+00  0.45177294177E+03  0.45177294177E+03  0.00000000000E+00 0.  1.
         21   -1    0    0  501  502 -0.00000000000E+00 -0.00000000000E+00 -0.20804277577E+03  0.20804277577E+03  0.00000000000E+00 0.  1.
         25    1    1    2    0    0 -0.25191339777E+03  0.13257344702E+03  0.90124441727E+02  0.32370278625E+03  0.12500000000E+03 0.  0.
         21    1    1    2  503  502  0.65762937719E+02 -0.11426587931E+02  0.12154116000E+01  0.66759329794E+02  0.00000000000E+00 0.  1.
         21    1    1    2  504  503  0.18615046005E+03 -0.12114685908E+03  0.15239031267E+03  0.26935360150E+03  0.00000000000E+00 0.  1.
<mgrwt>
<rscale>  4 0.31090365E+03</rscale>
<asrwt>0</asrwt>
<pdfrwt beam="1">  1       21 0.69503529E-01 0.31090365E+03</pdfrwt>
<pdfrwt beam="2">  1       21 0.32006581E-01 0.31090365E+03</pdfrwt>
<totfact> 0.16649457E+04</totfact>
</mgrwt>
</event>
<event>
 5    0  0.1467858E+000  0.8236916E+03  0.7546771E-02  0.9526344E-01
         21   -1    0    0  504  501  0.00000000000E+00  0.00000000000E+00  0.39979457722E+03  0.39979457722E+03  0.00000000000E+00 0.  1.
         21   -1    0    0  501  502 -0.00000000000E+00 -0.00000000000E+00 -0.20629684631E+04  0.20629684631E+04  0.00000000000E+00 0.  1.
         25    1    1    2    0    0 -0.77668906944E+03  0.28230125025E+03 -0.38503169857E+03  0.92022514385E+03  0.12500000000E+03 0.  0.
         21    1    1    2  503  502  0.45347741042E+02  0.21324960382E+02 -0.19169061583E+03  0.19813243993E+03  0.00000000000E+00 0. -1.
         21    1    1    2  504  503  0.73134132840E+03 -0.30362621064E+03 -0.10864515715E+04  0.13444054565E+04  0.00000000000E+00 0.  1.
<mgrwt>
<rscale>  4 0.82369165E+03</rscale>
<asrwt>0</asrwt>
<pdfrwt beam="1">  1       21 0.61506858E-01 0.82369165E+03</pdfrwt>
<pdfrwt beam="2">  1       21 0.31737977E+00 0.82369165E+03</pdfrwt>
<totfact> 0.42071443E+01</totfact>
</mgrwt>
</event>
<event>
 5    0  0.1467858E+000  0.2632204E+03  0.7546771E-02  0.1105224E+00
         21   -1    0    0  504  501  0.00000000000E+00  0.00000000000E+00  0.15533935728E+03  0.15533935728E+03  0.00000000000E+00 0. -1.
         21   -1    0    0  501  502 -0.00000000000E+00 -0.00000000000E+00 -0.51737540157E+03  0.51737540157E+03  0.00000000000E+00 0. -1.
         25    1    1    2    0    0 -0.15549188967E+03  0.17170392875E+03 -0.34012920557E+02  0.26540882741E+03  0.12500000000E+03 0.  0.
         21    1    1    2  503  502  0.55766094657E+02 -0.21963496872E+02 -0.10341428169E+03  0.11952726118E+03  0.00000000000E+00 0.  1.
         21    1    1    2  504  503  0.99725795013E+02 -0.14974043188E+03 -0.22460884205E+03  0.28777867026E+03  0.00000000000E+00 0. -1.
<mgrwt>
<rscale>  4 0.26322038E+03</rscale>
<asrwt>0</asrwt>
<pdfrwt beam="1">  1       21 0.23898362E-01 0.26322038E+03</pdfrwt>
<pdfrwt beam="2">  1       21 0.79596219E-01 0.26322038E+03</pdfrwt>
<totfact> 0.22122536E+04</totfact>
</mgrwt>
</event>
<event>
 5    0  0.1467858E+000  0.2335601E+03  0.7546771E-02  0.1124159E+00
         21   -1    0    0  504  501  0.00000000000E+00  0.00000000000E+00  0.22678043161E+04  0.22678043161E+04  0.00000000000E+00 0.  1.
         21   -1    0    0  501  502 -0.00000000000E+00 -0.00000000000E+00 -0.35048906449E+02  0.35048906449E+02  0.00000000000E+00 0.  1.
         25    1    1    2    0    0 -0.11787464424E+03 -0.17187903652E+03  0.50577370302E+03  0.56113177919E+03  0.12500000000E+03 0.  0.
         21    1    1    2  503  502  0.96366395004E+02  0.16966519160E+03  0.16577016103E+04  0.16691457061E+04  0.00000000000E+00 0.  1.
         21    1    1    2  504  503  0.21508249235E+02  0.22138449245E+01  0.69280096361E+02  0.72575737311E+02  0.00000000000E+00 0.  1.
<mgrwt>
<rscale>  4 0.23356011E+03</rscale>
<asrwt>0</asrwt>
<pdfrwt beam="1">  1       21 0.34889286E+00 0.23356011E+03</pdfrwt>
<pdfrwt beam="2">  1       21 0.53921412E-02 0.23356011E+03</pdfrwt>
<totfact> 0.40005260E+03</totfact>
</mgrwt>
</event>
<event>
 5    0  0.1467858E+000  0.4511080E+03  0.7546771E-02  0.1027392E+00
         21   -1    0    0  504  501  0.00000000000E+00  0.00000000000E+00  0.24107960019E+04  0.24107960019E+04  0.00000000000E+00 0. -1.
         21   -1    0    0  501  502 -0.00000000000E+00 -0.00000000000E+00 -0.23829727204E+03  0.23829727204E+03  0.00000000000E+00 0. -1.
         25    1    1    2    0    0  0.32248286303E+03 -0.30450581849E+03  0.56979991732E+02  0.46431746672E+03  0.12500000000E+03 0.  0.
         21    1    1    2  503  502 -0.17749600705E+03  0.34340167856E+03  0.16870888488E+04  0.17308085767E+04  0.00000000000E+00 0. -1.
         21    1    1    2  504  503 -0.14498685599E+03 -0.38895860074E+02  0.42842988931E+03  0.45396723052E+03  0.00000000000E+00 0. -1.
<mgrwt>
<rscale>  4 0.45110803E+03</rscale>
<asrwt>0</asrwt>
<pdfrwt beam="1">  1       21 0.37089168E+00 0.45110803E+03</pdfrwt>
<pdfrwt beam="2">  1       21 0.36661120E-01 0.45110803E+03</pdfrwt>
<totfact> 0.70838141E+01</totfact>
</mgrwt>
</event>
<event>
 5    0  0.1467858E+000  0.2419188E+03  0.7546771E-02  0.1118521E+00
         21   -1    0    0  504  501  0.00000000000E+00  0.00000000000E+00  0.11318002714E+03  0.11318002714E+03  0.00000000000E+00 0.  1.
         21   -1    0    0  501  502 -0.00000000000E+00 -0.00000000000E+00 -0.63656327259E+03  0.63656327259E+03  0.00000000000E+00 0.  1.
         25    1    1    2    0    0  0.12804262185E+03 -0.15647285571E+03 -0.38286751859E+03  0.45065641499E+03  0.12500000000E+03 0.  0.
         21    1    1    2  503  502 -0.10367605155E+03  0.19351293964E+03 -0.11306615946E+03  0.24694116280E+03  0.00000000000E+00 0.  1.
         21    1    1    2  504  503 -0.24366570300E+02 -0.37040083925E+02 -0.27449567406E+02  0.52145721935E+02  0.00000000000E+00 0.  1.
<mgrwt>
<rscale>  4 0.24191882E+03</rscale>
<asrwt>0</asrwt>
<pdfrwt beam="1">  1       21 0.17412312E-01 0.24191882E+03</pdfrwt>
<pdfrwt beam="2">  1       21 0.97932811E-01 0.24191882E+03</pdfrwt>
<totfact> 0.25059478E+04</totfact>
</mgrwt>
</event>
<event>
 5    0  0.1467858E+000  0.3926695E+03  0.7546771E-02  0.1047624E+00
         21   -1    0    0  504  501  0.00000000000E+00  0.00000000000E+00  0.31970966291E+03  0.31970966291E+03  0.00000000000E+00 0. -1.
         21   -1    0    0  501  502 -0.00000000000E+00 -0.00000000000E+00 -0.51648670425E+03  0.51648670425E+03  0.00000000000E+00 0. -1.
         25    1    1    2    0    0  0.20644521436E+03  0.29164610513E+03  0.35096164906E+02  0.38017603549E+03  0.12500000000E+03 0.  0.
         21    1    1    2  503  502 -0.35638706765E+02 -0.14713097497E+03 -0.16176731848E+03  0.22155429705E+03  0.00000000000E+00 0. -1.
         21    1    1    2  504  503 -0.17080650760E+03 -0.14451513017E+03 -0.70105887769E+02  0.23446603461E+03  0.00000000000E+00 0. -1.
<mgrwt>
<rscale>  4 0.38909170E+03</rscale>
<asrwt>0</asrwt>
<pdfrwt beam="1">  1       21 0.49186102E-01 0.39266953E+03</pdfrwt>
<pdfrwt beam="2">  1       21 0.79459493E-01 0.39266953E+03</pdfrwt>
<totfact> 0.49404643E+03</totfact>
</mgrwt>
</event>
<event>
 5    0  0.1467858E+000  0.3042669E+03  0.7546771E-02  0.1083127E+00
         21   -1    0    0  504  501  0.00000000000E+00  0.00000000000E+00  0.18904546968E+03  0.18904546968E+03  0.00000000000E+00 0.  1.
         21   -1    0    0  501  502 -0.00000000000E+00 -0.00000000000E+00 -0.49872294960E+03  0.49872294960E+03  0.00000000000E+00 0.  1.
         25    1    1    2    0    0 -0.42805955272E+02 -0.27408206285E+03 -0.22832659704E+03  0.38040946610E+03  0.12500000000E+03 0.  0.
         21    1    1    2  503  502  0.75316878745E+02  0.22657586696E+03 -0.62971670403E+02  0.24693053069E+03  0.00000000000E+00 0.  1.
         21    1    1    2  504  503 -0.32510923473E+02  0.47506195885E+02 -0.18379212477E+02  0.60428422484E+02  0.00000000000E+00 0.  1.
<mgrwt>
<rscale>  4 0.30426687E+03</rscale>
<asrwt>0</asrwt>
<pdfrwt beam="1">  1       21 0.29083919E-01 0.30426687E+03</pdfrwt>
<pdfrwt beam="2">  1       21 0.76726605E-01 0.30426687E+03</pdfrwt>
<totfact> 0.16147557E+04</totfact>
</mgrwt>
</event>
<event>
 5    0  0.1467858E+000  0.3129124E+03  0.7546771E-02  0.1079845E+00
         21   -1    0    0  504  501  0.00000000000E+00  0.00000000000E+00  0.81154155501E+03  0.81154155501E+03  0.00000000000E+00 0. -1.
         21   -1    0    0  501  502 -0.00000000000E+00 -0.00000000000E+00 -0.12040469474E+03  0.12040469474E+03  0.00000000000E+00 0. -1.
         25    1    1    2    0    0 -0.86520678531E+02 -0.26501214376E+03  0.40981437302E+03  0.51116541793E+03  0.12500000000E+03 0.  0.
         21    1    1    2  503  502  0.11270527482E+02  0.13646457848E+03  0.50247082602E+02  0.14585737993E+03  0.00000000000E+00 0. -1.
         21    1    1    2  504  503  0.75250151049E+02  0.12854756527E+03  0.23107540465E+03  0.27492345190E+03  0.00000000000E+00 0. -1.
<mgrwt>
<rscale>  4 0.31104761E+03</rscale>
<asrwt>0</asrwt>
<pdfrwt beam="1">  1       21 0.12485254E+00 0.31291239E+03</pdfrwt>
<pdfrwt beam="2">  1       21 0.18523800E-01 0.31291239E+03</pdfrwt>
<totfact> 0.11904161E+04</totfact>
</mgrwt>
</event>
<event>
 5    0  0.1467858E+000  0.2678744E+03  0.7546771E-02  0.1102502E+00
         21   -1    0    0  504  501  0.00000000000E+00  0.00000000000E+00  0.54324616769E+03  0.54324616769E+03  0.00000000000E+00 0. -1.
         21   -1    0    0  501  502 -0.00000000000E+00 -0.00000000000E+00 -0.13347765994E+03  0.13347765994E+03  0.00000000000E+00 0. -1.
         25    1    1    2    0    0  0.14716576486E+02 -0.24892554503E+03  0.20872139897E+03  0.34838215651E+03  0.12500000000E+03 0.  0.
         21    1    1    2  503  502 -0.90927992869E+01  0.22769910374E+03  0.20441129021E+03  0.30612666726E+03  0.00000000000E+00 0. -1.
         21    1    1    2  504  503 -0.56237771987E+01  0.21226441286E+02 -0.33641814243E+01  0.22215003855E+02  0.00000000000E+00 0. -1.
<mgrwt>
<rscale>  4 0.26787444E+03</rscale>
<asrwt>0</asrwt>
<pdfrwt beam="1">  1       21 0.83576332E-01 0.26787444E+03</pdfrwt>
<pdfrwt beam="2">  1       21 0.20535025E-01 0.26787444E+03</pdfrwt>
<totfact> 0.26341049E+04</totfact>
</mgrwt>
</event>
<event>
 5    0  0.1467858E+000  0.3487603E+03  0.7546771E-02  0.1063125E+00
         21   -1    0    0  504  501  0.00000000000E+00  0.00000000000E+00  0.47901785982E+03  0.47901785982E+03  0.00000000000E+00 0.  1.
         21   -1    0    0  501  502 -0.00000000000E+00 -0.00000000000E+00 -0.29431456038E+03  0.29431456038E+03  0.00000000000E+00 0.  1.
         25    1    1    2    0    0  0.18010480117E+03  0.27123981498E+03  0.25880276245E+03  0.43429557502E+03  0.12500000000E+03 0.  0.
         21    1    1    2  503  502 -0.22625066793E+02 -0.78785230282E+01 -0.42039088619E+01  0.24323602164E+02  0.00000000000E+00 0. -1.
         21    1    1    2  504  503 -0.15747973437E+03 -0.26336129195E+03 -0.69895554148E+02  0.31471324301E+03  0.00000000000E+00 0.  1.
<mgrwt>
<rscale>  4 0.34876034E+03</rscale>
<asrwt>0</asrwt>
<pdfrwt beam="1">  1       21 0.73695055E-01 0.34876034E+03</pdfrwt>
<pdfrwt beam="2">  1       21 0.45279163E-01 0.34876034E+03</pdfrwt>
<totfact> 0.71011800E+03</totfact>
</mgrwt>
</event>
<event>
 5    0  0.1467858E+000  0.1775105E+03  0.7546771E-02  0.1170234E+00
         21   -1    0    0  504  501  0.00000000000E+00  0.00000000000E+00  0.40633797404E+03  0.40633797404E+03  0.00000000000E+00 0. -1.
         21   -1    0    0  501  502 -0.00000000000E+00 -0.00000000000E+00 -0.30170408509E+03  0.30170408509E+03  0.00000000000E+00 0. -1.
         25    1    1    2    0    0  0.19002562714E+03  0.11725343345E+03 -0.93897436476E+02  0.27257996112E+03  0.12500000000E+03 0.  0.
         21    1    1    2  503  502 -0.93279085013E+02 -0.47002417990E+02 -0.80513797829E+02  0.13188133544E+03  0.00000000000E+00 0. -1.
         21    1    1    2  504  503 -0.96746542131E+02 -0.70251015462E+02  0.27904512325E+03  0.30358076256E+03  0.00000000000E+00 0. -1.
<mgrwt>
<rscale>  4 0.17751054E+03</rscale>
<asrwt>0</asrwt>
<pdfrwt beam="1">  1       21 0.62513535E-01 0.17751054E+03</pdfrwt>
<pdfrwt beam="2">  1       21 0.46416013E-01 0.17751054E+03</pdfrwt>
<totfact> 0.10655960E+04</totfact>
</mgrwt>
</event>
<event>
 5    0  0.1467858E+000  0.2539225E+03  0.7546771E-02  0.1110851E+00
         21   -1    0    0  504  501  0.00000000000E+00  0.00000000000E+00  0.51761926659E+03  0.51761926659E+03  0.00000000000E+00 0. -1.
         21   -1    0    0  501  502 -0.00000000000E+00 -0.00000000000E+00 -0.58853047825E+03  0.58853047825E+03  0.00000000000E+00 0.  1.
         25    1    1    2    0    0 -0.21040395424E+03  0.67688970227E+02 -0.53414342947E+03  0.59142693877E+03  0.12500000000E+03 0.  0.
         21    1    1    2  503  502  0.16791210962E+03 -0.37520994739E+02  0.36523737438E+03  0.40373337891E+03  0.00000000000E+00 0. -1.
         21    1    1    2  504  503  0.42491844620E+02 -0.30167975487E+02  0.97994843427E+02  0.11098942717E+03  0.00000000000E+00 0. -1.
<mgrwt>
<rscale>  4 0.25392247E+03</rscale>
<asrwt>0</asrwt>
<pdfrwt beam="1">  1       21 0.79633733E-01 0.25392247E+03</pdfrwt>
<pdfrwt beam="2">  1       21 0.90543151E-01 0.25392247E+03</pdfrwt>
<totfact> 0.13666898E+03</totfact>
</mgrwt>
</event>
<event>
 5    0  0.1467858E+000  0.2369702E+03  0.7546771E-02  0.1121828E+00
         21   -1    0    0  504  501  0.00000000000E+00  0.00000000000E+00  0.22258405246E+03  0.22258405246E+03  0.00000000000E+00 0. -1.
         21   -1    0    0  501  502 -0.00000000000E+00 -0.00000000000E+00 -0.28208756104E+03  0.28208756104E+03  0.00000000000E+00 0. -1.
         25    1    1    2    0    0  0.21313202083E+03  0.11251623032E+02 -0.10232913261E+03  0.26767164345E+03  0.12500000000E+03 0.  0.
         21    1    1    2  503  502 -0.25834477411E+02 -0.23621224482E+02  0.34440315973E+02  0.49107207551E+02  0.00000000000E+00 0. -1.
         21    1    1    2  504  503 -0.18729754342E+03  0.12369601449E+02  0.83853080543E+01  0.18789276251E+03  0.00000000000E+00 0. -1.
<mgrwt>
<rscale>  4 0.23697019E+03</rscale>
<asrwt>0</asrwt>
<pdfrwt beam="1">  1       21 0.34243701E-01 0.23697019E+03</pdfrwt>
<pdfrwt beam="2">  1       21 0.43398086E-01 0.23697019E+03</pdfrwt>
<totfact> 0.41061274E+04</totfact>
</mgrwt>
</event>
<event>
 5    0  0.1467858E+000  0.2419189E+03  0.7546771E-02  0.1118521E+00
         21   -1    0    0  504  501  0.00000000000E+00  0.00000000000E+00  0.30178300036E+03  0.30178300036E+03  0.00000000000E+00 0.  1.
         21   -1    0    0  501  502 -0.00000000000E+00 -0.00000000000E+00 -0.21523558644E+03  0.21523558644E+03  0.00000000000E+00 0.  1.
         25    1    1    2    0    0  0.19555850069E+03  0.84388511571E+02 -0.48707110985E+02  0.25171795871E+03  0.12500000000E+03 0.  0.
         21    1    1    2  503  502 -0.22843229668E+02  0.13272378204E+02  0.32418811565E+02  0.41820431707E+02  0.00000000000E+00 0.  1.
         21    1    1    2  504  503 -0.17271527102E+03 -0.97660889775E+02  0.10283571334E+03  0.22348019638E+03  0.00000000000E+00 0.  1.
<mgrwt>
<rscale>  4 0.24191894E+03</rscale>
<asrwt>0</asrwt>
<pdfrwt beam="1">  1       21 0.46428154E-01 0.24191894E+03</pdfrwt>
<pdfrwt beam="2">  1       21 0.33113167E-01 0.24191894E+03</pdfrwt>
<totfact> 0.38103098E+04</totfact>
</mgrwt>
</event>
<event>
 5    0  0.1467858E+000  0.2571182E+03  0.7546771E-02  0.1108887E+00
         21   -1    0    0  504  501  0.00000000000E+00  0.00000000000E+00  0.58023276624E+03  0.58023276624E+03  0.00000000000E+00 0. -1.
         21   -1    0    0  501  502 -0.00000000000E+00 -0.00000000000E+00 -0.11785357950E+03  0.11785357950E+03  0.00000000000E+00 0. -1.
         25    1    1    2    0    0 -0.21516128102E+03  0.91775519741E+02  0.29803709905E+03  0.39895893935E+03  0.12500000000E+03 0.  0.
         21    1    1    2  503  502  0.19362094623E+02  0.84292748708E+01  0.43048893783E+02  0.47949459215E+02  0.00000000000E+00 0. -1.
         21    1    1    2  504  503  0.19579918640E+03 -0.10020479461E+03  0.12129319391E+03  0.25117794717E+03  0.00000000000E+00 0. -1.
<mgrwt>
<rscale>  4 0.25711819E+03</rscale>
<asrwt>0</asrwt>
<pdfrwt beam="1">  1       21 0.89266578E-01 0.25711819E+03</pdfrwt>
<pdfrwt beam="2">  1       21 0.18131320E-01 0.25711819E+03</pdfrwt>
<totfact> 0.28696745E+04</totfact>
</mgrwt>
</event>
<event>
 5    0  0.1467858E+000  0.3096833E+03  0.7546771E-02  0.1080498E+00
         21   -1    0    0  504  501  0.00000000000E+00  0.00000000000E+00  0.57744954976E+03  0.57744954976E+03  0.00000000000E+00 0. -1.
         21   -1    0    0  501  502 -0.00000000000E+00 -0.00000000000E+00 -0.43217182158E+03  0.43217182158E+03  0.00000000000E+00 0.  1.
         25    1    1    2    0    0 -0.24856622036E+03 -0.13075113353E+03 -0.28989120658E+03  0.42254341372E+03  0.12500000000E+03 0.  0.
         21    1    1    2  503  502  0.20283672920E+02 -0.76283826183E+02  0.48595066774E+02  0.92693743257E+02  0.00000000000E+00 0. -1.
         21    1    1    2  504  503  0.22828254744E+03  0.20703495971E+03  0.38657386798E+03  0.49438421437E+03  0.00000000000E+00 0. -1.
<mgrwt>
<rscale>  4 0.30968330E+03</rscale>
<asrwt>0</asrwt>
<pdfrwt beam="1">  1       21 0.88838392E-01 0.30968330E+03</pdfrwt>
<pdfrwt beam="2">  1       21 0.66487973E-01 0.30968330E+03</pdfrwt>
<totfact> 0.20658412E+03</totfact>
</mgrwt>
</event>
<event>
 5    0  0.1467858E+000  0.3091660E+03  0.7546771E-02  0.1080746E+00
         21   -1    0    0  504  501  0.00000000000E+00  0.00000000000E+00  0.27088176288E+03  0.27088176288E+03  0.00000000000E+00 0.  1.
         21   -1    0    0  501  502 -0.00000000000E+00 -0.00000000000E+00 -0.13864707235E+04  0.13864707235E+04  0.00000000000E+00 0.  1.
         25    1    1    2    0    0 -0.16640175857E+03  0.28840303638E+03 -0.11583765113E+04  0.12117454348E+04  0.12500000000E+03 0.  0.
         21    1    1    2  503  502  0.30467762036E+02 -0.44411083308E+02 -0.11344323186E+03  0.12557864348E+03  0.00000000000E+00 0.  1.
         21    1    1    2  504  503  0.13593399653E+03 -0.24399195307E+03  0.15623078259E+03  0.32002840812E+03  0.00000000000E+00 0.  1.
<mgrwt>
<rscale>  4 0.30916598E+03</rscale>
<asrwt>0</asrwt>
<pdfrwt beam="1">  1       21 0.41674117E-01 0.30916598E+03</pdfrwt>
<pdfrwt beam="2">  1       21 0.21330319E+00 0.30916598E+03</pdfrwt>
<totfact> 0.54841477E+02</totfact>
</mgrwt>
</event>
<event>
 5    0  0.1467858E+000  0.3237575E+03  0.7546771E-02  0.1073933E+00
         21   -1    0    0  504  501  0.00000000000E+00  0.00000000000E+00  0.18165926933E+03  0.18165926933E+03  0.00000000000E+00 0. -1.
         21   -1    0    0  501  502 -0.00000000000E+00 -0.00000000000E+00 -0.11618444993E+04  0.11618444993E+04  0.00000000000E+00 0. -1.
         25    1    1    2    0    0 -0.15368150421E+02 -0.34591802773E+03 -0.84531675460E+03  0.92199830670E+03  0.12500000000E+03 0.  0.
         21    1    1    2  503  502  0.10734719363E+03  0.18968481775E+03 -0.69054472423E+02  0.22863129757E+03  0.00000000000E+00 0. -1.
         21    1    1    2  504  503 -0.91979043211E+02  0.15623320999E+03 -0.65814002946E+02  0.19287416436E+03  0.00000000000E+00 0.  1.
<mgrwt>
<rscale>  4 0.32375748E+03</rscale>
<asrwt>0</asrwt>
<pdfrwt beam="1">  1       21 0.27947580E-01 0.32375748E+03</pdfrwt>
<pdfrwt beam="2">  1       21 0.17874531E+00 0.32375748E+03</pdfrwt>
<totfact> 0.20522034E+03</totfact>
</mgrwt>
</event>
<event>
 5    0  0.1467858E+000  0.2555944E+03  0.7546771E-02  0.1109819E+00
         21   -1    0    0  504  501  0.00000000000E+00  0.00000000000E+00  0.56752836340E+03  0.56752836340E+03  0.00000000000E+00 0.  1.
         21   -1    0    0  501  502 -0.00000000000E+00 -0.00000000000E+00 -0.26188399093E+03  0.26188399093E+03  0.00000000000E+00 0.  1.
         25    1    1    2    0    0  0.22919774432E+03 -0.47899775603E+02 -0.15033434641E+03  0.30504329236E+03  0.12500000000E+03 0.  0.
         21    1    1    2  503  502 -0.73594771725E+02 -0.28495773781E+01  0.57019249103E+02  0.93142392522E+02  0.00000000000E+00 0.  1.
         21    1    1    2  504  503 -0.15560297260E+03  0.50749352981E+02  0.39895946978E+03  0.43122666944E+03  0.00000000000E+00 0.  1.
<mgrwt>
<rscale>  4 0.25559438E+03</rscale>
<asrwt>0</asrwt>
<pdfrwt beam="1">  1       21 0.87312056E-01 0.25559438E+03</pdfrwt>
<pdfrwt beam="2">  1       21 0.40289845E-01 0.25559438E+03</pdfrwt>
<totfact> 0.64118301E+03</totfact>
</mgrwt>
</event>
<event>
 5    0  0.1467858E+000  0.2427308E+03  0.7546771E-02  0.1117987E+00
         21   -1    0    0  504  501  0.00000000000E+00  0.00000000000E+00  0.19963265630E+03  0.19963265630E+03  0.00000000000E+00 0.  1.
         21   -1    0    0  501  502 -0.00000000000E+00 -0.00000000000E+00 -0.57945200086E+03  0.57945200086E+03  0.00000000000E+00 0.  1.
         25    1    1    2    0    0 -0.19340887158E+03 -0.76721829966E+02 -0.47986924368E+03  0.53776641940E+03  0.12500000000E+03 0.  0.
         21    1    1    2  503  502  0.16294130792E+03  0.87656915385E+02  0.72183056750E+02  0.19860513166E+03  0.00000000000E+00 0.  1.
         21    1    1    2  504  503  0.30467563661E+02 -0.10935085419E+02  0.27866842376E+02  0.42713106098E+02  0.00000000000E+00 0.  1.
<mgrwt>
<rscale>  4 0.24273078E+03</rscale>
<asrwt>0</asrwt>
<pdfrwt beam="1">  1       21 0.30712716E-01 0.24273078E+03</pdfrwt>
<pdfrwt beam="2">  1       21 0.89146461E-01 0.24273078E+03</pdfrwt>
<totfact> 0.10589356E+04</totfact>
</mgrwt>
</event>
<event>
 5    0  0.1467858E+000  0.2587704E+03  0.7546771E-02  0.1107884E+00
         21   -1    0    0  504  501  0.00000000000E+00  0.00000000000E+00  0.12213383150E+03  0.12213383150E+03  0.00000000000E+00 0. -1.
         21   -1    0    0  501  502 -0.00000000000E+00 -0.00000000000E+00 -0.71237798819E+03  0.71237798819E+03  0.00000000000E+00 0. -1.
         25    1    1    2    0    0  0.19837463219E+03  0.10947439412E+03 -0.73052946029E+02  0.26888449303E+03  0.12500000000E+03 0.  0.
         21    1    1    2  503  502 -0.17852389469E+03 -0.95649072243E+02 -0.48299131502E+03  0.52373670520E+03  0.00000000000E+00 0. -1.
         21    1    1    2  504  503 -0.19850737506E+02 -0.13825321881E+02 -0.34199895636E+02  0.41890621458E+02  0.00000000000E+00 0.  1.
<mgrwt>
<rscale>  4 0.25877043E+03</rscale>
<asrwt>0</asrwt>
<pdfrwt beam="1">  1       21 0.18789820E-01 0.25877043E+03</pdfrwt>
<pdfrwt beam="2">  1       21 0.10959661E+00 0.25877043E+03</pdfrwt>
<totfact> 0.16442079E+04</totfact>
</mgrwt>
</event>
<event>
 5    0  0.1467858E+000  0.2518882E+03  0.7546771E-02  0.1112117E+00
         21   -1    0    0  504  501  0.00000000000E+00  0.00000000000E+00  0.15317520779E+03  0.15317520779E+03  0.00000000000E+00 0.  1.
         21   -1    0    0  501  502 -0.00000000000E+00 -0.00000000000E+00 -0.50684888919E+03  0.50684888919E+03  0.00000000000E+00 0.  1.
         25    1    1    2    0    0 -0.30386095882E+02 -0.21656252867E+03 -0.35564154838E+03  0.43580793313E+03  0.12500000000E+03 0.  0.
         21    1    1    2  503  502  0.26392805259E+02  0.17336181293E+03  0.21433811672E+02  0.17666438983E+03  0.00000000000E+00 0.  1.
         21    1    1    2  504  503  0.39932906228E+01  0.43200715740E+02 -0.19465944691E+02  0.47551774028E+02  0.00000000000E+00 0.  1.
<mgrwt>
<rscale>  4 0.25188816E+03</rscale>
<asrwt>0</asrwt>
<pdfrwt beam="1">  1       21 0.23565416E-01 0.25188816E+03</pdfrwt>
<pdfrwt beam="2">  1       21 0.77976754E-01 0.25188816E+03</pdfrwt>
<totfact> 0.23934454E+04</totfact>
</mgrwt>
</event>
<event>
 5    0  0.1467858E+000  0.2532720E+03  0.7546771E-02  0.1111254E+00
         21   -1    0    0  504  501  0.00000000000E+00  0.00000000000E+00  0.28017878262E+03  0.28017878262E+03  0.00000000000E+00 0.  1.
         21   -1    0    0  501  502 -0.00000000000E+00 -0.00000000000E+00 -0.21720966719E+03  0.21720966719E+03  0.00000000000E+00 0.  1.
         25    1    1    2    0    0 -0.21833091782E+03  0.29211543092E+02 -0.93919861258E+01  0.25344607579E+03  0.12500000000E+03 0.  0.
         21    1    1    2  503  502  0.72417962625E+02 -0.43538572853E+02  0.41395659595E+02  0.94093407156E+02  0.00000000000E+00 0.  1.
         21    1    1    2  504  503  0.14591295520E+03  0.14327029761E+02  0.30965441963E+02  0.14984896687E+03  0.00000000000E+00 0.  1.
<mgrwt>
<rscale>  4 0.25327200E+03</rscale>
<asrwt>0</asrwt>
<pdfrwt beam="1">  1       21 0.43104428E-01 0.25327200E+03</pdfrwt>
<pdfrwt beam="2">  1       21 0.33416872E-01 0.25327200E+03</pdfrwt>
<totfact> 0.43415345E+04</totfact>
</mgrwt>
</event>
<event>
 5    0  0.1467858E+000  0.2947441E+03  0.7546771E-02  0.1087898E+00
         21   -1    0    0  504  501  0.00000000000E+00  0.00000000000E+00  0.20450631777E+03  0.20450631777E+03  0.00000000000E+00 0.  1.
         21   -1    0    0  501  502 -0.00000000000E+00 -0.00000000000E+00 -0.46617725127E+03  0.46617725127E+03  0.00000000000E+00 0.  1.
         25    1    1    2    0    0 -0.26624329548E+03  0.41757197449E+02 -0.24745564875E+03  0.38663736760E+03  0.12500000000E+03 0.  0.
         21    1    1    2  503  502  0.25602198408E+03 -0.59401900227E+02 -0.17442389862E+02  0.26340098528E+03  0.00000000000E+00 0.  1.
         21    1    1    2  504  503  0.10221311403E+02  0.17644702778E+02  0.32271051046E+01  0.20645216160E+02  0.00000000000E+00 0. -1.
<mgrwt>
<rscale>  4 0.29474413E+03</rscale>
<asrwt>0</asrwt>
<pdfrwt beam="1">  1       21 0.31462511E-01 0.29474413E+03</pdfrwt>
<pdfrwt beam="2">  1       21 0.71719577E-01 0.29474413E+03</pdfrwt>
<totfact> 0.16165628E+04</totfact>
</mgrwt>
</event>
<event>
 5    0  0.1467858E+000  0.2683022E+03  0.7546771E-02  0.1102255E+00
         21   -1    0    0  504  501  0.00000000000E+00  0.00000000000E+00  0.12720576111E+04  0.12720576111E+04  0.00000000000E+00 0.  1.
         21   -1    0    0  501  502 -0.00000000000E+00 -0.00000000000E+00 -0.63460238883E+02  0.63460238883E+02  0.00000000000E+00 0.  1.
         25    1    1    2    0    0  0.16480150749E+03  0.18420905885E+03  0.47097601668E+03  0.54638440911E+03  0.12500000000E+03 0.  0.
         21    1    1    2  503  502  0.16619013929E+02 -0.37366293093E+02  0.61464063749E+02  0.73825893940E+02  0.00000000000E+00 0. -1.
         21    1    1    2  504  503 -0.18142052142E+03 -0.14684276576E+03  0.67615729175E+03  0.71530754689E+03  0.00000000000E+00 0.  1.
<mgrwt>
<rscale>  4 0.26830224E+03</rscale>
<asrwt>0</asrwt>
<pdfrwt beam="1">  1       21 0.19570115E+00 0.26830224E+03</pdfrwt>
<pdfrwt beam="2">  1       21 0.97631146E-02 0.26830224E+03</pdfrwt>
<totfact> 0.11485156E+04</totfact>
</mgrwt>
</event>
<event>
 5    0  0.1467858E+000  0.2986839E+03  0.7546771E-02  0.1085900E+00
         21   -1    0    0  504  501  0.00000000000E+00  0.00000000000E+00  0.12223575395E+04  0.12223575395E+04  0.00000000000E+00 0.  1.
         21   -1    0    0  501  502 -0.00000000000E+00 -0.00000000000E+00 -0.49192655854E+03  0.49192655854E+03  0.00000000000E+00 0.  1.
         25    1    1    2    0    0 -0.47787186525E+02 -0.26702705563E+03 -0.42788951759E+03  0.52182516506E+03  0.12500000000E+03 0.  0.
         21    1    1    2  503  502  0.69597092318E+02  0.21651190645E+03  0.89411006883E+03  0.92258006486E+03  0.00000000000E+00 0.  1.
         21    1    1    2  504  503 -0.21809905793E+02  0.50515149175E+02  0.26421042974E+03  0.26987886814E+03  0.00000000000E+00 0.  1.
<mgrwt>
<rscale>  4 0.29868389E+03</rscale>
<asrwt>0</asrwt>
<pdfrwt beam="1">  1       21 0.18805501E+00 0.29868389E+03</pdfrwt>
<pdfrwt beam="2">  1       21 0.75681009E-01 0.29868389E+03</pdfrwt>
<totfact> 0.22421869E+02</totfact>
</mgrwt>
</event>
<event>
 5    0  0.1467858E+000  0.3571489E+03  0.7546771E-02  0.1059718E+00
         21   -1    0    0  504  501  0.00000000000E+00  0.00000000000E+00  0.11115537747E+04  0.11115537747E+04  0.00000000000E+00 0.  1.
         21   -1    0    0  501  502 -0.00000000000E+00 -0.00000000000E+00 -0.15297662688E+03  0.15297662688E+03  0.00000000000E+00 0. -1.
         25    1    1    2    0    0 -0.33393515714E+03 -0.20436555816E+02  0.15237108959E+03  0.38829407790E+03  0.12500000000E+03 0.  0.
         21    1    1    2  503  502  0.29917460284E+03  0.42025860576E+02  0.71983189338E+03  0.78065970222E+03  0.00000000000E+00 0.  1.
         21    1    1    2  504  503  0.34760554294E+02 -0.21589304760E+02  0.86374164843E+02  0.95576621447E+02  0.00000000000E+00 0. -1.
<mgrwt>
<rscale>  4 0.35714891E+03</rscale>
<asrwt>0</asrwt>
<pdfrwt beam="1">  1       21 0.17100827E+00 0.35714891E+03</pdfrwt>
<pdfrwt beam="2">  1       21 0.23534866E-01 0.35714891E+03</pdfrwt>
<totfact> 0.31914940E+03</totfact>
</mgrwt>
</event>
<event>
 5    0  0.1467858E+000  0.2187182E+03  0.7546771E-02  0.1134842E+00
         21   -1    0    0  504  501  0.00000000000E+00  0.00000000000E+00  0.86384951071E+03  0.86384951071E+03  0.00000000000E+00 0.  1.
         21   -1    0    0  501  502 -0.00000000000E+00 -0.00000000000E+00 -0.86956191814E+02  0.86956191814E+02  0.00000000000E+00 0.  1.
         25    1    1    2    0    0 -0.17076278580E+03 -0.10542169143E+03  0.15190311965E+03  0.28102174257E+03  0.12500000000E+03 0.  0.
         21    1    1    2  503  502  0.56213395131E+01  0.44951881791E+02  0.45545145590E+02  0.64238862235E+02  0.00000000000E+00 0.  1.
         21    1    1    2  504  503  0.16514144629E+03  0.60469809641E+02  0.57944505365E+03  0.60554509771E+03  0.00000000000E+00 0.  1.
<mgrwt>
<rscale>  4 0.21871821E+03</rscale>
<asrwt>0</asrwt>
<pdfrwt beam="1">  1       21 0.13289992E+00 0.21871821E+03</pdfrwt>
<pdfrwt beam="2">  1       21 0.13377876E-01 0.21871821E+03</pdfrwt>
<totfact> 0.19408476E+04</totfact>
</mgrwt>
</event>
<event>
 5    0  0.1467858E+000  0.3240262E+03  0.7546771E-02  0.1073811E+00
         21   -1    0    0  504  501  0.00000000000E+00  0.00000000000E+00  0.15910626947E+04  0.15910626947E+04  0.00000000000E+00 0. -1.
         21   -1    0    0  501  502 -0.00000000000E+00 -0.00000000000E+00 -0.22218682615E+03  0.22218682615E+03  0.00000000000E+00 0. -1.
         25    1    1    2    0    0 -0.84145882702E+02  0.36171678309E+03  0.25027517089E+02  0.39264607136E+03  0.12500000000E+03 0.  0.
         21    1    1    2  503  502  0.13842492132E+02 -0.19363371808E+03  0.27665672669E+03  0.33797126474E+03  0.00000000000E+00 0. -1.
         21    1    1    2  504  503  0.70303390570E+02 -0.16808306501E+03  0.10671916248E+04  0.10826321848E+04  0.00000000000E+00 0. -1.
<mgrwt>
<rscale>  4 0.32402616E+03</rscale>
<asrwt>0</asrwt>
<pdfrwt beam="1">  1       21 0.24477887E+00 0.32402616E+03</pdfrwt>
<pdfrwt beam="2">  1       21 0.34182590E-01 0.32402616E+03</pdfrwt>
<totfact> 0.51692511E+02</totfact>
</mgrwt>
</event>
<event>
 5    0  0.1467858E+000  0.2559450E+03  0.7546771E-02  0.1109604E+00
         21   -1    0    0  504  501  0.00000000000E+00  0.00000000000E+00  0.17600364560E+04  0.17600364560E+04  0.00000000000E+00 0.  1.
         21   -1    0    0  501  502 -0.00000000000E+00 -0.00000000000E+00 -0.96441373774E+03  0.96441373774E+03  0.00000000000E+00 0.  1.
         25    1    1    2    0    0 -0.11848671126E+03  0.19140138478E+03 -0.93672555239E+03  0.97146968627E+03  0.12500000000E+03 0.  0.
         21    1    1    2  503  502 -0.43491775396E+01 -0.12710110157E+03  0.71407195850E+03  0.72530846354E+03  0.00000000000E+00 0. -1.
         21    1    1    2  504  503  0.12283588880E+03 -0.64300283217E+02  0.10182763121E+04  0.10276720439E+04  0.00000000000E+00 0.  1.
<mgrwt>
<rscale>  4 0.25594503E+03</rscale>
<asrwt>0</asrwt>
<pdfrwt beam="1">  1       21 0.27077484E+00 0.25594503E+03</pdfrwt>
<pdfrwt beam="2">  1       21 0.14837134E+00 0.25594503E+03</pdfrwt>
<totfact> 0.13956985E+01</totfact>
</mgrwt>
</event>
<event>
 5    0  0.1467858E+000  0.3101220E+03  0.7546771E-02  0.1080287E+00
         21   -1    0    0  504  501  0.00000000000E+00  0.00000000000E+00  0.13332458972E+04  0.13332458972E+04  0.00000000000E+00 0.  1.
         21   -1    0    0  501  502 -0.00000000000E+00 -0.00000000000E+00 -0.81436725048E+02  0.81436725048E+02  0.00000000000E+00 0. -1.
         25    1    1    2    0    0  0.24770632980E+03 -0.13853594787E+03  0.34665207803E+03  0.46512718463E+03  0.12500000000E+03 0.  0.
         21    1    1    2  503  502 -0.25652017081E+02  0.28429971356E+02  0.14742537879E+03  0.15231720705E+03  0.00000000000E+00 0.  1.
         21    1    1    2  504  503 -0.22205431272E+03  0.11010597651E+03  0.75773171530E+03  0.79723823054E+03  0.00000000000E+00 0.  1.
<mgrwt>
<rscale>  4 0.31012197E+03</rscale>
<asrwt>0</asrwt>
<pdfrwt beam="1">  1       21 0.20511474E+00 0.31012197E+03</pdfrwt>
<pdfrwt beam="2">  1       21 0.12528728E-01 0.31012197E+03</pdfrwt>
<totfact> 0.62168539E+03</totfact>
</mgrwt>
</event>
<event>
 5    0  0.1467858E+000  0.2665740E+03  0.7546771E-02  0.1103257E+00
         21   -1    0    0  504  501  0.00000000000E+00  0.00000000000E+00  0.60468542802E+02  0.60468542802E+02  0.00000000000E+00 0.  1.
         21   -1    0    0  501  502 -0.00000000000E+00 -0.00000000000E+00 -0.12823431462E+04  0.12823431462E+04  0.00000000000E+00 0.  1.
         25    1    1    2    0    0  0.19292367491E+02 -0.23465822763E+03 -0.86751311529E+03  0.90754651916E+03  0.12500000000E+03 0.  0.
         21    1    1    2  503  502 -0.32975204658E+02  0.17162675693E+03 -0.31346816560E+03  0.35889469021E+03  0.00000000000E+00 0.  1.
         21    1    1    2  504  503  0.13682837167E+02  0.63031470702E+02 -0.40893322479E+02  0.76370479605E+02  0.00000000000E+00 0.  1.
<mgrwt>
<rscale>  4 0.26657397E+03</rscale>
<asrwt>0</asrwt>
<pdfrwt beam="1">  1       21 0.93028529E-02 0.26657397E+03</pdfrwt>
<pdfrwt beam="2">  1       21 0.19728356E+00 0.26657397E+03</pdfrwt>
<totfact> 0.12228741E+04</totfact>
</mgrwt>
</event>
<event>
 5    0  0.1467858E+000  0.4622638E+03  0.7546771E-02  0.1024127E+00
         21   -1    0    0  504  501  0.00000000000E+00  0.00000000000E+00  0.53489815672E+03  0.53489815672E+03  0.00000000000E+00 0.  1.
         21   -1    0    0  501  502 -0.00000000000E+00 -0.00000000000E+00 -0.22842972532E+04  0.22842972532E+04  0.00000000000E+00 0. -1.
         25    1    1    2    0    0  0.44382317157E+03 -0.62009659641E+02 -0.21242853693E+04  0.21746350351E+04  0.12500000000E+03 0.  0.
         21    1    1    2  503  502 -0.64787095851E+02 -0.46131765960E+01 -0.41882154923E+02  0.77283659904E+02  0.00000000000E+00 0. -1.
         21    1    1    2  504  503 -0.37903607572E+03  0.66622836237E+02  0.41676842772E+03  0.56727671497E+03  0.00000000000E+00 0.  1.
<mgrwt>
<rscale>  4 0.46226380E+03</rscale>
<asrwt>0</asrwt>
<pdfrwt beam="1">  1       21 0.82292024E-01 0.46226380E+03</pdfrwt>
<pdfrwt beam="2">  1       21 0.35143035E+00 0.46226380E+03</pdfrwt>
<totfact> 0.16082919E+01</totfact>
</mgrwt>
</event>
<event>
 5    0  0.1467858E+000  0.2521476E+03  0.7546771E-02  0.1111955E+00
         21   -1    0    0  504  501  0.00000000000E+00  0.00000000000E+00  0.41425239431E+03  0.41425239431E+03  0.00000000000E+00 0. -1.
         21   -1    0    0  501  502 -0.00000000000E+00 -0.00000000000E+00 -0.14119548084E+03  0.14119548084E+03  0.00000000000E+00 0. -1.
         25    1    1    2    0    0 -0.19883815242E+03 -0.91743006197E+02  0.10205299424E+03  0.27201691800E+03  0.12500000000E+03 0.  0.
         21    1    1    2  503  502  0.15385102796E+03  0.94498040710E+02  0.12985921134E+03  0.22240376182E+03  0.00000000000E+00 0. -1.
         21    1    1    2  504  503  0.44987124456E+02 -0.27550345130E+01  0.41144707899E+02  0.61027195332E+02  0.00000000000E+00 0. -1.
<mgrwt>
<rscale>  4 0.25214756E+03</rscale>
<asrwt>0</asrwt>
<pdfrwt beam="1">  1       21 0.63731137E-01 0.25214756E+03</pdfrwt>
<pdfrwt beam="2">  1       21 0.21722382E-01 0.25214756E+03</pdfrwt>
<totfact> 0.43759374E+04</totfact>
</mgrwt>
</event>
<event>
 5    0  0.1467858E+000  0.2638728E+03  0.7546771E-02  0.1104838E+00
         21   -1    0    0  504  501  0.00000000000E+00  0.00000000000E+00  0.59377266004E+03  0.59377266004E+03  0.00000000000E+00 0. -1.
         21   -1    0    0  501  502 -0.00000000000E+00 -0.00000000000E+00 -0.11814493801E+03  0.11814493801E+03  0.00000000000E+00 0. -1.
         25    1    1    2    0    0  0.67384588504E+02  0.22240321496E+03  0.13179640666E+03  0.29495620963E+03  0.12500000000E+03 0.  0.
         21    1    1    2  503  502 -0.51579805605E+02 -0.17955073908E+03  0.24509659467E+03  0.30817411469E+03  0.00000000000E+00 0. -1.
         21    1    1    2  504  503 -0.15804782899E+02 -0.42852475878E+02  0.98734720710E+02  0.10878727373E+03  0.00000000000E+00 0.  1.
<mgrwt>
<rscale>  4 0.26387283E+03</rscale>
<asrwt>0</asrwt>
<pdfrwt beam="1">  1       21 0.91349638E-01 0.26387283E+03</pdfrwt>
<pdfrwt beam="2">  1       21 0.18176145E-01 0.26387283E+03</pdfrwt>
<totfact> 0.26985585E+04</totfact>
</mgrwt>
</event>
<event>
 5    0  0.1467858E+000  0.2790440E+03  0.7546771E-02  0.1096212E+00
         21   -1    0    0  504  501  0.00000000000E+00  0.00000000000E+00  0.20947723401E+03  0.20947723401E+03  0.00000000000E+00 0. -1.
         21   -1    0    0  501  502 -0.00000000000E+00 -0.00000000000E+00 -0.34173235215E+03  0.34173235215E+03  0.00000000000E+00 0. -1.
         25    1    1    2    0    0 -0.11798576777E+03 -0.21981786287E+03 -0.61268115476E+02  0.28569094527E+03  0.12500000000E+03 0.  0.
         21    1    1    2  503  502  0.78006423724E+02  0.86505045583E+02 -0.37478173526E+02  0.12236314210E+03  0.00000000000E+00 0. -1.
         21    1    1    2  504  503  0.39979344043E+02  0.13331281729E+03 -0.33508829145E+02  0.14315549879E+03  0.00000000000E+00 0. -1.
<mgrwt>
<rscale>  4 0.27904396E+03</rscale>
<asrwt>0</asrwt>
<pdfrwt beam="1">  1       21 0.32227267E-01 0.27904396E+03</pdfrwt>
<pdfrwt beam="2">  1       21 0.52574208E-01 0.27904396E+03</pdfrwt>
<totfact> 0.30508791E+04</totfact>
</mgrwt>
</event>
<event>
 5    0  0.1467858E+000  0.2530798E+03  0.7546771E-02  0.1111374E+00
         21   -1    0    0  504  501  0.00000000000E+00  0.00000000000E+00  0.85240532157E+03  0.85240532157E+03  0.00000000000E+00 0. -1.
         21   -1    0    0  501  502 -0.00000000000E+00 -0.00000000000E+00 -0.26446852825E+03  0.26446852825E+03  0.00000000000E+00 0.  1.
         25    1    1    2    0    0  0.18742308805E+03  0.11531253409E+03 -0.18428936464E+03  0.31306862566E+03  0.12500000000E+03 0.  0.
         21    1    1    2  503  502 -0.16849104450E+03 -0.94781938549E+02  0.63540175739E+03  0.66415980099E+03  0.00000000000E+00 0. -1.
         21    1    1    2  504  503 -0.18932043553E+02 -0.20530595539E+02  0.13682440056E+03  0.13964542318E+03  0.00000000000E+00 0.  1.
<mgrwt>
<rscale>  4 0.25307982E+03</rscale>
<asrwt>0</asrwt>
<pdfrwt beam="1">  1       21 0.13113928E+00 0.25307982E+03</pdfrwt>
<pdfrwt beam="2">  1       21 0.40687466E-01 0.25307982E+03</pdfrwt>
<totfact> 0.23425641E+03</totfact>
</mgrwt>
</event>
<event>
 5    0  0.1467858E+000  0.3138780E+03  0.7546771E-02  0.1078502E+00
         21   -1    0    0  504  501  0.00000000000E+00  0.00000000000E+00  0.51657173077E+03  0.51657173077E+03  0.00000000000E+00 0. -1.
         21   -1    0    0  501  502 -0.00000000000E+00 -0.00000000000E+00 -0.32553292834E+03  0.32553292834E+03  0.00000000000E+00 0. -1.
         25    1    1    2    0    0  0.93972887605E+02  0.30176160523E+03  0.26489979353E+03  0.43091515477E+03  0.12500000000E+03 0.  0.
         21    1    1    2  503  502 -0.16729391209E+03 -0.22903143276E+03 -0.10637693676E+03  0.30291699010E+03  0.00000000000E+00 0. -1.
         21    1    1    2  504  503  0.73321024487E+02 -0.72730172471E+02  0.32515945649E+02  0.10827251424E+03  0.00000000000E+00 0. -1.
<mgrwt>
<rscale>  4 0.31387801E+03</rscale>
<asrwt>0</asrwt>
<pdfrwt beam="1">  1       21 0.79472574E-01 0.31387801E+03</pdfrwt>
<pdfrwt beam="2">  1       21 0.50081989E-01 0.31387801E+03</pdfrwt>
<totfact> 0.49175772E+03</totfact>
</mgrwt>
</event>
<event>
 5    0  0.1467858E+000  0.2734393E+03  0.7546771E-02  0.1099327E+00
         21   -1    0    0  504  501  0.00000000000E+00  0.00000000000E+00  0.10943893282E+04  0.10943893282E+04  0.00000000000E+00 0.  1.
         21   -1    0    0  501  502 -0.00000000000E+00 -0.00000000000E+00 -0.30788806353E+03  0.30788806353E+03  0.00000000000E+00 0.  1.
         25    1    1    2    0    0 -0.23524743828E+03 -0.80973372393E+02 -0.21666822443E+03  0.35280045880E+03  0.12500000000E+03 0.  0.
         21    1    1    2  503  502  0.16632817682E+03  0.33456977505E+02  0.90361655874E+03  0.91940595875E+03  0.00000000000E+00 0.  1.
         21    1    1    2  504  503  0.68919261468E+02  0.47516394887E+02  0.99552930355E+02  0.13007097419E+03  0.00000000000E+00 0.  1.
<mgrwt>
<rscale>  4 0.27343929E+03</rscale>
<asrwt>0</asrwt>
<pdfrwt beam="1">  1       21 0.16836759E+00 0.27343929E+03</pdfrwt>
<pdfrwt beam="2">  1       21 0.47367395E-01 0.27343929E+03</pdfrwt>
<totfact> 0.86703607E+02</totfact>
</mgrwt>
</event>
<event>
 5    0  0.1467858E+000  0.4272022E+03  0.7546771E-02  0.1034747E+00
         21   -1    0    0  504  501  0.00000000000E+00  0.00000000000E+00  0.57406932550E+03  0.57406932550E+03  0.00000000000E+00 0. -1.
         21   -1    0    0  501  502 -0.00000000000E+00 -0.00000000000E+00 -0.60410726240E+03  0.60410726240E+03  0.00000000000E+00 0.  1.
         25    1    1    2    0    0 -0.22511481916E+03  0.40564222150E+03 -0.33661729185E+03  0.58665023211E+03  0.12500000000E+03 0.  0.
         21    1    1    2  503  502  0.17308599123E+03 -0.35776649857E+03  0.33048445678E+03  0.51689032109E+03  0.00000000000E+00 0. -1.
         21    1    1    2  504  503  0.52028827939E+02 -0.47875722927E+02 -0.23905101826E+02  0.74636034700E+02  0.00000000000E+00 0.  1.
<mgrwt>
<rscale>  4 0.42720222E+03</rscale>
<asrwt>0</asrwt>
<pdfrwt beam="1">  1       21 0.88318358E-01 0.42720222E+03</pdfrwt>
<pdfrwt beam="2">  1       21 0.92939579E-01 0.42720222E+03</pdfrwt>
<totfact> 0.91680603E+02</totfact>
</mgrwt>
</event>
<event>
 5    0  0.1467858E+000  0.3389606E+03  0.7546771E-02  0.1067239E+00
         21   -1    0    0  504  501  0.00000000000E+00  0.00000000000E+00  0.99187220361E+03  0.99187220361E+03  0.00000000000E+00 0. -1.
         21   -1    0    0  501  502 -0.00000000000E+00 -0.00000000000E+00 -0.14653654495E+03  0.14653654495E+03  0.00000000000E+00 0. -1.
         25    1    1    2    0    0 -0.57575200290E+02  0.30976504781E+03  0.15523688712E+03  0.37281735428E+03  0.12500000000E+03 0.  0.
         21    1    1    2  503  502  0.32074832193E+02 -0.18400814208E+02  0.53692030874E+02  0.65193703707E+02  0.00000000000E+00 0. -1.
         21    1    1    2  504  503  0.25500368097E+02 -0.29136423360E+03  0.63640674066E+03  0.70039769057E+03  0.00000000000E+00 0. -1.
<mgrwt>
<rscale>  4 0.33896060E+03</rscale>
<asrwt>0</asrwt>
<pdfrwt beam="1">  1       21 0.15259572E+00 0.33896060E+03</pdfrwt>
<pdfrwt beam="2">  1       21 0.22544084E-01 0.33896060E+03</pdfrwt>
<totfact> 0.47932993E+03</totfact>
</mgrwt>
</event>
<event>
 5    0  0.1467858E+000  0.5725852E+03  0.7546771E-02  0.9963974E-01
         21   -1    0    0  504  501  0.00000000000E+00  0.00000000000E+00  0.17232902286E+03  0.17232902286E+03  0.00000000000E+00 0.  1.
         21   -1    0    0  501  502 -0.00000000000E+00 -0.00000000000E+00 -0.20783931627E+04  0.20783931627E+04  0.00000000000E+00 0. -1.
         25    1    1    2    0    0  0.27531001514E+03 -0.48624391990E+03 -0.13205713091E+04  0.14393617810E+04  0.12500000000E+03 0.  0.
         21    1    1    2  503  502 -0.47995373594E+01  0.29302329579E+02 -0.21047657733E+02  0.36395960952E+02  0.00000000000E+00 0. -1.
         21    1    1    2  504  503 -0.27051047778E+03  0.45694159032E+03 -0.56444517295E+03  0.77496444358E+03  0.00000000000E+00 0.  1.
<mgrwt>
<rscale>  4 0.57258515E+03</rscale>
<asrwt>0</asrwt>
<pdfrwt beam="1">  1       21 0.26512157E-01 0.57258515E+03</pdfrwt>
<pdfrwt beam="2">  1       21 0.31975280E+00 0.57258515E+03</pdfrwt>
<totfact> 0.26076802E+02</totfact>
</mgrwt>
</event>
<event>
 5    0  0.1467858E+000  0.4247470E+03  0.7546771E-02  0.1037329E+00
         21   -1    0    0  504  501  0.00000000000E+00  0.00000000000E+00  0.46302263839E+03  0.46302263839E+03  0.00000000000E+00 0. -1.
         21   -1    0    0  501  502 -0.00000000000E+00 -0.00000000000E+00 -0.36994631551E+03  0.36994631551E+03  0.00000000000E+00 0. -1.
         25    1    1    2    0    0  0.33075995096E+03  0.19326444882E+03  0.49581639172E+02  0.40600077744E+03  0.12500000000E+03 0.  0.
         21    1    1    2  503  502 -0.21026695296E+03 -0.12305518585E+03 -0.62834269251E+02  0.25160070680E+03  0.00000000000E+00 0. -1.
         21    1    1    2  504  503 -0.12049299800E+03 -0.70209262977E+02  0.10632895296E+03  0.17536746965E+03  0.00000000000E+00 0. -1.
<mgrwt>
<rscale>  4 0.41919274E+03</rscale>
<asrwt>0</asrwt>
<pdfrwt beam="1">  1       21 0.71234252E-01 0.42474703E+03</pdfrwt>
<pdfrwt beam="2">  1       21 0.56914818E-01 0.42474703E+03</pdfrwt>
<totfact> 0.45815424E+03</totfact>
</mgrwt>
</event>
<event>
 5    0  0.1467858E+000  0.2639918E+03  0.7546771E-02  0.1104768E+00
         21   -1    0    0  504  501  0.00000000000E+00  0.00000000000E+00  0.62724082095E+03  0.62724082095E+03  0.00000000000E+00 0.  1.
         21   -1    0    0  501  502 -0.00000000000E+00 -0.00000000000E+00 -0.12197139684E+03  0.12197139684E+03  0.00000000000E+00 0. -1.
         25    1    1    2    0    0 -0.16050209824E+03  0.16824304237E+03  0.40686352907E+03  0.48500471764E+03  0.12500000000E+03 0.  0.
         21    1    1    2  503  502  0.43962269822E+02 -0.24553194132E+02 -0.76872889182E+01  0.50937559040E+02  0.00000000000E+00 0.  1.
         21    1    1    2  504  503  0.11653982842E+03 -0.14368984824E+03  0.10609318396E+03  0.21326994110E+03  0.00000000000E+00 0.  1.
<mgrwt>
<rscale>  4 0.26399175E+03</rscale>
<asrwt>0</asrwt>
<pdfrwt beam="1">  1       21 0.96498586E-01 0.26399175E+03</pdfrwt>
<pdfrwt beam="2">  1       21 0.18764831E-01 0.26399175E+03</pdfrwt>
<totfact> 0.22343407E+04</totfact>
</mgrwt>
</event>
<event>
 5    0  0.1467858E+000  0.2392892E+03  0.7546771E-02  0.1120267E+00
         21   -1    0    0  504  501  0.00000000000E+00  0.00000000000E+00  0.94353782580E+02  0.94353782580E+02  0.00000000000E+00 0. -1.
         21   -1    0    0  501  502 -0.00000000000E+00 -0.00000000000E+00 -0.66760970768E+03  0.66760970768E+03  0.00000000000E+00 0.  1.
         25    1    1    2    0    0 -0.57754115748E+02  0.19570075868E+03 -0.47121702738E+03  0.52849296280E+03  0.12500000000E+03 0.  0.
         21    1    1    2  503  502  0.57968632868E+02 -0.13441149747E+03 -0.55633167539E+02  0.15659457966E+03  0.00000000000E+00 0. -1.
         21    1    1    2  504  503 -0.21451712066E+00 -0.61289261203E+02 -0.46405730178E+02  0.76875947798E+02  0.00000000000E+00 0. -1.
<mgrwt>
<rscale>  4 0.23928921E+03</rscale>
<asrwt>0</asrwt>
<pdfrwt beam="1">  1       21 0.14515967E-01 0.23928921E+03</pdfrwt>
<pdfrwt beam="2">  1       21 0.10270918E+00 0.23928921E+03</pdfrwt>
<totfact> 0.31288859E+04</totfact>
</mgrwt>
</event>
<event>
 5    0  0.1467858E+000  0.2208165E+03  0.7546771E-02  0.1133276E+00
         21   -1    0    0  504  501  0.00000000000E+00  0.00000000000E+00  0.35074221640E+03  0.35074221640E+03  0.00000000000E+00 0.  1.
         21   -1    0    0  501  502 -0.00000000000E+00 -0.00000000000E+00 -0.34696664747E+03  0.34696664747E+03  0.00000000000E+00 0.  1.
         25    1    1    2    0    0 -0.17616639041E+03 -0.11329947615E+03 -0.24868300020E+03  0.34833834557E+03  0.12500000000E+03 0.  0.
         21    1    1    2  503  502  0.11638311932E+03  0.49857969939E+02  0.64310253495E+02  0.14200935298E+03  0.00000000000E+00 0.  1.
         21    1    1    2  504  503  0.59783271085E+02  0.63441506208E+02  0.18814831563E+03  0.20736116532E+03  0.00000000000E+00 0.  1.
<mgrwt>
<rscale>  4 0.22081649E+03</rscale>
<asrwt>0</asrwt>
<pdfrwt beam="1">  1       21 0.53960341E-01 0.22081649E+03</pdfrwt>
<pdfrwt beam="2">  1       21 0.53379484E-01 0.22081649E+03</pdfrwt>
<totfact> 0.10591445E+04</totfact>
</mgrwt>
</event>
<event>
 5    0  0.1467858E+000  0.2892269E+03  0.7546771E-02  0.1090753E+00
         21   -1    0    0  504  501  0.00000000000E+00  0.00000000000E+00  0.75467130995E+02  0.75467130995E+02  0.00000000000E+00 0. -1.
         21   -1    0    0  501  502 -0.00000000000E+00 -0.00000000000E+00 -0.12075982437E+04  0.12075982437E+04  0.00000000000E+00 0. -1.
         25    1    1    2    0    0  0.15323893299E+03  0.23314911731E+03 -0.56507161680E+03  0.64247304503E+03  0.12500000000E+03 0.  0.
         21    1    1    2  503  502 -0.34089827118E+02 -0.15874150955E+02 -0.15729098726E+03  0.16172371395E+03  0.00000000000E+00 0.  1.
         21    1    1    2  504  503 -0.11914910587E+03 -0.21727496635E+03 -0.40976850867E+03  0.47886861573E+03  0.00000000000E+00 0. -1.
<mgrwt>
<rscale>  4 0.28922692E+03</rscale>
<asrwt>0</asrwt>
<pdfrwt beam="1">  1       21 0.11610328E-01 0.28922692E+03</pdfrwt>
<pdfrwt beam="2">  1       21 0.18578434E+00 0.28922692E+03</pdfrwt>
<totfact> 0.96965337E+03</totfact>
</mgrwt>
</event>
<event>
 5    0  0.1467858E+000  0.2703929E+03  0.7546771E-02  0.1101055E+00
         21   -1    0    0  504  501  0.00000000000E+00  0.00000000000E+00  0.14214694413E+03  0.14214694413E+03  0.00000000000E+00 0. -1.
         21   -1    0    0  501  502 -0.00000000000E+00 -0.00000000000E+00 -0.17872955455E+04  0.17872955455E+04  0.00000000000E+00 0. -1.
         25    1    1    2    0    0  0.25438956036E+03 -0.89409378413E+01 -0.16099686296E+04  0.16347531854E+04  0.12500000000E+03 0.  0.
         21    1    1    2  503  502 -0.78637769439E+02  0.46625868230E+00  0.55972222403E+02  0.96524638617E+02  0.00000000000E+00 0. -1.
         21    1    1    2  504  503 -0.17575179092E+03  0.84746791590E+01 -0.91152194152E+02  0.19816466561E+03  0.00000000000E+00 0. -1.
<mgrwt>
<rscale>  4 0.27039292E+03</rscale>
<asrwt>0</asrwt>
<pdfrwt beam="1">  1       21 0.21868762E-01 0.27039292E+03</pdfrwt>
<pdfrwt beam="2">  1       21 0.27496853E+00 0.27039292E+03</pdfrwt>
<totfact> 0.85230106E+02</totfact>
</mgrwt>
</event>
<event>
 5    0  0.1467858E+000  0.2741929E+03  0.7546771E-02  0.1098904E+00
         21   -1    0    0  504  501  0.00000000000E+00  0.00000000000E+00  0.61377084816E+03  0.61377084816E+03  0.00000000000E+00 0. -1.
         21   -1    0    0  501  502 -0.00000000000E+00 -0.00000000000E+00 -0.17972233086E+03  0.17972233086E+03  0.00000000000E+00 0. -1.
         25    1    1    2    0    0  0.99768969232E+02  0.22271712873E+03 -0.18925299914E+02  0.27484529035E+03  0.12500000000E+03 0.  0.
         21    1    1    2  503  502 -0.77481098352E+02 -0.19326198749E+03  0.32955707936E+03  0.38982224791E+03  0.00000000000E+00 0. -1.
         21    1    1    2  504  503 -0.22287870880E+02 -0.29455141246E+02  0.12341673786E+03  0.12882564076E+03  0.00000000000E+00 0. -1.
<mgrwt>
<rscale>  4 0.27419294E+03</rscale>
<asrwt>0</asrwt>
<pdfrwt beam="1">  1       21 0.94426283E-01 0.27419294E+03</pdfrwt>
<pdfrwt beam="2">  1       21 0.27649590E-01 0.27419294E+03</pdfrwt>
<totfact> 0.11176579E+04</totfact>
</mgrwt>
</event>
<event>
 5    0  0.1467858E+000  0.2701096E+03  0.7546771E-02  0.1101217E+00
         21   -1    0    0  504  501  0.00000000000E+00  0.00000000000E+00  0.24005057289E+03  0.24005057289E+03  0.00000000000E+00 0.  1.
         21   -1    0    0  501  502 -0.00000000000E+00 -0.00000000000E+00 -0.41612095029E+03  0.41612095029E+03  0.00000000000E+00 0.  1.
         25    1    1    2    0    0  0.21452358768E+03 -0.13204550973E+03 -0.22999855353E+03  0.36329150959E+03  0.12500000000E+03 0.  0.
         21    1    1    2  503  502 -0.15166773227E+03  0.15874816641E+03  0.42783753242E+02  0.22368399784E+03  0.00000000000E+00 0.  1.
         21    1    1    2  504  503 -0.62855855417E+02 -0.26702656673E+02  0.11144422895E+02  0.69196015747E+02  0.00000000000E+00 0. -1.
<mgrwt>
<rscale>  4 0.27010962E+03</rscale>
<asrwt>0</asrwt>
<pdfrwt beam="1">  1       21 0.36930858E-01 0.27010962E+03</pdfrwt>
<pdfrwt beam="2">  1       21 0.64018607E-01 0.27010962E+03</pdfrwt>
<totfact> 0.15262155E+04</totfact>
</mgrwt>
</event>
<event>
 5    0  0.1467858E+000  0.4419464E+03  0.7546771E-02  0.1030151E+00
         21   -1    0    0  504  501  0.00000000000E+00  0.00000000000E+00  0.13199455767E+04  0.13199455767E+04  0.00000000000E+00 0.  1.
         21   -1    0    0  501  502 -0.00000000000E+00 -0.00000000000E+00 -0.16871403717E+03  0.16871403717E+03  0.00000000000E+00 0.  1.
         25    1    1    2    0    0  0.24236435558E+03 -0.36712034138E+03  0.50971213148E+03  0.68479871706E+03  0.12500000000E+03 0.  0.
         21    1    1    2  503  502 -0.24833392312E+02  0.16018814624E+02 -0.11063697749E+02  0.31554796839E+02  0.00000000000E+00 0.  1.
         21    1    1    2  504  503 -0.21753096327E+03  0.35110152676E+03  0.65258310582E+03  0.77230609999E+03  0.00000000000E+00 0.  1.
<mgrwt>
<rscale>  4 0.44194640E+03</rscale>
<asrwt>0</asrwt>
<pdfrwt beam="1">  1       21 0.20306854E+00 0.44194640E+03</pdfrwt>
<pdfrwt beam="2">  1       21 0.25956007E-01 0.44194640E+03</pdfrwt>
<totfact> 0.15260461E+03</totfact>
</mgrwt>
</event>
<event>
 5    0  0.1467858E+000  0.2512585E+03  0.7546771E-02  0.1112512E+00
         21   -1    0    0  504  501  0.00000000000E+00  0.00000000000E+00  0.62580836279E+02  0.62580836279E+02  0.00000000000E+00 0. -1.
         21   -1    0    0  501  502 -0.00000000000E+00 -0.00000000000E+00 -0.11253429257E+04  0.11253429257E+04  0.00000000000E+00 0. -1.
         25    1    1    2    0    0 -0.11254926548E+03  0.18665066934E+03 -0.29202058161E+03  0.38523606997E+03  0.12500000000E+03 0.  0.
         21    1    1    2  503  502  0.11681812279E+03 -0.16545658302E+03 -0.70072975109E+03  0.72941383229E+03  0.00000000000E+00 0. -1.
         21    1    1    2  504  503 -0.42688573148E+01 -0.21194086319E+02 -0.70011756690E+02  0.73273859681E+02  0.00000000000E+00 0. -1.
<mgrwt>
<rscale>  4 0.25125845E+03</rscale>
<asrwt>0</asrwt>
<pdfrwt beam="1">  1       21 0.96278219E-02 0.25125845E+03</pdfrwt>
<pdfrwt beam="2">  1       21 0.17312966E+00 0.25125845E+03</pdfrwt>
<totfact> 0.16938029E+04</totfact>
</mgrwt>
</event>
<event>
 5    0  0.1467858E+000  0.2179878E+03  0.7546771E-02  0.1135392E+00
         21   -1    0    0  504  501  0.00000000000E+00  0.00000000000E+00  0.22018704643E+03  0.22018704643E+03  0.00000000000E+00 0. -1.
         21   -1    0    0  501  502 -0.00000000000E+00 -0.00000000000E+00 -0.33260700618E+03  0.33260700618E+03  0.00000000000E+00 0. -1.
         25    1    1    2    0    0  0.16074707970E+03  0.16493500311E+03 -0.11377743000E+03  0.28568073519E+03  0.12500000000E+03 0.  0.
         21    1    1    2  503  502 -0.81366265734E+02 -0.38515475601E+02  0.58405126548E+02  0.10730829356E+03  0.00000000000E+00 0. -1.
         21    1    1    2  504  503 -0.79380813967E+02 -0.12641952751E+03 -0.57047656292E+02  0.15980502386E+03  0.00000000000E+00 0. -1.
<mgrwt>
<rscale>  4 0.21798785E+03</rscale>
<asrwt>0</asrwt>
<pdfrwt beam="1">  1       21 0.33874930E-01 0.21798785E+03</pdfrwt>
<pdfrwt beam="2">  1       21 0.51170308E-01 0.21798785E+03</pdfrwt>
<totfact> 0.30069957E+04</totfact>
</mgrwt>
</event>
<event>
 5    0  0.1467858E+000  0.2399843E+03  0.7546771E-02  0.1119803E+00
         21   -1    0    0  504  501  0.00000000000E+00  0.00000000000E+00  0.15274988700E+04  0.15274988700E+04  0.00000000000E+00 0.  1.
         21   -1    0    0  501  502 -0.00000000000E+00 -0.00000000000E+00 -0.21017183433E+03  0.21017183433E+03  0.00000000000E+00 0.  1.
         25    1    1    2    0    0 -0.11927888538E+03  0.17164366033E+03 -0.11747559731E+03  0.27039695744E+03  0.12500000000E+03 0.  0.
         21    1    1    2  503  502  0.23434678116E+02 -0.76684988985E+02  0.11275749007E+03  0.13836192844E+03  0.00000000000E+00 0. -1.
         21    1    1    2  504  503  0.95844207264E+02 -0.94958671341E+02  0.13220451429E+04  0.13289118184E+04  0.00000000000E+00 0.  1.
<mgrwt>
<rscale>  4 0.23998433E+03</rscale>
<asrwt>0</asrwt>
<pdfrwt beam="1">  1       21 0.23499982E+00 0.23998433E+03</pdfrwt>
<pdfrwt beam="2">  1       21 0.32334129E-01 0.23998433E+03</pdfrwt>
<totfact> 0.71197929E+02</totfact>
</mgrwt>
</event>
<event>
 5    0  0.1467858E+000  0.2287214E+03  0.7546771E-02  0.1127543E+00
         21   -1    0    0  504  501  0.00000000000E+00  0.00000000000E+00  0.43024326129E+03  0.43024326129E+03  0.00000000000E+00 0.  1.
         21   -1    0    0  501  502 -0.00000000000E+00 -0.00000000000E+00 -0.15757348916E+03  0.15757348916E+03  0.00000000000E+00 0.  1.
         25    1    1    2    0    0  0.20803096793E+03 -0.55511579714E+02  0.10259771741E+03  0.26927627211E+03  0.12500000000E+03 0.  0.
         21    1    1    2  503  502 -0.17827011203E+03 -0.24103035374E+02  0.87513469513E+02  0.20004948514E+03  0.00000000000E+00 0.  1.
         21    1    1    2  504  503 -0.29760855902E+02  0.79614615088E+02  0.82558585211E+02  0.11849099321E+03  0.00000000000E+00 0. -1.
<mgrwt>
<rscale>  4 0.22872141E+03</rscale>
<asrwt>0</asrwt>
<pdfrwt beam="1">  1       21 0.66191270E-01 0.22872141E+03</pdfrwt>
<pdfrwt beam="2">  1       21 0.24242075E-01 0.22872141E+03</pdfrwt>
<totfact> 0.33026444E+04</totfact>
</mgrwt>
</event>
<event>
 5    0  0.1467858E+000  0.3732500E+03  0.7546771E-02  0.1053457E+00
         21   -1    0    0  504  501  0.00000000000E+00  0.00000000000E+00  0.10624855344E+04  0.10624855344E+04  0.00000000000E+00 0. -1.
         21   -1    0    0  501  502 -0.00000000000E+00 -0.00000000000E+00 -0.14639157949E+03  0.14639157949E+03  0.00000000000E+00 0. -1.
         25    1    1    2    0    0 -0.33116120577E+03 -0.11841799228E+03  0.24355162338E+03  0.44568257578E+03  0.12500000000E+03 0.  0.
         21    1    1    2  503  502  0.10032456655E+03  0.45745156815E+02  0.29302058533E+03  0.31307938523E+03  0.00000000000E+00 0. -1.
         21    1    1    2  504  503  0.23083663921E+03  0.72672835465E+02  0.37952174624E+03  0.45011515292E+03  0.00000000000E+00 0. -1.
<mgrwt>
<rscale>  4 0.37325000E+03</rscale>
<asrwt>0</asrwt>
<pdfrwt beam="1">  1       21 0.16345931E+00 0.37325000E+03</pdfrwt>
<pdfrwt beam="2">  1       21 0.22521782E-01 0.37325000E+03</pdfrwt>
<totfact> 0.39123810E+03</totfact>
</mgrwt>
</event>
<event>
 5    0  0.1467858E+000  0.2742046E+03  0.7546771E-02  0.1098897E+00
         21   -1    0    0  504  501  0.00000000000E+00  0.00000000000E+00  0.22489865264E+03  0.22489865264E+03  0.00000000000E+00 0. -1.
         21   -1    0    0  501  502 -0.00000000000E+00 -0.00000000000E+00 -0.34008525539E+03  0.34008525539E+03  0.00000000000E+00 0. -1.
         25    1    1    2    0    0 -0.12164442526E+02 -0.24375227499E+03 -0.15429500160E+02  0.27463833436E+03  0.12500000000E+03 0.  0.
         21    1    1    2  503  502  0.52639257259E+02  0.12361980853E+03 -0.92983200180E+02  0.16339713578E+03  0.00000000000E+00 0. -1.
         21    1    1    2  504  503 -0.40474814733E+02  0.12013246647E+03 -0.67739024071E+01  0.12694843788E+03  0.00000000000E+00 0. -1.
<mgrwt>
<rscale>  4 0.27420457E+03</rscale>
<asrwt>0</asrwt>
<pdfrwt beam="1">  1       21 0.34599793E-01 0.27420457E+03</pdfrwt>
<pdfrwt beam="2">  1       21 0.52320809E-01 0.27420457E+03</pdfrwt>
<totfact> 0.26810690E+04</totfact>
</mgrwt>
</event>
<event>
 5    0  0.1467858E+000  0.2737989E+03  0.7546771E-02  0.1099125E+00
         21   -1    0    0  504  501  0.00000000000E+00  0.00000000000E+00  0.68872475196E+03  0.68872475196E+03  0.00000000000E+00 0.  1.
         21   -1    0    0  501  502 -0.00000000000E+00 -0.00000000000E+00 -0.11480012931E+03  0.11480012931E+03  0.00000000000E+00 0.  1.
         25    1    1    2    0    0  0.11655960480E+03  0.21390348508E+03  0.14645505758E+03  0.31050753017E+03  0.12500000000E+03 0.  0.
         21    1    1    2  503  502 -0.35109067603E+01 -0.20402076928E+02  0.48675176079E+02  0.52894649783E+02  0.00000000000E+00 0.  1.
         21    1    1    2  504  503 -0.11304869804E+03 -0.19350140816E+03  0.37879438899E+03  0.44012270132E+03  0.00000000000E+00 0.  1.
<mgrwt>
<rscale>  4 0.27379891E+03</rscale>
<asrwt>0</asrwt>
<pdfrwt beam="1">  1       21 0.10595765E+00 0.27379891E+03</pdfrwt>
<pdfrwt beam="2">  1       21 0.17661559E-01 0.27379891E+03</pdfrwt>
<totfact> 0.19892376E+04</totfact>
</mgrwt>
</event>
<event>
 5    0  0.1467858E+000  0.2429564E+03  0.7546771E-02  0.1117839E+00
         21   -1    0    0  504  501  0.00000000000E+00  0.00000000000E+00  0.10684696111E+03  0.10684696111E+03  0.00000000000E+00 0.  1.
         21   -1    0    0  501  502 -0.00000000000E+00 -0.00000000000E+00 -0.50464272165E+03  0.50464272165E+03  0.00000000000E+00 0.  1.
         25    1    1    2    0    0  0.17383351065E+03  0.11482469918E+03 -0.25528369679E+03  0.35241675161E+03  0.12500000000E+03 0.  0.
         21    1    1    2  503  502 -0.65203156815E+02 -0.71189514848E+02 -0.85077149908E+02  0.12867602776E+03  0.00000000000E+00 0.  1.
         21    1    1    2  504  503 -0.10863035384E+03 -0.43635184329E+02 -0.57434913842E+02  0.13039690339E+03  0.00000000000E+00 0.  1.
<mgrwt>
<rscale>  4 0.24295638E+03</rscale>
<asrwt>0</asrwt>
<pdfrwt beam="1">  1       21 0.16437994E-01 0.24295638E+03</pdfrwt>
<pdfrwt beam="2">  1       21 0.77637344E-01 0.24295638E+03</pdfrwt>
<totfact> 0.47699010E+04</totfact>
</mgrwt>
</event>
<event>
 5    0  0.1467858E+000  0.2905828E+03  0.7546771E-02  0.1090045E+00
         21   -1    0    0  504  501  0.00000000000E+00  0.00000000000E+00  0.50697266582E+02  0.50697266582E+02  0.00000000000E+00 0. -1.
         21   -1    0    0  501  502 -0.00000000000E+00 -0.00000000000E+00 -0.15405995181E+04  0.15405995181E+04  0.00000000000E+00 0. -1.
         25    1    1    2    0    0  0.24687162684E+03 -0.88700294168E+02 -0.73437013326E+03  0.78977074835E+03  0.12500000000E+03 0.  0.
         21    1    1    2  503  502 -0.16441370468E+03  0.78651830282E+02 -0.46806111566E+03  0.50229392261E+03  0.00000000000E+00 0. -1.
         21    1    1    2  504  503 -0.82457922159E+02  0.10048463886E+02 -0.28747100264E+03  0.29923211377E+03  0.00000000000E+00 0. -1.
<mgrwt>
<rscale>  4 0.29058276E+03</rscale>
<asrwt>0</asrwt>
<pdfrwt beam="1">  1       21 0.77995798E-02 0.29058276E+03</pdfrwt>
<pdfrwt beam="2">  1       21 0.23701530E+00 0.29058276E+03</pdfrwt>
<totfact> 0.92351719E+03</totfact>
</mgrwt>
</event>
<event>
 5    0  0.1467858E+000  0.2598335E+03  0.7546771E-02  0.1107243E+00
         21   -1    0    0  504  501  0.00000000000E+00  0.00000000000E+00  0.23300900329E+03  0.23300900329E+03  0.00000000000E+00 0.  1.
         21   -1    0    0  501  502 -0.00000000000E+00 -0.00000000000E+00 -0.40200543654E+03  0.40200543654E+03  0.00000000000E+00 0.  1.
         25    1    1    2    0    0 -0.22763856456E+03  0.83151916212E+01 -0.27683267547E+03  0.37967063185E+03  0.12500000000E+03 0.  0.
         21    1    1    2  503  502  0.16789772197E+03 -0.18764722593E+02  0.64647625593E+02  0.18088967729E+03  0.00000000000E+00 0.  1.
         21    1    1    2  504  503  0.59740842592E+02  0.10449530972E+02  0.43188616624E+02  0.74454130691E+02  0.00000000000E+00 0.  1.
<mgrwt>
<rscale>  4 0.25983352E+03</rscale>
<asrwt>0</asrwt>
<pdfrwt beam="1">  1       21 0.35847539E-01 0.25983352E+03</pdfrwt>
<pdfrwt beam="2">  1       21 0.61846990E-01 0.25983352E+03</pdfrwt>
<totfact> 0.17555698E+04</totfact>
</mgrwt>
</event>
<event>
 5    0  0.1467858E+000  0.2681530E+03  0.7546771E-02  0.1102341E+00
         21   -1    0    0  504  501  0.00000000000E+00  0.00000000000E+00  0.14514252845E+03  0.14514252845E+03  0.00000000000E+00 0. -1.
         21   -1    0    0  501  502 -0.00000000000E+00 -0.00000000000E+00 -0.46700559166E+03  0.46700559166E+03  0.00000000000E+00 0. -1.
         25    1    1    2    0    0 -0.20099757638E+03 -0.12601981344E+03 -0.18864762586E+03  0.32786269356E+03  0.12500000000E+03 0.  0.
         21    1    1    2  503  502  0.44212875116E+02  0.50779144013E+02 -0.36624793379E+01  0.67429322609E+02  0.00000000000E+00 0. -1.
         21    1    1    2  504  503  0.15678470126E+03  0.75240669425E+02 -0.12955295801E+03  0.21685610393E+03  0.00000000000E+00 0. -1.
<mgrwt>
<rscale>  4 0.26815298E+03</rscale>
<asrwt>0</asrwt>
<pdfrwt beam="1">  1       21 0.22329620E-01 0.26815298E+03</pdfrwt>
<pdfrwt beam="2">  1       21 0.71847012E-01 0.26815298E+03</pdfrwt>
<totfact> 0.31659541E+04</totfact>
</mgrwt>
</event>
<event>
 5    0  0.1467858E+000  0.2727077E+03  0.7546771E-02  0.1099740E+00
         21   -1    0    0  504  501  0.00000000000E+00  0.00000000000E+00  0.65649065803E+03  0.65649065803E+03  0.00000000000E+00 0.  1.
         21   -1    0    0  501  502 -0.00000000000E+00 -0.00000000000E+00 -0.11347304486E+03  0.11347304486E+03  0.00000000000E+00 0.  1.
         25    1    1    2    0    0 -0.16595292080E+02  0.24180381460E+03  0.16670097782E+03  0.31962275338E+03  0.12500000000E+03 0.  0.
         21    1    1    2  503  502 -0.13683331150E+02 -0.14877945248E+03  0.22006001709E+03  0.26598678568E+03  0.00000000000E+00 0.  1.
         21    1    1    2  504  503  0.30278623230E+02 -0.93024362122E+02  0.15625661826E+03  0.18435416384E+03  0.00000000000E+00 0.  1.
<mgrwt>
<rscale>  4 0.27270770E+03</rscale>
<asrwt>0</asrwt>
<pdfrwt beam="1">  1       21 0.10099856E+00 0.27270770E+03</pdfrwt>
<pdfrwt beam="2">  1       21 0.17457392E-01 0.27270770E+03</pdfrwt>
<totfact> 0.22838315E+04</totfact>
</mgrwt>
</event>
<event>
 5    0  0.1467858E+000  0.2521560E+03  0.7546771E-02  0.1111950E+00
         21   -1    0    0  504  501  0.00000000000E+00  0.00000000000E+00  0.89741127928E+03  0.89741127928E+03  0.00000000000E+00 0. -1.
         21   -1    0    0  501  502 -0.00000000000E+00 -0.00000000000E+00 -0.84014812251E+02  0.84014812251E+02  0.00000000000E+00 0. -1.
         25    1    1    2    0    0  0.38058306862E+02 -0.21566000647E+03  0.66637364176E+03  0.71248614270E+03  0.12500000000E+03 0.  0.
         21    1    1    2  503  502 -0.12693961224E+02  0.41665927574E+02  0.68934386178E+01  0.44098817083E+02  0.00000000000E+00 0.  1.
         21    1    1    2  504  503 -0.25364345638E+02  0.17399407890E+03  0.14012938665E+03  0.22484113174E+03  0.00000000000E+00 0. -1.
<mgrwt>
<rscale>  4 0.25215605E+03</rscale>
<asrwt>0</asrwt>
<pdfrwt beam="1">  1       21 0.13806327E+00 0.25215605E+03</pdfrwt>
<pdfrwt beam="2">  1       21 0.12925356E-01 0.25215605E+03</pdfrwt>
<totfact> 0.18379466E+04</totfact>
</mgrwt>
</event>
<event>
 5    0  0.1467858E+000  0.2374283E+03  0.7546771E-02  0.1121518E+00
         21   -1    0    0  504  501  0.00000000000E+00  0.00000000000E+00  0.27778575871E+03  0.27778575871E+03  0.00000000000E+00 0. -1.
         21   -1    0    0  501  502 -0.00000000000E+00 -0.00000000000E+00 -0.98006935557E+03  0.98006935557E+03  0.00000000000E+00 0. -1.
         25    1    1    2    0    0  0.11104272804E+03  0.17125357237E+03 -0.90880710651E+03  0.93979446176E+03  0.12500000000E+03 0.  0.
         21    1    1    2  503  502  0.21398741526E+02 -0.54929369922E+02  0.22132122336E+02  0.62968028857E+02  0.00000000000E+00 0.  1.
         21    1    1    2  504  503 -0.13244146957E+03 -0.11632420245E+03  0.18439138731E+03  0.25509262367E+03  0.00000000000E+00 0. -1.
<mgrwt>
<rscale>  4 0.23742832E+03</rscale>
<asrwt>0</asrwt>
<pdfrwt beam="1">  1       21 0.42736271E-01 0.23742832E+03</pdfrwt>
<pdfrwt beam="2">  1       21 0.15077990E+00 0.23742832E+03</pdfrwt>
<totfact> 0.14903283E+03</totfact>
</mgrwt>
</event>
<event>
 5    0  0.1467858E+000  0.2709768E+03  0.7546771E-02  0.1100722E+00
         21   -1    0    0  504  501  0.00000000000E+00  0.00000000000E+00  0.39915956161E+03  0.39915956161E+03  0.00000000000E+00 0.  1.
         21   -1    0    0  501  502 -0.00000000000E+00 -0.00000000000E+00 -0.31575545466E+03  0.31575545466E+03  0.00000000000E+00 0.  1.
         25    1    1    2    0    0  0.23926936113E+03  0.23528424678E+02 -0.20297186784E+03  0.33856460695E+03  0.12500000000E+03 0.  0.
         21    1    1    2  503  502 -0.21659319312E+03 -0.22256445324E+02  0.27554559263E+03  0.35118845977E+03  0.00000000000E+00 0.  1.
         21    1    1    2  504  503 -0.22676168008E+02 -0.12719793543E+01  0.10830382166E+02  0.25161949544E+02  0.00000000000E+00 0.  1.
<mgrwt>
<rscale>  4 0.27097678E+03</rscale>
<asrwt>0</asrwt>
<pdfrwt beam="1">  1       21 0.61409164E-01 0.27097678E+03</pdfrwt>
<pdfrwt beam="2">  1       21 0.48577762E-01 0.27097678E+03</pdfrwt>
<totfact> 0.95149703E+03</totfact>
</mgrwt>
</event>
<event>
 5    0  0.1467858E+000  0.2825836E+03  0.7546771E-02  0.1094286E+00
         21   -1    0    0  504  501  0.00000000000E+00  0.00000000000E+00  0.11861777757E+03  0.11861777757E+03  0.00000000000E+00 0. -1.
         21   -1    0    0  501  502 -0.00000000000E+00 -0.00000000000E+00 -0.68720616674E+03  0.68720616674E+03  0.00000000000E+00 0. -1.
         25    1    1    2    0    0 -0.74284130853E+02  0.24230226202E+03 -0.41253971813E+03  0.50004253550E+03  0.12500000000E+03 0.  0.
         21    1    1    2  503  502 -0.10468287161E+02 -0.62017301504E+02 -0.48267497104E+02  0.79281031771E+02  0.00000000000E+00 0.  1.
         21    1    1    2  504  503  0.84752418014E+02 -0.18028496051E+03 -0.10778117393E+03  0.22650037704E+03  0.00000000000E+00 0. -1.
<mgrwt>
<rscale>  4 0.28258365E+03</rscale>
<asrwt>0</asrwt>
<pdfrwt beam="1">  1       21 0.18248889E-01 0.28258365E+03</pdfrwt>
<pdfrwt beam="2">  1       21 0.10572403E+00 0.28258365E+03</pdfrwt>
<totfact> 0.18741284E+04</totfact>
</mgrwt>
</event>
<event>
 5    0  0.1467858E+000  0.2826923E+03  0.7546771E-02  0.1094227E+00
         21   -1    0    0  504  501  0.00000000000E+00  0.00000000000E+00  0.22934676377E+03  0.22934676377E+03  0.00000000000E+00 0. -1.
         21   -1    0    0  501  502 -0.00000000000E+00 -0.00000000000E+00 -0.54721977938E+03  0.54721977938E+03  0.00000000000E+00 0. -1.
         25    1    1    2    0    0 -0.17089227891E+03 -0.19143089605E+03 -0.39641904701E+03  0.48849055240E+03  0.12500000000E+03 0.  0.
         21    1    1    2  503  502 -0.97397754562E+01  0.28395255312E+02 -0.57407884977E+01  0.30563219770E+02  0.00000000000E+00 0. -1.
         21    1    1    2  504  503  0.18063205436E+03  0.16303564074E+03  0.84286819895E+02  0.25751277099E+03  0.00000000000E+00 0. -1.
<mgrwt>
<rscale>  4 0.28269231E+03</rscale>
<asrwt>0</asrwt>
<pdfrwt beam="1">  1       21 0.35284117E-01 0.28269231E+03</pdfrwt>
<pdfrwt beam="2">  1       21 0.84187659E-01 0.28269231E+03</pdfrwt>
<totfact> 0.89870972E+03</totfact>
</mgrwt>
</event>
<event>
 5    0  0.1467858E+000  0.2634818E+03  0.7546771E-02  0.1105069E+00
         21   -1    0    0  504  501  0.00000000000E+00  0.00000000000E+00  0.47657168765E+03  0.47657168765E+03  0.00000000000E+00 0. -1.
         21   -1    0    0  501  502 -0.00000000000E+00 -0.00000000000E+00 -0.58575124814E+03  0.58575124814E+03  0.00000000000E+00 0.  1.
         25    1    1    2    0    0 -0.20377871682E+03  0.11077859823E+03 -0.51978047681E+03  0.58274729286E+03  0.12500000000E+03 0.  0.
         21    1    1    2  503  502  0.43176816170E+02 -0.44448011625E+02  0.51230245953E+02  0.80401500560E+02  0.00000000000E+00 0.  1.
         21    1    1    2  504  503  0.16060190065E+03 -0.66330586604E+02  0.35937067037E+03  0.39917414237E+03  0.00000000000E+00 0. -1.
<mgrwt>
<rscale>  4 0.26348181E+03</rscale>
<asrwt>0</asrwt>
<pdfrwt beam="1">  1       21 0.73318722E-01 0.26348181E+03</pdfrwt>
<pdfrwt beam="2">  1       21 0.90115576E-01 0.26348181E+03</pdfrwt>
<totfact> 0.16539729E+03</totfact>
</mgrwt>
</event>
<event>
 5    0  0.1467858E+000  0.3159696E+03  0.7546771E-02  0.1077519E+00
         21   -1    0    0  504  501  0.00000000000E+00  0.00000000000E+00  0.52838702576E+02  0.52838702576E+02  0.00000000000E+00 0.  1.
         21   -1    0    0  501  502 -0.00000000000E+00 -0.00000000000E+00 -0.20381329071E+04  0.20381329071E+04  0.00000000000E+00 0.  1.
         25    1    1    2    0    0  0.30156583147E+03 -0.54186863574E+02 -0.11482563041E+04  0.11949877433E+04  0.12500000000E+03 0.  0.
         21    1    1    2  503  502 -0.27580710115E+02 -0.66525684955E+01 -0.16930715241E+03  0.17166788895E+03  0.00000000000E+00 0.  1.
         21    1    1    2  504  503 -0.27398512135E+03  0.60839432070E+02 -0.66773074801E+03  0.72431597736E+03  0.00000000000E+00 0.  1.
<mgrwt>
<rscale>  4 0.31596960E+03</rscale>
<asrwt>0</asrwt>
<pdfrwt beam="1">  1       21 0.81290308E-02 0.31596960E+03</pdfrwt>
<pdfrwt beam="2">  1       21 0.31355892E+00 0.31596960E+03</pdfrwt>
<totfact> 0.29561538E+03</totfact>
</mgrwt>
</event>
<event>
 5    0  0.1467858E+000  0.2449196E+03  0.7546771E-02  0.1116558E+00
         21   -1    0    0  504  501  0.00000000000E+00  0.00000000000E+00  0.26709876583E+03  0.26709876583E+03  0.00000000000E+00 0.  1.
         21   -1    0    0  501  502 -0.00000000000E+00 -0.00000000000E+00 -0.93064235754E+03  0.93064235754E+03  0.00000000000E+00 0.  1.
         25    1    1    2    0    0 -0.95202219925E+02  0.18787533732E+03 -0.86226444710E+03  0.89637357267E+03  0.12500000000E+03 0.  0.
         21    1    1    2  503  502  0.78370721323E+01 -0.54726266992E+02  0.13141470288E+02  0.56825014209E+02  0.00000000000E+00 0.  1.
         21    1    1    2  504  503  0.87365147793E+02 -0.13314907033E+03  0.18557938510E+03  0.24454253649E+03  0.00000000000E+00 0.  1.
<mgrwt>
<rscale>  4 0.24491959E+03</rscale>
<asrwt>0</asrwt>
<pdfrwt beam="1">  1       21 0.41092118E-01 0.24491959E+03</pdfrwt>
<pdfrwt beam="2">  1       21 0.14317575E+00 0.24491959E+03</pdfrwt>
<totfact> 0.18402989E+03</totfact>
</mgrwt>
</event>
<event>
 5    0  0.1467858E+000  0.2224680E+03  0.7546771E-02  0.1132056E+00
         21   -1    0    0  504  501  0.00000000000E+00  0.00000000000E+00  0.37133476554E+03  0.37133476554E+03  0.00000000000E+00 0.  1.
         21   -1    0    0  501  502 -0.00000000000E+00 -0.00000000000E+00 -0.23973600532E+03  0.23973600532E+03  0.00000000000E+00 0.  1.
         25    1    1    2    0    0 -0.19202541348E+03  0.80648498687E+02 -0.98954374823E+02  0.26228783437E+03  0.12500000000E+03 0.  0.
         21    1    1    2  503  502  0.67087756265E+02  0.82614333193E+01  0.17171169740E+03  0.18453705683E+03  0.00000000000E+00 0.  1.
         21    1    1    2  504  503  0.12493765722E+03 -0.88909932006E+02  0.58841437641E+02  0.16424587966E+03  0.00000000000E+00 0.  1.
<mgrwt>
<rscale>  4 0.22246801E+03</rscale>
<asrwt>0</asrwt>
<pdfrwt beam="1">  1       21 0.57128426E-01 0.22246801E+03</pdfrwt>
<pdfrwt beam="2">  1       21 0.36882462E-01 0.22246801E+03</pdfrwt>
<totfact> 0.20052904E+04</totfact>
</mgrwt>
</event>
<event>
 5    0  0.1467858E+000  0.4227375E+03  0.7546771E-02  0.1036179E+00
         21   -1    0    0  504  501  0.00000000000E+00  0.00000000000E+00  0.23520838484E+03  0.23520838484E+03  0.00000000000E+00 0. -1.
         21   -1    0    0  501  502 -0.00000000000E+00 -0.00000000000E+00 -0.92071706735E+03  0.92071706735E+03  0.00000000000E+00 0. -1.
         25    1    1    2    0    0 -0.36073118060E+03  0.19424461561E+03 -0.55994424861E+03  0.70499682049E+03  0.12500000000E+03 0.  0.
         21    1    1    2  503  502  0.36135639397E+03 -0.15420159456E+03 -0.11031863716E+03  0.40807692526E+03  0.00000000000E+00 0. -1.
         21    1    1    2  504  503 -0.62521336752E+00 -0.40043021046E+02 -0.15245796739E+02  0.42851706436E+02  0.00000000000E+00 0. -1.
<mgrwt>
<rscale>  4 0.42273751E+03</rscale>
<asrwt>0</asrwt>
<pdfrwt beam="1">  1       21 0.36185906E-01 0.42273751E+03</pdfrwt>
<pdfrwt beam="2">  1       21 0.14164878E+00 0.42273751E+03</pdfrwt>
<totfact> 0.22204899E+03</totfact>
</mgrwt>
</event>
<event>
 5    0  0.1467858E+000  0.3756430E+03  0.7546771E-02  0.1052556E+00
         21   -1    0    0  504  501  0.00000000000E+00  0.00000000000E+00  0.29956571379E+03  0.29956571379E+03  0.00000000000E+00 0. -1.
         21   -1    0    0  501  502 -0.00000000000E+00 -0.00000000000E+00 -0.73463169027E+03  0.73463169027E+03  0.00000000000E+00 0. -1.
         25    1    1    2    0    0  0.26628759414E+03 -0.23820421398E+03 -0.53304096770E+03  0.65376448634E+03  0.12500000000E+03 0.  0.
         21    1    1    2  503  502 -0.24476085493E+03  0.24011868925E+03  0.10344063274E+03  0.35814079010E+03  0.00000000000E+00 0. -1.
         21    1    1    2  504  503 -0.21526739206E+02 -0.19144752614E+01 -0.54656415232E+01  0.22292127616E+02  0.00000000000E+00 0.  1.
<mgrwt>
<rscale>  4 0.37564299E+03</rscale>
<asrwt>0</asrwt>
<pdfrwt beam="1">  1       21 0.46087033E-01 0.37564299E+03</pdfrwt>
<pdfrwt beam="2">  1       21 0.11302026E+00 0.37564299E+03</pdfrwt>
<totfact> 0.24585658E+03</totfact>
</mgrwt>
</event>
<event>
 5    0  0.1467858E+000  0.2475989E+03  0.7546771E-02  0.1114832E+00
         21   -1    0    0  504  501  0.00000000000E+00  0.00000000000E+00  0.30811027979E+03  0.30811027979E+03  0.00000000000E+00 0.  1.
         21   -1    0    0  501  502 -0.00000000000E+00 -0.00000000000E+00 -0.51097989748E+03  0.51097989748E+03  0.00000000000E+00 0.  1.
         25    1    1    2    0    0  0.15770181044E+03 -0.14425798730E+03 -0.43470973060E+03  0.50027770068E+03  0.12500000000E+03 0.  0.
         21    1    1    2  503  502 -0.10416999095E+03  0.11497799614E+03  0.14273754087E+03  0.21082061613E+03  0.00000000000E+00 0.  1.
         21    1    1    2  504  503 -0.53531819487E+02  0.29279991163E+02  0.89102572041E+02  0.10799186045E+03  0.00000000000E+00 0.  1.
<mgrwt>
<rscale>  4 0.24759893E+03</rscale>
<asrwt>0</asrwt>
<pdfrwt beam="1">  1       21 0.47401582E-01 0.24759893E+03</pdfrwt>
<pdfrwt beam="2">  1       21 0.78612291E-01 0.24759893E+03</pdfrwt>
<totfact> 0.58642201E+03</totfact>
</mgrwt>
</event>
<event>
 5    0  0.1467858E+000  0.2695950E+03  0.7546771E-02  0.1101512E+00
         21   -1    0    0  504  501  0.00000000000E+00  0.00000000000E+00  0.32531218770E+03  0.32531218770E+03  0.00000000000E+00 0. -1.
         21   -1    0    0  501  502 -0.00000000000E+00 -0.00000000000E+00 -0.76068587963E+03  0.76068587963E+03  0.00000000000E+00 0. -1.
         25    1    1    2    0    0  0.22627990402E+03 -0.76510540790E+02 -0.67912810976E+03  0.73068217939E+03  0.12500000000E+03 0.  0.
         21    1    1    2  503  502 -0.18237219753E+03  0.48039437576E+02  0.12699485769E+03  0.22736556440E+03  0.00000000000E+00 0. -1.
         21    1    1    2  504  503 -0.43907706483E+02  0.28471103214E+02  0.11675956015E+03  0.12795032353E+03  0.00000000000E+00 0. -1.
<mgrwt>
<rscale>  4 0.26959499E+03</rscale>
<asrwt>0</asrwt>
<pdfrwt beam="1">  1       21 0.50048030E-01 0.26959499E+03</pdfrwt>
<pdfrwt beam="2">  1       21 0.11702860E+00 0.26959499E+03</pdfrwt>
<totfact> 0.20100973E+03</totfact>
</mgrwt>
</event>
<event>
 5    0  0.1467858E+000  0.4205259E+03  0.7546771E-02  0.1036895E+00
         21   -1    0    0  504  501  0.00000000000E+00  0.00000000000E+00  0.14907254155E+03  0.14907254155E+03  0.00000000000E+00 0. -1.
         21   -1    0    0  501  502 -0.00000000000E+00 -0.00000000000E+00 -0.12722334839E+04  0.12722334839E+04  0.00000000000E+00 0. -1.
         25    1    1    2    0    0  0.40052121457E+03  0.28280898891E+02 -0.76103624000E+03  0.86949307712E+03  0.12500000000E+03 0.  0.
         21    1    1    2  503  502 -0.91682146063E+02  0.36057437764E+02 -0.62105580300E+02  0.11645968328E+03  0.00000000000E+00 0. -1.
         21    1    1    2  504  503 -0.30883906851E+03 -0.64338336656E+02 -0.30001912204E+03  0.43535326506E+03  0.00000000000E+00 0. -1.
<mgrwt>
<rscale>  4 0.42052592E+03</rscale>
<asrwt>0</asrwt>
<pdfrwt beam="1">  1       21 0.22934237E-01 0.42052592E+03</pdfrwt>
<pdfrwt beam="2">  1       21 0.19572823E+00 0.42052592E+03</pdfrwt>
<totfact> 0.21924865E+03</totfact>
</mgrwt>
</event>
<event>
 5    0  0.1467858E+000  0.3492629E+03  0.7546771E-02  0.1062918E+00
         21   -1    0    0  504  501  0.00000000000E+00  0.00000000000E+00  0.32315924789E+03  0.32315924789E+03  0.00000000000E+00 0. -1.
         21   -1    0    0  501  502 -0.00000000000E+00 -0.00000000000E+00 -0.38837159226E+03  0.38837159226E+03  0.00000000000E+00 0. -1.
         25    1    1    2    0    0 -0.12318299135E+03  0.30196945755E+03  0.64752845305E+02  0.35521477112E+03  0.12500000000E+03 0.  0.
         21    1    1    2  503  502  0.11627416177E+02 -0.44518485945E+02  0.24124071572E+01  0.46075070331E+02  0.00000000000E+00 0. -1.
         21    1    1    2  504  503  0.11155557518E+03 -0.25745097160E+03 -0.13237759683E+03  0.31024099870E+03  0.00000000000E+00 0. -1.
<mgrwt>
<rscale>  4 0.34926294E+03</rscale>
<asrwt>0</asrwt>
<pdfrwt beam="1">  1       21 0.49716808E-01 0.34926294E+03</pdfrwt>
<pdfrwt beam="2">  1       21 0.59749476E-01 0.34926294E+03</pdfrwt>
<totfact> 0.92907678E+03</totfact>
</mgrwt>
</event>
<event>
 5    0  0.1467858E+000  0.2418695E+03  0.7546771E-02  0.1118554E+00
         21   -1    0    0  504  501  0.00000000000E+00  0.00000000000E+00  0.34775086494E+03  0.34775086494E+03  0.00000000000E+00 0.  1.
         21   -1    0    0  501  502 -0.00000000000E+00 -0.00000000000E+00 -0.21202562728E+03  0.21202562728E+03  0.00000000000E+00 0.  1.
         25    1    1    2    0    0 -0.71209471770E+02 -0.19443527238E+03 -0.77888318428E+02  0.25410126754E+03  0.12500000000E+03 0.  0.
         21    1    1    2  503  502  0.14336885304E+01  0.67810800396E+02  0.36427323813E+02  0.76989025409E+02  0.00000000000E+00 0. -1.
         21    1    1    2  504  503  0.69775783240E+02  0.12662447199E+03  0.17718623227E+03  0.22868619928E+03  0.00000000000E+00 0.  1.
<mgrwt>
<rscale>  4 0.24186952E+03</rscale>
<asrwt>0</asrwt>
<pdfrwt beam="1">  1       21 0.53500133E-01 0.24186952E+03</pdfrwt>
<pdfrwt beam="2">  1       21 0.32619327E-01 0.24186952E+03</pdfrwt>
<totfact> 0.29162792E+04</totfact>
</mgrwt>
</event>
<event>
 5    0  0.1467858E+000  0.3372387E+03  0.7546771E-02  0.1067978E+00
         21   -1    0    0  504  501  0.00000000000E+00  0.00000000000E+00  0.21280239103E+03  0.21280239103E+03  0.00000000000E+00 0. -1.
         21   -1    0    0  501  502 -0.00000000000E+00 -0.00000000000E+00 -0.10420940152E+04  0.10420940152E+04  0.00000000000E+00 0.  1.
         25    1    1    2    0    0 -0.29076585125E+03  0.11644814651E+03 -0.85423861154E+03  0.91839727598E+03  0.12500000000E+03 0.  0.
         21    1    1    2  503  502  0.49945897981E+02  0.25053899773E+02 -0.17968491661E+01  0.55906343879E+02  0.00000000000E+00 0. -1.
         21    1    1    2  504  503  0.24081995327E+03 -0.14150204628E+03  0.26743836502E+02  0.28059278641E+03  0.00000000000E+00 0. -1.
<mgrwt>
<rscale>  4 0.33723872E+03</rscale>
<asrwt>0</asrwt>
<pdfrwt beam="1">  1       21 0.32738830E-01 0.33723872E+03</pdfrwt>
<pdfrwt beam="2">  1       21 0.16032216E+00 0.33723872E+03</pdfrwt>
<totfact> 0.20229264E+03</totfact>
</mgrwt>
</event>
<event>
 5    0  0.1467858E+000  0.2385456E+03  0.7546771E-02  0.1120766E+00
         21   -1    0    0  504  501  0.00000000000E+00  0.00000000000E+00  0.13743705040E+02  0.13743705040E+02  0.00000000000E+00 0.  1.
         21   -1    0    0  501  502 -0.00000000000E+00 -0.00000000000E+00 -0.37815783259E+04  0.37815783259E+04  0.00000000000E+00 0.  1.
         25    1    1    2    0    0  0.34908727127E+02  0.20015091217E+03 -0.21842642526E+04  0.21972515404E+04  0.12500000000E+03 0.  0.
         21    1    1    2  503  502 -0.19012492565E+02 -0.15949874193E+03 -0.14089755272E+04  0.14181020273E+04  0.00000000000E+00 0.  1.
         21    1    1    2  504  503 -0.15896234562E+02 -0.40652170244E+02 -0.17459484108E+03  0.17996846321E+03  0.00000000000E+00 0.  1.
<mgrwt>
<rscale>  4 0.23854561E+03</rscale>
<asrwt>0</asrwt>
<pdfrwt beam="1">  1       21 0.21144148E-02 0.23854561E+03</pdfrwt>
<pdfrwt beam="2">  1       21 0.58178164E+00 0.23854561E+03</pdfrwt>
<totfact> 0.49697237E+02</totfact>
</mgrwt>
</event>
<event>
 5    0  0.1472596E+000  0.2522561E+03  0.7546771E-02  0.1111887E+00
         21   -1    0    0  504  501  0.00000000000E+00  0.00000000000E+00  0.29857907526E+03  0.29857907526E+03  0.00000000000E+00 0. -1.
         21   -1    0    0  501  502 -0.00000000000E+00 -0.00000000000E+00 -0.82307165315E+03  0.82307165315E+03  0.00000000000E+00 0.  1.
         25    1    1    2    0    0 -0.59047914845E+02  0.21154927864E+03 -0.74160358305E+03  0.78347981973E+03  0.12500000000E+03 0.  0.
         21    1    1    2  503  502  0.22368219885E+02 -0.14712485377E+01 -0.11785803773E+02  0.25326014366E+02  0.00000000000E+00 0.  1.
         21    1    1    2  504  503  0.36679694960E+02 -0.21007803010E+03  0.22889680894E+03  0.31284489431E+03  0.00000000000E+00 0. -1.
<mgrwt>
<rscale>  4 0.25225609E+03</rscale>
<asrwt>0</asrwt>
<pdfrwt beam="1">  1       21 0.45935242E-01 0.25225609E+03</pdfrwt>
<pdfrwt beam="2">  1       21 0.12662641E+00 0.25225609E+03</pdfrwt>
<totfact> 0.19966077E+03</totfact>
</mgrwt>
</event>
<event>
 5    0  0.1467858E+000  0.3482572E+03  0.7546771E-02  0.1063333E+00
         21   -1    0    0  504  501  0.00000000000E+00  0.00000000000E+00  0.39488715107E+03  0.39488715107E+03  0.00000000000E+00 0. -1.
         21   -1    0    0  501  502 -0.00000000000E+00 -0.00000000000E+00 -0.41774905848E+03  0.41774905848E+03  0.00000000000E+00 0. -1.
         25    1    1    2    0    0 -0.60092499825E+02  0.31944792878E+03 -0.23018495144E+03  0.41745442818E+03  0.12500000000E+03 0.  0.
         21    1    1    2  503  502  0.16225059325E+02 -0.26907555785E+03  0.16935339131E+03  0.31834804779E+03  0.00000000000E+00 0. -1.
         21    1    1    2  504  503  0.43867440500E+02 -0.50372370928E+02  0.37969652720E+02  0.76833733585E+02  0.00000000000E+00 0. -1.
<mgrwt>
<rscale>  4 0.34825721E+03</rscale>
<asrwt>0</asrwt>
<pdfrwt beam="1">  1       21 0.60751869E-01 0.34825721E+03</pdfrwt>
<pdfrwt beam="2">  1       21 0.64269086E-01 0.34825721E+03</pdfrwt>
<totfact> 0.51513343E+03</totfact>
</mgrwt>
</event>
<event>
 5    0  0.1467858E+000  0.2441243E+03  0.7546771E-02  0.1117075E+00
         21   -1    0    0  504  501  0.00000000000E+00  0.00000000000E+00  0.21980191143E+03  0.21980191143E+03  0.00000000000E+00 0. -1.
         21   -1    0    0  501  502 -0.00000000000E+00 -0.00000000000E+00 -0.26020253354E+04  0.26020253354E+04  0.00000000000E+00 0.  1.
         25    1    1    2    0    0 -0.16883888273E+03  0.12329141628E+03 -0.25023091018E+04  0.25141366674E+04  0.12500000000E+03 0.  0.
         21    1    1    2  503  502  0.20031496796E+03 -0.11825132604E+03  0.13865062045E+03  0.27080150858E+03  0.00000000000E+00 0. -1.
         21    1    1    2  504  503 -0.31476085238E+02 -0.50400902380E+01 -0.18564942648E+02  0.36889070834E+02  0.00000000000E+00 0. -1.
<mgrwt>
<rscale>  4 0.24412427E+03</rscale>
<asrwt>0</asrwt>
<pdfrwt beam="1">  1       21 0.33815680E-01 0.24412427E+03</pdfrwt>
<pdfrwt beam="2">  1       21 0.40031158E+00 0.24412427E+03</pdfrwt>
<totfact> 0.67086854E+01</totfact>
</mgrwt>
</event>
<event>
 5    0  0.1467858E+000  0.3163980E+03  0.7546771E-02  0.1077319E+00
         21   -1    0    0  504  501  0.00000000000E+00  0.00000000000E+00  0.70288019632E+03  0.70288019632E+03  0.00000000000E+00 0. -1.
         21   -1    0    0  501  502 -0.00000000000E+00 -0.00000000000E+00 -0.11388616406E+04  0.11388616406E+04  0.00000000000E+00 0. -1.
         25    1    1    2    0    0 -0.23025409006E+03  0.17738581808E+03 -0.10836589987E+04  0.11289041146E+04  0.12500000000E+03 0.  0.
         21    1    1    2  503  502  0.14927408267E+03 -0.15107801557E+03  0.47431356880E+03  0.51969287093E+03  0.00000000000E+00 0. -1.
         21    1    1    2  504  503  0.80980007396E+02 -0.26307802510E+02  0.17336398568E+03  0.19314485135E+03  0.00000000000E+00 0. -1.
<mgrwt>
<rscale>  4 0.31639797E+03</rscale>
<asrwt>0</asrwt>
<pdfrwt beam="1">  1       21 0.10813542E+00 0.31639797E+03</pdfrwt>
<pdfrwt beam="2">  1       21 0.17520948E+00 0.31639797E+03</pdfrwt>
<totfact> 0.11712400E+02</totfact>
</mgrwt>
</event>
