<LesHouchesEvents version="3.0">
  <!--
  <scalesfunctionalform>
    muR  H_T/2 := sum_i mT(i)/2, i=final state
    muF1 H_T/2 := sum_i mT(i)/2, i=final state
    muF2 H_T/2 := sum_i mT(i)/2, i=final state
    QES  H_T/2 := sum_i mT(i)/2, i=final state
  </scalesfunctionalform>
HERWIG6   
  -->
  <header>
      226
  </header>
  <init>
   2212   2212 0.65000000D+04 0.65000000D+04 -1 -1   244800   244800 -4   1
 0.34191823D-03 0.14835779D-04 0.16549492D-05     66
  </init>
  <event>
  7     66 0.16549492E-05 0.63892891E+02 0.75467711E-02 0.90209506E-01
        2 -1    0    0  501    0 0.00000000E+00 0.00000000E+00 0.76049346E+03 0.76049353E+03 0.32000000E+00 0.0000E+00 0.9000E+01
       -1 -1    0    0    0  503 0.00000000E+00 0.00000000E+00 -.10421607E+04 0.10421607E+04 0.32000000E+00 0.0000E+00 0.9000E+01
       24  2    1    2    0    0 -.46251998E+03 -.58171921E+03 -.46956349E+03 0.88264403E+03 0.79048365E+02 0.0000E+00 0.0000E+00
       25  1    1    2    0    0 0.44011967E+03 0.58030604E+03 0.30597397E+03 0.79981591E+03 0.12500000E+03 0.0000E+00 0.9000E+01
        4  1    3    3  502    0 -.23003262E+03 -.26847100E+03 -.26736755E+03 0.44326007E+03 0.15500000E+01 0.0000E+00 0.9000E+01
       -3  1    3    3    0  502 -.23248736E+03 -.31324821E+03 -.20219594E+03 0.43938396E+03 0.50000000E+00 0.0000E+00 0.9000E+01
       21  1    1    2  501  503 0.22400304E+02 0.14131667E+01 -.11807770E+03 0.12019433E+03 0.75000000E+00 0.0000E+00 0.9000E+01
#aMCatNLO 2  0  0  0  0 0.00000000D+00 0.00000000D+00  -5  6  0 0.00000000D+00 0.00000000D+00 0.00000000D+00 0.00000000D+00 0.00000000D+00
  <mgrwgt>
 0.1124178592D-02    1    2    0
 0.837168764373723D+03 0.000000000000000D+00 0.000000000000000D+00 0.837168764373723D+03
 0.837168764373723D+03 0.000000000000000D+00 0.000000000000000D+00 -.837168764373723D+03
 0.839968784039279D+03 0.451313619173320D+03 0.581012230477107D+03 0.385568882750049D+03
 0.415839103129348D+03 -.224367462495415D+03 -.268008913548856D+03 -.225283429757165D+03
 0.418529641578818D+03 -.226946156677905D+03 -.313003316928251D+03 -.160285452992885D+03
 0.000000000000000D+00 0.000000000000000D+00 0.000000000000000D+00 -.000000000000000D+00
 0.838409439259380D+03 0.000000000000000D+00 0.000000000000000D+00 0.838409439259380D+03
 0.945306711093026D+03 0.000000000000000D+00 0.000000000000000D+00 -.945306711093026D+03
 0.833515920690760D+03 0.440119674729529D+03 0.580306038755257D+03 0.385568882750049D+03
 0.419104392306332D+03 -.229952402157662D+03 -.268361250312391D+03 -.225283429757165D+03
 0.421867647796006D+03 -.232567576784933D+03 -.313357955131484D+03 -.160285452992885D+03
 0.109228189559308D+03 0.224003042130657D+02 0.141316668861767D+01 -.106897271833646D+03
0.685491589997D-03 0.000000000000D+00 0.000000000000D+00 0.663028160898D-04 0.802663262062D-06  6 2 -1 25 4 -3 21 2 0.11699882D+00 0.16033218D+00 0.56630042D+06 0.56630042D+06 0.56630042D+06 0.10647094D+01  1  2  1  2  6  2       -1 0.112417859198D-02 0.100000000000D+01
  </mgrwgt>
  </event>
  <event>
  7     66 0.16549492E-05 0.34547440E+02 0.75467711E-02 0.93185812E-01
        2 -1    0    0  501    0 0.00000000E+00 0.00000000E+00 0.18722920E+04 0.18722920E+04 0.32000000E+00 0.0000E+00 0.9000E+01
       -1 -1    0    0    0  503 0.00000000E+00 0.00000000E+00 -.75394882E+03 0.75394889E+03 0.32000000E+00 0.0000E+00 0.9000E+01
       24  2    1    2    0    0 0.48702039E+03 0.11714220E+03 0.20523192E+03 0.54690369E+03 0.77925276E+02 0.0000E+00 0.0000E+00
       25  1    1    2    0    0 -.54918968E+03 -.11180562E+03 0.14392178E+04 0.15495427E+04 0.12500000E+03 0.0000E+00 0.9000E+01
        4  1    3    3  502    0 0.16689263E+03 0.34941308E+02 0.11009184E+03 0.20296960E+03 0.15500000E+01 0.0000E+00 0.9000E+01
       -3  1    3    3    0  502 0.32012777E+03 0.82200890E+02 0.95140085E+02 0.34393409E+03 0.50000000E+00 0.0000E+00 0.9000E+01
       21  1    1    2  501  503 0.62169285E+02 -.53365825E+01 -.52610656E+03 0.52979447E+03 0.75000000E+00 0.0000E+00 0.9000E+01
#aMCatNLO 2  0  0  2  1 0.12627531D+03 0.00000000D+00  -5  6  0 0.00000000D+00 0.00000000D+00 0.00000000D+00 0.00000000D+00 0.00000000D+00
  <mgrwgt>
 0.1369155073D-02    1    2    0
 0.649418819611534D+03 0.000000000000000D+00 0.000000000000000D+00 0.649418819611534D+03
 0.649418819611534D+03 0.000000000000000D+00 0.000000000000000D+00 -.649418819611534D+03
 0.653096204340460D+03 -.517347969318717D+03 -.114538893680200D+03 0.360751399997604D+03
 0.195900417511139D+03 0.175951531261249D+03 0.341223108386705D+02 -.790803397241668D+02
 0.449841017371468D+03 0.341396438057468D+03 0.804165828415300D+02 -.281671060273437D+03
 0.000000000000000D+00 0.000000000000000D+00 -.000000000000000D+00 -.000000000000000D+00
 0.650808672937247D+03 0.000000000000000D+00 0.000000000000000D+00 0.650808672937247D+03
 0.216901234005663D+04 0.000000000000000D+00 0.000000000000000D+00 -.216901234005663D+04
 0.678141851927393D+03 -.549189678450096D+03 -.111805616223703D+03 0.360751399997604D+03
 0.187844575880327D+03 0.166772784903553D+03 0.349102101437889D+02 -.790803397241668D+02
 0.434349187420485D+03 0.320247608075300D+03 0.822319885404842D+02 -.281671060273437D+03
 0.151948539776567D+04 0.621692854712429D+02 -.533658246056975D+01 -.151820366711938D+04
0.146755879424D-02 0.000000000000D+00 0.000000000000D+00 0.350345779808D-04 0.980127166111D-07  6 2 -1 25 4 -3 21 2 0.28804489D+00 0.11599212D+00 0.32356044D+06 0.32356044D+06 0.32356044D+06 0.10821310D+01  1  2  1  2  6  2       -1 0.136915507305D-02 0.100000000000D+01
  </mgrwgt>
  </event>
  <event>
  7     66 0.16549492E-05 0.10531276E+03 0.75467711E-02 0.93928434E-01
        2 -1    0    0  501    0 0.00000000E+00 0.00000000E+00 0.15234810E+04 0.15234810E+04 0.32000000E+00 0.0000E+00 0.9000E+01
       -1 -1    0    0    0  503 0.00000000E+00 0.00000000E+00 -.31405601E+03 0.31405617E+03 0.32000000E+00 0.0000E+00 0.9000E+01
       24  2    1    2    0    0 0.11779921E+03 -.39944130E+03 0.85340191E+03 0.95300038E+03 0.80528932E+02 0.0000E+00 0.0000E+00
       25  1    1    2    0    0 -.15521119E+02 0.49047720E+03 0.48153327E+03 0.69879044E+03 0.12500000E+03 0.0000E+00 0.9000E+01
        4  1    3    3  502    0 0.45811974E+02 -.25627999E+03 0.58654314E+03 0.64172691E+03 0.15500000E+01 0.0000E+00 0.9000E+01
       -3  1    3    3    0  502 0.71987237E+02 -.14316131E+03 0.26685877E+03 0.31127347E+03 0.50000000E+00 0.0000E+00 0.9000E+01
       21  1    1    2  501  503 -.10227809E+03 -.91035908E+02 -.12551019E+03 0.18574637E+03 0.75000000E+00 0.0000E+00 0.9000E+01
#aMCatNLO 2  0  0  2  1 0.12627531D+03 0.00000000D+00  -5  6  0 0.00000000D+00 0.00000000D+00 0.00000000D+00 0.00000000D+00 0.00000000D+00
  <mgrwgt>
 0.6238325625D-03    1    2    0
 0.481563249528164D+03 0.000000000000000D+00 0.000000000000000D+00 0.481563249528164D+03
 0.481563249528164D+03 0.000000000000000D+00 0.000000000000000D+00 -.481563249528164D+03
 0.486308260325048D+03 -.689886392109433D+02 0.442886715888783D+03 -.141289237415473D+03
 0.306914453812309D+03 0.145315995416175D+02 -.284056741594723D+03 0.115312974674400D+03
 0.169903784918970D+03 0.544570396693257D+02 -.158829974294060D+03 0.259762627410730D+02
 0.000000000000000D+00 -.000000000000000D+00 -.000000000000000D+00 -.000000000000000D+00
 0.496214961411069D+03 0.000000000000000D+00 0.000000000000000D+00 0.496214961411069D+03
 0.964215172546416D+03 0.000000000000000D+00 0.000000000000000D+00 -.964215172546416D+03
 0.525734192073364D+03 -.155211190065416D+02 0.490477203313642D+03 -.141289237415473D+03
 0.284694294543981D+03 0.457870598544505D+02 -.256236813060734D+03 0.115312974674400D+03
 0.162382387954613D+03 0.720121507416500D+02 -.143204482602365D+03 0.259762627410730D+02
 0.487619259385527D+03 -.102278091589559D+03 -.910359076505435D+02 -.468000211135347D+03
0.710958259643D-04 0.000000000000D+00 0.000000000000D+00 0.304280149807D-03 0.127777780300D-06  6 2 -1 25 4 -3 21 2 0.23438157D+00 0.48316296D-01 0.28297307D+06 0.28297307D+06 0.28297307D+06 0.10864343D+01  1  2  1  2  6  2       -1 0.623832562530D-03 0.100000000000D+01
  </mgrwgt>
  </event>
  <event>
  7     66 0.16549492E-05 0.48825772E+02 0.75467711E-02 0.93049030E-01
        2 -1    0    0  503    0 0.00000000E+00 0.00000000E+00 0.14394738E+04 0.14394738E+04 0.32000000E+00 0.0000E+00 0.9000E+01
       -1 -1    0    0    0  501 0.00000000E+00 0.00000000E+00 -.29341632E+03 0.29341650E+03 0.32000000E+00 0.0000E+00 0.9000E+01
       24  2    1    2    0    0 0.41352545E+03 -.37816236E+03 0.33473693E+03 0.65729570E+03 0.77322438E+02 0.0000E+00 0.0000E+00
       25  1    1    2    0    0 -.39865336E+03 0.31723637E+03 0.40044077E+03 0.65995547E+03 0.12500000E+03 0.0000E+00 0.9000E+01
        4  1    3    3  502    0 0.29969510E+02 -.56757767E+02 0.25763522E+02 0.69179312E+02 0.15500000E+01 0.0000E+00 0.9000E+01
       -3  1    3    3    0  502 0.38355594E+03 -.32140459E+03 0.30897340E+03 0.58811639E+03 0.50000000E+00 0.0000E+00 0.9000E+01
       21  1    1    2  503  501 -.14872093E+02 0.60925987E+02 0.41087980E+03 0.41563918E+03 0.75000000E+00 0.0000E+00 0.9000E+01
#aMCatNLO 2  0  0  1  2 0.10346083D+02 0.00000000D+00  -5  6  0 0.00000000D+00 0.00000000D+00 0.00000000D+00 0.00000000D+00 0.00000000D+00
  <mgrwgt>
 0.4258386080D-03    1    2    0
 0.545603161698656D+03 0.000000000000000D+00 0.000000000000000D+00 0.545603161698656D+03
 0.545603161698656D+03 0.000000000000000D+00 0.000000000000000D+00 -.545603161698656D+03
 0.550023151056184D+03 -.405979955088112D+03 0.347250995868425D+03 0.386973982693309D+02
 0.623850137175895D+02 0.289434587152996D+02 -.530541157948190D+02 -.154734266201610D+02
 0.478798158623538D+03 0.377036496372812D+03 -.294196880073606D+03 -.232239716491700D+02
 0.000000000000000D+00 -.000000000000000D+00 0.000000000000000D+00 0.000000000000000D+00
 0.766581188790782D+03 0.000000000000000D+00 0.000000000000000D+00 0.766581188790782D+03
 0.550971438326234D+03 0.000000000000000D+00 0.000000000000000D+00 -.550971438326234D+03
 0.526009411877106D+03 -.398653355575609D+03 0.317236370611553D+03 0.386973982693309D+02
 0.658446363248660D+02 0.298165617456841D+02 -.566309265953698D+02 -.154734266201610D+02
 0.501152994428305D+03 0.383708887049033D+03 -.321531430757380D+03 -.232239716491700D+02
 0.224545584486739D+03 -.148720932191077D+02 0.609259867411972D+02 0.215609750464549D+03
0.392126981887D-04 0.000000000000D+00 0.000000000000D+00 0.945335846665D-05 0.156804328274D-07  6 2 -1 25 4 -3 21 2 0.22145728D+00 0.45140938D-01 0.33172658D+06 0.33172658D+06 0.33172658D+06 0.10813365D+01  1  2  1  1  6  1        2 0.425838608005D-03 0.100000000000D+01
  </mgrwgt>
  </event>
  <event>
  6     66 0.16549492E-05 0.13122789E+02 0.75467711E-02 0.95122060E-01
        2 -1    0    0  501    0 0.00000000E+00 0.00000000E+00 0.89828200E+03 0.89828206E+03 0.32000000E+00 0.0000E+00 0.9000E+01
       -1 -1    0    0    0  501 0.00000000E+00 0.00000000E+00 -.29879626E+03 0.29879644E+03 0.32000000E+00 0.0000E+00 0.9000E+01
       24  2    1    2    0    0 0.28006734E+03 -.37996722E+03 0.81906761E+02 0.48551275E+03 0.78747122E+02 0.0000E+00 0.0000E+00
       25  1    1    2    0    0 -.28006734E+03 0.37996722E+03 0.51757897E+03 0.71156574E+03 0.12500000E+03 0.0000E+00 0.9000E+01
        4  1    3    3  502    0 0.58484965E+01 -.12528947E+02 0.17763980E+02 0.22564150E+02 0.15500000E+01 0.0000E+00 0.9000E+01
       -3  1    3    3    0  502 0.27421884E+03 -.36743828E+03 0.64142781E+02 0.46294860E+03 0.50000000E+00 0.0000E+00 0.9000E+01
#aMCatNLO 1  0  0  5  2 0.14445195D+02 0.00000000D+00  -5  6  0 0.00000000D+00 0.00000000D+00 0.00000000D+00 0.00000000D+00 0.00000000D+00
  <mgrwgt>
 0.4626082331D-03    6    2    0
 0.518076676608264D+03 0.000000000000000D+00 0.000000000000000D+00 0.518076676608264D+03
 0.518076676608264D+03 -.000000000000000D+00 -.000000000000000D+00 -.518076676608264D+03
 0.522624213343698D+03 -.280067340714099D+03 0.379967224511411D+03 0.186274693223603D+03
 0.155986200837720D+02 0.574244191645248D+01 -.123870285420917D+02 0.754339666539091D+01
 0.497930519789057D+03 0.274324898797646D+03 -.367580195969319D+03 -.193818089888994D+03
 0.000000000000000D+00 0.000000000000000D+00 0.000000000000000D+00 0.000000000000000D+00
 0.518076676608264D+03 0.000000000000000D+00 0.000000000000000D+00 0.518076676608264D+03
 0.518076676608264D+03 -.000000000000000D+00 -.000000000000000D+00 -.518076676608264D+03
 0.519129541603672D+03 -.278083461338856D+03 0.377308935844479D+03 0.184873027852487D+03
 0.156637830009846D+02 0.580197694227391D+01 -.124668021847847D+02 0.750133353135977D+01
 0.482827205977409D+03 0.255337948047855D+03 -.359166919751614D+03 -.197291071452309D+03
 0.185328226344617D+02 0.169435363487269D+02 -.567521390808024D+01 0.491671006846234D+01
0.927995519671D-05 0.000000000000D+00 0.000000000000D+00 0.193601884189D-04 0.000000000000D+00  6 2 -1 25 4 -3 21 0 0.13819725D+00 0.45968674D-01 0.23069514D+06 0.23069514D+06 0.23069514D+06 0.10930945D+01  1  2  2  4  6  5       -3 0.176178454267D-03 0.100000000000D+01
0.386150957631D-05 0.000000000000D+00 -.356374714237D-07 0.193601884189D-04 0.000000000000D+00  6 2 -1 25 4 -3 21 2 0.13819725D+00 0.45968674D-01 0.23069514D+06 0.23069514D+06 0.23069514D+06 0.10930945D+01  1  2  3  4  6  5       -3 0.875950257580D-04 0.100000000000D+01
-.298533946492D-05 0.000000000000D+00 0.000000000000D+00 0.193601884189D-04 0.000000000000D+00  6 2 -1 25 4 -3 21 2 0.13819725D+00 0.45968674D-01 0.23069514D+06 0.23069514D+06 0.23069514D+06 0.10930945D+01  1  2 15  4  6  5       -3 -.677198598522D-04 0.100000000000D+01
-.635023098710D-06 0.000000000000D+00 0.000000000000D+00 0.193601884189D-04 0.000000000000D+00  6 2 -1 25 4 -3 21 2 0.13819725D+00 0.45968674D-01 0.23069514D+06 0.23069514D+06 0.23069514D+06 0.10930945D+01  1  2  4  4  6  5       -3 -.144049531897D-04 0.100000000000D+01
-.326698022444D-03 0.000000000000D+00 0.000000000000D+00 0.193601884189D-04 0.000000000000D+00  6 2 -1 25 4 -3 21 2 0.13819725D+00 0.45968674D-01 0.23069514D+06 0.23069514D+06 0.23069514D+06 0.10930945D+01  1  2  5  4  6  5       -3 -.741086384108D-02 0.100000000000D+01
0.339083749210D-03 0.000000000000D+00 -.000000000000D+00 0.193601884189D-04 0.000000000000D+00  6 2 -1 25 4 -3 21 2 0.13819725D+00 0.45968674D-01 0.23069514D+06 0.23069514D+06 0.23069514D+06 0.10930945D+01  1  2  6  4  6  5       -3 0.769182340718D-02 0.100000000000D+01
  </mgrwgt>
  </event>
  <event>
  7     66 0.16549492E-05 0.63410005E+02 0.75467711E-02 0.93959356E-01
        2 -1    0    0  501    0 0.00000000E+00 0.00000000E+00 0.96163100E+03 0.96163106E+03 0.32000000E+00 0.0000E+00 0.9000E+01
       -1 -1    0    0    0  501 0.00000000E+00 0.00000000E+00 -.30101891E+03 0.30101908E+03 0.32000000E+00 0.0000E+00 0.9000E+01
       24  2    1    2    0    0 0.27117743E+03 -.44427858E+03 0.24962628E+03 0.58777608E+03 0.11066518E+03 0.0000E+00 0.0000E+00
       25  1    1    2    0    0 -.27117743E+03 0.44427858E+03 0.41098582E+03 0.67487406E+03 0.12500000E+03 0.0000E+00 0.9000E+01
        4  1    3    3  503    0 0.14283137E+03 -.16449364E+03 0.83094840E+02 0.23316542E+03 0.15500000E+01 0.0000E+00 0.9000E+01
       -3  1    3    3    0  502 0.12407097E+03 -.26891409E+03 0.14419872E+03 0.32939628E+03 0.50000000E+00 0.0000E+00 0.9000E+01
       21  1    3    3  502  503 0.42750889E+01 -.10870858E+02 0.22332717E+02 0.25214375E+02 0.75000000E+00 0.0000E+00 0.9000E+01
#aMCatNLO 2  0  0  0  0 0.00000000D+00 0.00000000D+00  -5  6  0 0.00000000D+00 0.00000000D+00 0.00000000D+00 0.00000000D+00 0.00000000D+00
  <mgrwgt>
 0.9538737108D-02    1    2    0
 0.538023472931590D+03 0.000000000000000D+00 0.000000000000000D+00 0.538023472931590D+03
 0.538023472931590D+03 -.000000000000000D+00 -.000000000000000D+00 -.538023472931590D+03
 0.542947271759477D+03 -.273392299593928D+03 0.446918910856277D+03 0.684607738259096D+02
 0.236653449787081D+03 0.150415039413809D+03 -.179181179426619D+03 -.356970048261001D+02
 0.296446224316622D+03 0.122977260180119D+03 -.267737731429657D+03 -.327637689998095D+02
 0.000000000000000D+00 0.000000000000000D+00 -.000000000000000D+00 0.000000000000000D+00
 0.538023472931590D+03 0.000000000000000D+00 0.000000000000000D+00 0.538023472931590D+03
 0.538023472931590D+03 -.000000000000000D+00 -.000000000000000D+00 -.538023472931590D+03
 0.539573881313004D+03 -.271163631893746D+03 0.444264021367667D+03 0.679318588852280D+02
 0.222222686230203D+03 0.142667032688232D+03 -.164143757306557D+03 -.456712929156658D+02
 0.298304102720169D+03 0.124201717401834D+03 -.269196360101361D+03 -.330543613203865D+02
 0.159462755998026D+02 0.429488180367915D+01 -.109239039597485D+02 0.107937953508243D+02
0.476074571394D-03 0.000000000000D+00 0.000000000000D+00 0.346142192078D-05 0.568858864033D-06  6 2 -1 25 4 -3 21 2 0.14794325D+00 0.46310619D-01 0.28141135D+06 0.28141135D+06 0.28141135D+06 0.10866131D+01  1  2  1  3  6  4        4 0.953873710811D-02 0.100000000000D+01
  </mgrwgt>
  </event>
  <event>
  7     66 0.16549492E-05 0.32330165E+02 0.75467711E-02 0.93128379E-01
        2 -1    0    0  501    0 0.00000000E+00 0.00000000E+00 0.19241563E+03 0.19241589E+03 0.32000000E+00 0.0000E+00 0.9000E+01
       -1 -1    0    0    0  503 0.00000000E+00 0.00000000E+00 -.17100593E+04 0.17100594E+04 0.32000000E+00 0.0000E+00 0.9000E+01
       24  2    1    2    0    0 0.12569136E+03 0.54237342E+03 -.77748314E+03 0.95986610E+03 0.83040161E+02 0.0000E+00 0.0000E+00
       25  1    1    2    0    0 -.10765594E+03 -.54061204E+03 -.71138718E+03 0.90859666E+03 0.12500000E+03 0.0000E+00 0.9000E+01
        4  1    3    3  502    0 0.12547781E+03 0.43105058E+03 -.58368506E+03 0.73636943E+03 0.15500000E+01 0.0000E+00 0.9000E+01
       -3  1    3    3    0  502 0.21355181E+00 0.11132284E+03 -.19379808E+03 0.22349668E+03 0.50000000E+00 0.0000E+00 0.9000E+01
       21  1    1    2  501  503 -.18035419E+02 -.17613783E+01 -.28773399E+02 0.34012494E+02 0.75000000E+00 0.0000E+00 0.9000E+01
#aMCatNLO 2  0  0  2  1 0.12627531D+03 0.00000000D+00  -5  6  0 0.00000000D+00 0.00000000D+00 0.00000000D+00 0.00000000D+00 0.00000000D+00
  <mgrwgt>
 0.2328981799D-03    1    2    0
 0.564377958091378D+03 0.000000000000000D+00 0.000000000000000D+00 0.564377958091378D+03
 0.564377958091378D+03 0.000000000000000D+00 0.000000000000000D+00 -.564377958091378D+03
 0.568244751714724D+03 -.116713789297270D+03 -.541496647759078D+03 0.208894639682724D+02
 0.446330841020502D+03 0.118330282654456D+03 0.430328935356724D+03 0.511578417582302D+01
 0.114180323447529D+03 -.161649335718631D+01 0.111167712402354D+03 -.260052481440955D+02
 0.000000000000000D+00 -.000000000000000D+00 -.000000000000000D+00 -.000000000000000D+00
 0.572233520553881D+03 0.000000000000000D+00 0.000000000000000D+00 0.572233520553881D+03
 0.574998854755974D+03 0.000000000000000D+00 0.000000000000000D+00 -.574998854755974D+03
 0.565608122659011D+03 -.107655943586739D+03 -.540612038825827D+03 0.208894639682724D+02
 0.448950563763526D+03 0.125482287129922D+03 0.431027415685473D+03 0.511578417582302D+01
 0.114342680880589D+03 0.209075163468881D+00 0.111346001398794D+03 -.260052481440955D+02
 0.183310080067310D+02 -.180354187066524D+02 -.176137825843960D+01 -.276533420209310D+01
0.192692525816D-03 0.000000000000D+00 0.000000000000D+00 0.299199226349D-04 0.568845492032D-06  6 2 -1 25 4 -3 21 2 0.29602031D-01 0.26308256D+00 0.32696157D+06 0.32696157D+06 0.32696157D+06 0.10817975D+01  1  2  1  2  6  2       -1 0.232898179926D-03 0.100000000000D+01
  </mgrwgt>
  </event>
  <event>
  7     66 0.16549492E-05 0.79738301E+02 0.75467711E-02 0.94797622E-01
        2 -1    0    0  503    0 0.00000000E+00 0.00000000E+00 0.85828955E+03 0.85828961E+03 0.32000000E+00 0.0000E+00 0.9000E+01
       -1 -1    0    0    0  501 0.00000000E+00 0.00000000E+00 -.37311959E+03 0.37311972E+03 0.32000000E+00 0.0000E+00 0.9000E+01
       24  2    1    2    0    0 0.47702285E+03 -.33908383E+02 0.52218009E+03 0.71314808E+03 0.84897360E+02 0.0000E+00 0.0000E+00
       25  1    1    2    0    0 -.47060238E+03 0.42270993E+02 -.60520036E+02 0.49248463E+03 0.12500000E+03 0.0000E+00 0.9000E+01
        4  1    3    3  502    0 0.24252111E+03 0.25241428E+02 0.25887428E+03 0.35562890E+03 0.15500000E+01 0.0000E+00 0.9000E+01
       -3  1    3    3    0  502 0.23450174E+03 -.59149811E+02 0.26330581E+03 0.35751919E+03 0.50000000E+00 0.0000E+00 0.9000E+01
       21  1    1    2  503  501 -.64204731E+01 -.83626095E+01 0.23509910E+02 0.25776619E+02 0.75000000E+00 0.0000E+00 0.9000E+01
#aMCatNLO 2  0  0  1  2 0.21836487D+01 0.00000000D+00  -5  6  0 0.00000000D+00 0.00000000D+00 0.00000000D+00 0.00000000D+00 0.00000000D+00
  <mgrwgt>
 0.1138778198D-01    1    2    0
 0.556845822535759D+03 0.000000000000000D+00 0.000000000000000D+00 0.556845822535759D+03
 0.556845822535759D+03 0.000000000000000D+00 0.000000000000000D+00 -.556845822535759D+03
 0.560624893982254D+03 -.473827353962557D+03 0.380704936731026D+02 -.269654497275573D+03
 0.276005971197145D+03 0.240855640900343D+03 0.231836509559104D+02 0.132779421264438D+03
 0.277060779892118D+03 0.232971713062214D+03 -.612541446290130D+02 0.136875076011135D+03
 0.000000000000000D+00 -.000000000000000D+00 -.000000000000000D+00 0.000000000000000D+00
 0.573324393626646D+03 0.000000000000000D+00 0.000000000000000D+00 0.573324393626646D+03
 0.558559698990930D+03 0.000000000000000D+00 0.000000000000000D+00 -.558559698990930D+03
 0.558204250683815D+03 -.470602380726079D+03 0.422709928376883D+02 -.269654497275573D+03
 0.277580964179524D+03 0.242451329624725D+03 0.252620214297768D+02 0.132779421264438D+03
 0.277956333259545D+03 0.234571524207852D+03 -.591704047378609D+02 0.136875076011135D+03
 0.181425444946911D+02 -.642047310649785D+01 -.836260952960423D+01 0.147646946357166D+02
0.712004804674D-03 0.000000000000D+00 0.000000000000D+00 0.101962230238D-04 0.583093972011D-06  6 2 -1 25 4 -3 21 2 0.13204273D+00 0.57402234D-01 0.24254546D+06 0.24254546D+06 0.24254546D+06 0.10914495D+01  1  2  1  1  6  1        2 0.113877819786D-01 0.100000000000D+01
  </mgrwgt>
  </event>
  <event>
  7     66 0.16549492E-05 0.21759689E+03 0.75467711E-02 0.93710155E-01
        2 -1    0    0  501    0 0.00000000E+00 0.00000000E+00 0.83304994E+03 0.83305000E+03 0.32000000E+00 0.0000E+00 0.9000E+01
       21 -1    0    0  503  501 0.00000000E+00 0.00000000E+00 -.14610284E+04 0.14610286E+04 0.75000000E+00 0.0000E+00 0.9000E+01
       24  2    1    2    0    0 -.24306945E+03 0.61478450E+02 0.30402148E+03 0.40221255E+03 0.80520268E+02 0.0000E+00 0.0000E+00
       25  1    1    2    0    0 0.51845417E+03 -.11486206E+03 0.30393950E+03 0.62449359E+03 0.12500000E+03 0.0000E+00 0.9000E+01
        4  1    3    3  502    0 -.88257010E+02 0.54895858E+02 0.15911960E+03 0.19006395E+03 0.15500000E+01 0.0000E+00 0.9000E+01
        1  1    1    2  503    0 -.27538472E+03 0.53383613E+02 -.12359395E+04 0.12673725E+04 0.32000000E+00 0.0000E+00 0.9000E+01
       -3  1    3    3    0  502 -.15481244E+03 0.65825921E+01 0.14490188E+03 0.21214860E+03 0.50000000E+00 0.0000E+00 0.9000E+01
#aMCatNLO 2  0  0  2  1 0.96778436D+01 0.00000000D+00  -5  6  0 0.00000000D+00 0.00000000D+00 0.00000000D+00 0.00000000D+00 0.00000000D+00
  <mgrwgt>
 0.1374214093D-01    1    2    0
 0.389172964353507D+03 0.000000000000000D+00 0.000000000000000D+00 0.389172964353507D+03
 0.389172964353507D+03 0.000000000000000D+00 0.000000000000000D+00 -.389172964353507D+03
 0.395045344689997D+03 0.356095461665564D+03 -.833886585471915D+02 -.817201209502719D+02
 0.161338685630811D+03 -.136262214857423D+03 0.642118591874150D+02 0.577894231059871D+02
 0.000000000000000D+00 -.000000000000000D+00 0.000000000000000D+00 -.000000000000000D+00
 0.221961898386206D+03 -.219833246808141D+03 0.191767993597764D+02 0.239306978442847D+02
 0.421629830561591D+03 0.000000000000000D+00 0.000000000000000D+00 0.421629830561591D+03
 0.288667880339754D+04 0.000000000000000D+00 0.000000000000000D+00 -.288667880339754D+04
 0.551625962675990D+03 0.518454174497223D+03 -.114862062825326D+03 -.817201209502719D+02
 0.118881919294729D+03 -.882030243330921D+02 0.548955354356956D+02 0.577894231059871D+02
 0.248095807972251D+04 -.275384721328902D+03 0.533836128363044D+02 -.246504897283595D+04
 0.156842672265898D+03 -.154866428835229D+03 0.658291455332618D+01 0.239306978442847D+02
0.433556816785D-02 0.000000000000D+00 0.000000000000D+00 0.335763296740D-03 0.276383743833D-07  6 2 21 25 4 1 -3 2 0.12816155D+00 0.22477362D+00 0.29427777D+06 0.29427777D+06 0.29427777D+06 0.10851712D+01  1  2  1  6  5  2       -1 0.137421409342D-01 0.100000000000D+01
  </mgrwgt>
  </event>
  <event>
  7     66 0.16549492E-05 0.69297056E+02 0.75467711E-02 0.89448369E-01
        2 -1    0    0  503    0 0.00000000E+00 0.00000000E+00 0.15554313E+04 0.15554313E+04 0.32000000E+00 0.0000E+00 0.9000E+01
       -1 -1    0    0    0  501 0.00000000E+00 0.00000000E+00 -.43558647E+03 0.43558658E+03 0.32000000E+00 0.0000E+00 0.9000E+01
       24  2    1    2    0    0 -.79963740E+03 0.62442748E+02 0.70035822E+03 0.10678348E+04 0.80314716E+02 0.0000E+00 0.0000E+00
       25  1    1    2    0    0 0.78526362E+03 -.71865350E+02 0.42582279E+03 0.90485006E+03 0.12500000E+03 0.0000E+00 0.9000E+01
        4  1    3    3  502    0 -.40986698E+03 0.72220379E+02 0.36356422E+03 0.55261928E+03 0.15500000E+01 0.0000E+00 0.9000E+01
       -3  1    3    3    0  502 -.38977042E+03 -.97776300E+01 0.33679400E+03 0.51521552E+03 0.50000000E+00 0.0000E+00 0.9000E+01
       21  1    1    2  503  501 0.14373781E+02 0.94226016E+01 -.63361839E+01 0.18333050E+02 0.75000000E+00 0.0000E+00 0.9000E+01
#aMCatNLO 2  0  0  1  2 0.31115026D+01 0.00000000D+00  -5  6  0 0.00000000D+00 0.00000000D+00 0.00000000D+00 0.00000000D+00 0.00000000D+00
  <mgrwgt>
 0.9454185308D-03    1    2    0
 0.809769488175361D+03 0.000000000000000D+00 0.000000000000000D+00 0.809769488175361D+03
 0.809769488175361D+03 0.000000000000000D+00 0.000000000000000D+00 -.809769488175361D+03
 0.812601944390495D+03 0.792446173549595D+03 -.671568923536765D+02 -.110525715845749D+03
 0.416961047239093D+03 -.406022950452152D+03 0.746619532781150D+02 0.585446099444383D+02
 0.389975984721134D+03 -.386423223097442D+03 -.750506092443848D+01 0.519811059013111D+02
 0.000000000000000D+00 0.000000000000000D+00 0.000000000000000D+00 -.000000000000000D+00
 0.812944935728595D+03 0.000000000000000D+00 0.000000000000000D+00 0.812944935728595D+03
 0.833409739066284D+03 0.000000000000000D+00 0.000000000000000D+00 -.833409739066284D+03
 0.806005282613747D+03 0.785263620187976D+03 -.718653501162082D+02 -.110525715845749D+03
 0.420153683646716D+03 -.409737638687860D+03 0.722268230704832D+02 0.585446099444383D+02
 0.393471203534780D+03 -.389899762150139D+03 -.978407459343380D+01 0.519811059013111D+02
 0.267245049996354D+02 0.143737806500233D+02 0.942260163915879D+01 -.204648033376887D+02
0.226537745740D-03 0.000000000000D+00 0.000000000000D+00 0.282363295682D-03 0.573201289411D-05  6 2 -1 25 4 -3 21 2 0.23929559D+00 0.67012882D-01 0.65744168D+06 0.65744168D+06 0.65744168D+06 0.10602082D+01  1  2  1  1  6  1        2 0.945418530774D-03 0.100000000000D+01
  </mgrwgt>
  </event>
  <event>
  7     66 0.16549492E-05 0.56303459E+02 0.75467711E-02 0.95370128E-01
        2 -1    0    0  503    0 0.00000000E+00 0.00000000E+00 0.31218284E+04 0.31218284E+04 0.32000000E+00 0.0000E+00 0.9000E+01
       -1 -1    0    0    0  501 0.00000000E+00 0.00000000E+00 -.75392404E+02 0.75393083E+02 0.32000000E+00 0.0000E+00 0.9000E+01
       24  2    1    2    0    0 0.44847327E+03 0.83174091E+01 0.12303659E+04 0.13119953E+04 0.79586102E+02 0.0000E+00 0.0000E+00
       25  1    1    2    0    0 -.45416148E+03 0.44880081E+00 0.15750873E+04 0.16440158E+04 0.12500000E+03 0.0000E+00 0.9000E+01
        4  1    3    3  502    0 0.16567365E+03 -.35040869E+02 0.44388862E+03 0.47509486E+03 0.15500000E+01 0.0000E+00 0.9000E+01
       -3  1    3    3    0  502 0.28279962E+03 0.43358278E+02 0.78647723E+03 0.83690039E+03 0.50000000E+00 0.0000E+00 0.9000E+01
       21  1    1    2  503  501 0.56882102E+01 -.87662099E+01 0.24098279E+03 0.24121042E+03 0.75000000E+00 0.0000E+00 0.9000E+01
#aMCatNLO 2  0  0  1  2 0.40922817D+03 0.00000000D+00  -5  6  0 0.00000000D+00 0.00000000D+00 0.00000000D+00 0.00000000D+00 0.00000000D+00
  <mgrwgt>
 0.9240037654D-02    1    2    0
 0.465651309094435D+03 0.000000000000000D+00 0.000000000000000D+00 0.465651309094435D+03
 0.465651309094435D+03 0.000000000000000D+00 0.000000000000000D+00 -.465651309094435D+03
 0.470639511791747D+03 -.451278609463809D+03 -.399405240590301D+01 0.469916401646462D+02
 0.172050266528908D+03 0.166619567608338D+03 -.366717751600470D+02 -.222349906518926D+02
 0.288612839868215D+03 0.284659041855471D+03 0.406658275659500D+02 -.247566495127536D+02
 0.000000000000000D+00 0.000000000000000D+00 -.000000000000000D+00 0.000000000000000D+00
 0.504650919287258D+03 0.000000000000000D+00 0.000000000000000D+00 0.504650919287258D+03
 0.466381170002301D+03 0.000000000000000D+00 0.000000000000000D+00 -.466381170002301D+03
 0.473387863340314D+03 -.454161483935374D+03 0.448800805309824D+00 0.469916401646462D+02
 0.170698232506922D+03 0.165572880908285D+03 -.350587061858907D+02 -.222349906518926D+02
 0.287275149221664D+03 0.282900392873501D+03 0.433761152853807D+02 -.247566495127536D+02
 0.396708442206595D+02 0.568821015358856D+01 -.876620990479982D+01 0.382697492849566D+02
0.798073924698D-03 0.000000000000D+00 0.000000000000D+00 0.153811934728D-03 0.903506806357D-05  6 2 -1 25 4 -3 21 2 0.48027770D+00 0.11598797D-01 0.21946884D+06 0.21946884D+06 0.21946884D+06 0.10947403D+01  1  2  1  1  6  1        2 0.924003765374D-02 0.100000000000D+01
  </mgrwgt>
  </event>
  <event>
  7     66 0.16549492E-05 0.32239926E+02 0.75467711E-02 0.93869353E-01
        2 -1    0    0  503    0 0.00000000E+00 0.00000000E+00 0.16542495E+04 0.16542495E+04 0.32000000E+00 0.0000E+00 0.9000E+01
       -1 -1    0    0    0  501 0.00000000E+00 0.00000000E+00 -.18078821E+03 0.18078850E+03 0.32000000E+00 0.0000E+00 0.9000E+01
       24  2    1    2    0    0 0.35537912E+03 -.38317945E+03 0.57135360E+03 0.77845135E+03 0.80129630E+02 0.0000E+00 0.0000E+00
       25  1    1    2    0    0 -.36224492E+03 0.37417104E+03 0.86141371E+03 0.10143392E+04 0.12500000E+03 0.0000E+00 0.9000E+01
        4  1    3    3  502    0 0.67321521E+02 -.69432212E+02 0.15584243E+03 0.18341833E+03 0.15500000E+01 0.0000E+00 0.9000E+01
       -3  1    3    3    0  502 0.28805760E+03 -.31374724E+03 0.41551118E+03 0.59503302E+03 0.50000000E+00 0.0000E+00 0.9000E+01
       21  1    1    2  503  501 0.68658016E+01 0.90084145E+01 0.40693955E+02 0.42247500E+02 0.75000000E+00 0.0000E+00 0.9000E+01
#aMCatNLO 2  0  0  1  2 0.97188603D+01 0.00000000D+00  -5  6  0 0.00000000D+00 0.00000000D+00 0.00000000D+00 0.00000000D+00 0.00000000D+00
  <mgrwgt>
 0.2393526211D-02    1    2    0
 0.538782735159756D+03 0.000000000000000D+00 0.000000000000000D+00 0.538782735159756D+03
 0.538782735159756D+03 0.000000000000000D+00 0.000000000000000D+00 -.538782735159756D+03
 0.543053585872534D+03 -.358787609211737D+03 0.378707270447727D+03 0.844656848381393D+02
 0.976361932912028D+02 0.678388561341137D+02 -.685006445881214D+02 0.154394795839765D+02
 0.436875691155774D+03 0.290948753077623D+03 -.310206625859606D+03 -.999051644221158D+02
 0.000000000000000D+00 0.000000000000000D+00 0.000000000000000D+00 0.000000000000000D+00
 0.552658578718043D+03 0.000000000000000D+00 0.000000000000000D+00 0.552658578718043D+03
 0.541128871651027D+03 0.000000000000000D+00 0.000000000000000D+00 -.541128871651027D+03
 0.542203650060767D+03 -.362244918884070D+03 0.374171037049524D+03 0.844656848381393D+02
 0.977820090289007D+02 0.672163113413575D+02 -.693174671317821D+02 0.154394795839765D+02
 0.437639337644977D+03 0.288162805960603D+03 -.313861984376948D+03 -.999051644221158D+02
 0.161624536344251D+02 0.686580158210928D+01 0.900841445920609D+01 0.115297070670167D+02
0.123477043529D-03 0.000000000000D+00 0.000000000000D+00 0.226842685500D-03 0.111275597247D-04  6 2 -1 25 4 -3 21 2 0.25449587D+00 0.27813150D-01 0.28598406D+06 0.28598406D+06 0.28598406D+06 0.10860926D+01  1  2  1  1  6  1        2 0.239352621058D-02 0.100000000000D+01
  </mgrwgt>
  </event>
  <event>
  6     66 0.16549492E-05 0.39024222E+02 0.75467711E-02 0.94659803E-01
        2 -1    0    0  501    0 0.00000000E+00 0.00000000E+00 0.41701736E+04 0.41701736E+04 0.32000000E+00 0.0000E+00 0.9000E+01
       -1 -1    0    0    0  501 0.00000000E+00 0.00000000E+00 -.60918363E+02 0.60919203E+02 0.32000000E+00 0.0000E+00 0.9000E+01
       25  1    1    2    0    0 -.38879523E+03 -.23195841E+03 0.17808747E+04 0.18417671E+04 0.12500000E+03 0.0000E+00 0.9000E+01
        4  1    1    2  502    0 0.21880306E+03 0.12697919E+03 0.10407082E+04 0.10710156E+04 0.15500000E+01 0.0000E+00 0.9000E+01
       -3  1    1    2    0  503 0.13794488E+03 0.15966422E+03 0.83625471E+03 0.86246370E+03 0.50000000E+00 0.0000E+00 0.9000E+01
       21  1    1    2  503  502 0.32047288E+02 -.54684992E+02 0.45141757E+03 0.45584632E+03 0.75000000E+00 0.0000E+00 0.9000E+01
#aMCatNLO 2  0  0  5  2 0.14445195D+02 0.00000000D+00  -5  6  0 0.00000000D+00 0.00000000D+00 0.00000000D+00 0.00000000D+00 0.00000000D+00
  <mgrwgt>
 0.3343707632D-02    1    2    0
 0.504025742241026D+03 0.000000000000000D+00 0.000000000000000D+00 0.504025742241026D+03
 0.504025742241026D+03 -.000000000000000D+00 -.000000000000000D+00 -.504025742241026D+03
 0.510999320658924D+03 -.423836566627858D+03 -.253598301937988D+03 -.393163039610887D+02
 0.232450123941025D+03 0.201330717818849D+03 0.116181264419099D+03 -.957068819001625D+00
 0.264602039882102D+03 0.222505848809009D+03 0.137417037518889D+03 0.402733727800903D+02
 0.000000000000000D+00 0.000000000000000D+00 -.000000000000000D+00 0.000000000000000D+00
 0.504025742241026D+03 0.000000000000000D+00 0.000000000000000D+00 0.504025742241026D+03
 0.504025742241026D+03 -.000000000000000D+00 -.000000000000000D+00 -.504025742241026D+03
 0.470692049164451D+03 -.388677062173158D+03 -.231884198831672D+03 -.329524630227643D+02
 0.252879163017270D+03 0.218712898972052D+03 0.126916298363039D+03 0.218909145076690D+01
 0.211034432096938D+03 0.137694521195596D+03 0.159815055825981D+03 -.590747784856385D+01
 0.734458402033924D+02 0.322696420055101D+02 -.548471553573472D+02 0.366708494205613D+02
0.126798627460D-02 0.000000000000D+00 0.000000000000D+00 0.270328036358D-06 0.445623758363D-07  6 2 -1 25 4 -3 21 2 0.64156523D+00 0.93721214D-02 0.24849954D+06 0.24849954D+06 0.24849954D+06 0.10906558D+01  1  2  1  4  6  5       -3 0.334370763225D-02 0.100000000000D+01
  </mgrwgt>
  </event>
  <event>
  7     66 0.16549492E-05 0.48755880E+02 0.75467711E-02 0.94706922E-01
        2 -1    0    0  503    0 0.00000000E+00 0.00000000E+00 0.39492635E+03 0.39492648E+03 0.32000000E+00 0.0000E+00 0.9000E+01
       -1 -1    0    0    0  501 0.00000000E+00 0.00000000E+00 -.72330856E+03 0.72330863E+03 0.32000000E+00 0.0000E+00 0.9000E+01
       24  2    1    2    0    0 0.35803159E+02 0.47564167E+03 -.21189308E+03 0.52806541E+03 0.80234244E+02 0.0000E+00 0.0000E+00
       25  1    1    2    0    0 -.57800600E+02 -.46694039E+03 -.18260445E+03 0.51994579E+03 0.12500000E+03 0.0000E+00 0.9000E+01
        4  1    3    3  502    0 0.57400199E+02 0.30255880E+03 -.11650153E+03 0.32925919E+03 0.15500000E+01 0.0000E+00 0.9000E+01
       -3  1    3    3    0  502 -.21597041E+02 0.17308287E+03 -.95391541E+02 0.19880621E+03 0.50000000E+00 0.0000E+00 0.9000E+01
       21  1    1    2  503  501 0.21997442E+02 -.87012769E+01 0.66115323E+02 0.70223914E+02 0.75000000E+00 0.0000E+00 0.9000E+01
#aMCatNLO 2  0  0  1  2 0.82740751D+01 0.00000000D+00  -5  6  0 0.00000000D+00 0.00000000D+00 0.00000000D+00 0.00000000D+00 0.00000000D+00
  <mgrwgt>
 0.2538107156D-02    1    2    0
 0.485319371449232D+03 0.000000000000000D+00 0.000000000000000D+00 0.485319371449232D+03
 0.485319371449232D+03 0.000000000000000D+00 0.000000000000000D+00 -.485319371449232D+03
 0.490052062315517D+03 -.467304942601706D+02 -.471319267764840D+03 0.141574192389333D+02
 0.306691173253315D+03 0.643749052562358D+02 0.299751097287856D+03 0.803909195567914D+01
 0.173895507329631D+03 -.176444109960652D+02 0.171568170476984D+03 -.221965111946124D+02
 0.000000000000000D+00 0.000000000000000D+00 -.000000000000000D+00 0.000000000000000D+00
 0.586741615419662D+03 0.000000000000000D+00 0.000000000000000D+00 0.586741615419662D+03
 0.486844825612894D+03 0.000000000000000D+00 0.000000000000000D+00 -.486844825612894D+03
 0.487031489570140D+03 -.578006004819468D+02 -.466940392231524D+03 0.141574192389333D+02
 0.308010437361790D+03 0.574104935525758D+02 0.302505930114402D+03 0.803909195567914D+01
 0.175885036790566D+03 -.216073349141360D+02 0.173135739047473D+03 -.221965111946124D+02
 0.102659477310060D+03 0.219974418435071D+02 -.870127693035042D+01 0.998967898067681D+02
0.249738718322D-03 0.000000000000D+00 0.000000000000D+00 0.298014444711D-03 0.344487038264D-05  6 2 -1 25 4 -3 21 2 0.60757745D-01 0.11127794D+00 0.24644566D+06 0.24644566D+06 0.24644566D+06 0.10909273D+01  1  2  1  1  6  1        2 0.253810715552D-02 0.100000000000D+01
  </mgrwgt>
  </event>
  <event>
  7     66 0.16549492E-05 0.60129499E+02 0.75467711E-02 0.87744571E-01
        2 -1    0    0  503    0 0.00000000E+00 0.00000000E+00 0.10019230E+04 0.10019231E+04 0.32000000E+00 0.0000E+00 0.9000E+01
       -1 -1    0    0    0  501 0.00000000E+00 0.00000000E+00 -.99166558E+03 0.99166563E+03 0.32000000E+00 0.0000E+00 0.9000E+01
       24  2    1    2    0    0 -.31972915E+03 -.88577100E+03 -.24192942E+03 0.97566155E+03 0.81047018E+02 0.0000E+00 0.0000E+00
       25  1    1    2    0    0 0.32747462E+03 0.89960755E+03 0.23333026E+03 0.99327810E+03 0.12500000E+03 0.0000E+00 0.9000E+01
        4  1    3    3  502    0 -.22002885E+03 -.50862522E+03 -.12086934E+03 0.56720729E+03 0.15500000E+01 0.0000E+00 0.9000E+01
       -3  1    3    3    0  502 -.99700306E+02 -.37714578E+03 -.12106008E+03 0.40845426E+03 0.50000000E+00 0.0000E+00 0.9000E+01
       21  1    1    2  503  501 -.77454694E+01 -.13836543E+02 0.18856599E+02 0.24649058E+02 0.75000000E+00 0.0000E+00 0.9000E+01
#aMCatNLO 2  0  0  1  2 0.82740751D+01 0.00000000D+00  -5  6  0 0.00000000D+00 0.00000000D+00 0.00000000D+00 0.00000000D+00 0.00000000D+00
  <mgrwgt>
 0.3120595843D-02    1    2    0
 0.984428508368471D+03 0.000000000000000D+00 0.000000000000000D+00 0.984428508368471D+03
 0.984428508368471D+03 0.000000000000000D+00 0.000000000000000D+00 -.984428508368471D+03
 0.986728416576616D+03 0.323577997317067D+03 0.892646595896824D+03 0.237670575725907D+03
 0.571014613803377D+03 -.222238309886214D+03 -.512503783698853D+03 -.118354106351656D+03
 0.411113986356949D+03 -.101339687430853D+03 -.380142812197971D+03 -.119316469374252D+03
 0.000000000000000D+00 -.000000000000000D+00 -.000000000000000D+00 0.000000000000000D+00
 0.100630269180771D+04 0.000000000000000D+00 0.000000000000000D+00 0.100630269180771D+04
 0.987338368436326D+03 0.000000000000000D+00 0.000000000000000D+00 -.987338368436326D+03
 0.994306627024412D+03 0.327474622970454D+03 0.899607546260667D+03 0.237670575725907D+03
 0.566557124464795D+03 -.220000746632489D+03 -.508506590195904D+03 -.118354106351656D+03
 0.408057119081985D+03 -.997284069266149D+02 -.377264413139422D+03 -.119316469374252D+03
 0.247201896728448D+02 -.774546941135063D+01 -.138365429253410D+02 0.189643233713847D+02
0.252196012883D-02 0.000000000000D+00 0.000000000000D+00 0.208759569522D-03 0.488375152554D-05  6 2 -1 25 4 -3 21 2 0.15414113D+00 0.15256307D+00 0.92700385D+06 0.92700385D+06 0.92700385D+06 0.10500623D+01  1  2  1  1  6  1        2 0.312059584266D-02 0.100000000000D+01
  </mgrwgt>
  </event>
  <event>
  7     66 0.16549492E-05 0.30012296E+02 0.75467711E-02 0.94972582E-01
        2 -1    0    0  503    0 0.00000000E+00 0.00000000E+00 0.27158584E+03 0.27158603E+03 0.32000000E+00 0.0000E+00 0.9000E+01
       -1 -1    0    0    0  501 0.00000000E+00 0.00000000E+00 -.12940448E+04 0.12940448E+04 0.32000000E+00 0.0000E+00 0.9000E+01
       24  2    1    2    0    0 0.47005532E+03 -.57269885E+02 -.95185464E+03 0.10662853E+04 0.81884962E+02 0.0000E+00 0.0000E+00
       25  1    1    2    0    0 -.45827750E+03 0.55296034E+02 -.79027467E+02 0.48471255E+03 0.12500000E+03 0.0000E+00 0.9000E+01
        4  1    3    3  502    0 0.39578643E+03 -.76452071E+02 -.77688899E+03 0.87524324E+03 0.15500000E+01 0.0000E+00 0.9000E+01
       -3  1    3    3    0  502 0.74268881E+02 0.19182187E+02 -.17496565E+03 0.19104201E+03 0.50000000E+00 0.0000E+00 0.9000E+01
       21  1    1    2  503  501 -.11777819E+02 0.19738508E+01 0.84231804E+01 0.14633031E+02 0.75000000E+00 0.0000E+00 0.9000E+01
#aMCatNLO 2  0  0  1  2 0.18450226D+02 0.00000000D+00  -5  6  0 0.00000000D+00 0.00000000D+00 0.00000000D+00 0.00000000D+00 0.00000000D+00
  <mgrwgt>
 0.9077747019D-02    1    2    0
 0.579381922850374D+03 0.000000000000000D+00 0.000000000000000D+00 0.579381922850374D+03
 0.579381922850374D+03 0.000000000000000D+00 0.000000000000000D+00 -.579381922850374D+03
 0.583230788698545D+03 -.464181062151080D+03 0.562854157314668D+02 0.325424409659383D+03
 0.476185296821181D+03 0.390913726717788D+03 -.756471666680778D+02 -.261182697258794D+03
 0.993477601810216D+02 0.732673354332912D+02 0.193617509366109D+02 -.642417124005893D+02
 0.000000000000000D+00 -.000000000000000D+00 0.000000000000000D+00 0.000000000000000D+00
 0.605092078346732D+03 0.000000000000000D+00 0.000000000000000D+00 0.605092078346732D+03
 0.580801091077404D+03 0.000000000000000D+00 0.000000000000000D+00 -.580801091077404D+03
 0.578447889580654D+03 -.458277495825958D+03 0.552960340136987D+02 0.325424409659383D+03
 0.480312738011002D+03 0.395774579976148D+03 -.764617995665191D+02 -.261182697258794D+03
 0.100064753223270D+03 0.742807352838293D+02 0.191919147342726D+02 -.642417124005893D+02
 0.270677886092103D+02 -.117778194340194D+02 0.197385081854780D+01 0.242909872693279D+02
0.319169403747D-02 0.000000000000D+00 0.000000000000D+00 0.396833579724D-04 0.177168811467D-05  6 2 -1 25 4 -3 21 2 0.41782081D-01 0.19908205D+00 0.23521620D+06 0.23521620D+06 0.23521620D+06 0.10924563D+01  1  2  1  1  6  1        2 0.907774701889D-02 0.100000000000D+01
  </mgrwgt>
  </event>
  <event>
  7     66 0.16549492E-05 0.10978419E+03 0.75467711E-02 0.91363420E-01
        2 -1    0    0  503    0 0.00000000E+00 0.00000000E+00 0.64716305E+03 0.64716313E+03 0.32000000E+00 0.0000E+00 0.9000E+01
       -1 -1    0    0    0  501 0.00000000E+00 0.00000000E+00 -.12909320E+04 0.12909320E+04 0.32000000E+00 0.0000E+00 0.9000E+01
       24  2    1    2    0    0 0.56708601E+03 0.16374424E+03 -.90160718E+03 0.10803143E+04 0.76056972E+02 0.0000E+00 0.0000E+00
       25  1    1    2    0    0 -.60176057E+03 -.30482538E+02 0.62139389E+02 0.61849113E+03 0.12500000E+03 0.0000E+00 0.9000E+01
        4  1    3    3  502    0 0.20615421E+03 0.25346002E+02 -.28777590E+03 0.35490752E+03 0.15500000E+01 0.0000E+00 0.9000E+01
       -3  1    3    3    0  502 0.36093179E+03 0.13839824E+03 -.61383128E+03 0.72540673E+03 0.50000000E+00 0.0000E+00 0.9000E+01
       21  1    1    2  503  501 0.34674566E+02 -.13326171E+03 0.19569883E+03 0.23928979E+03 0.75000000E+00 0.0000E+00 0.9000E+01
#aMCatNLO 2  0  0  1  2 0.18450226D+02 0.00000000D+00  -5  6  0 0.00000000D+00 0.00000000D+00 0.00000000D+00 0.00000000D+00 0.00000000D+00
  <mgrwgt>
 0.1334535663D-02    1    2    0
 0.735233390341007D+03 0.000000000000000D+00 0.000000000000000D+00 0.735233390341007D+03
 0.735233390341007D+03 0.000000000000000D+00 0.000000000000000D+00 -.735233390341007D+03
 0.738579381295525D+03 -.584286399462855D+03 -.976394930291689D+02 0.423025336449981D+03
 0.248105691613332D+03 0.211808106181957D+03 0.301835744071867D+01 -.129169074800831D+03
 0.483781707773157D+03 0.372478293280898D+03 0.946211355884502D+02 -.293856261649150D+03
 0.000000000000000D+00 0.000000000000000D+00 -.000000000000000D+00 0.000000000000000D+00
 0.111224591678824D+04 0.000000000000000D+00 0.000000000000000D+00 0.111224591678824D+04
 0.751131381928467D+03 0.000000000000000D+00 0.000000000000000D+00 -.751131381928467D+03
 0.746739853032710D+03 -.601760573384264D+03 -.304825384267025D+02 0.423025336449981D+03
 0.244470105624859D+03 0.206013153183648D+03 0.252895902429788D+02 -.129169074800831D+03
 0.485690024766534D+03 0.361072854453501D+03 0.138454654757808D+03 -.293856261649150D+03
 0.386477315292601D+03 0.346745657471155D+02 -.133261706574084D+03 0.361114534859770D+03
0.133629603350D-02 0.000000000000D+00 0.000000000000D+00 0.109650079282D-04 0.391903440882D-08  6 2 -1 25 4 -3 21 2 0.99563508D-01 0.19860484D+00 0.45382353D+06 0.45382353D+06 0.45382353D+06 0.10714974D+01  1  2  1  1  6  1        2 0.133453566273D-02 0.100000000000D+01
  </mgrwgt>
  </event>
  <event>
  7     66 0.16549492E-05 0.45474945E+02 0.75467711E-02 0.93333194E-01
        2 -1    0    0  503    0 0.00000000E+00 0.00000000E+00 0.18659641E+04 0.18659641E+04 0.32000000E+00 0.0000E+00 0.9000E+01
       -1 -1    0    0    0  501 0.00000000E+00 0.00000000E+00 -.25273014E+03 0.25273034E+03 0.32000000E+00 0.0000E+00 0.9000E+01
       24  2    1    2    0    0 -.38107632E+03 -.40088421E+03 0.33213836E+03 0.65036941E+03 0.82080239E+02 0.0000E+00 0.0000E+00
       25  1    1    2    0    0 0.35797074E+03 0.37812143E+03 0.67614729E+03 0.86250740E+03 0.12500000E+03 0.0000E+00 0.9000E+01
        4  1    3    3  502    0 -.12355561E+03 -.15832720E+03 0.16088124E+03 0.25732988E+03 0.15500000E+01 0.0000E+00 0.9000E+01
       -3  1    3    3    0  502 -.25752071E+03 -.24255701E+03 0.17125711E+03 0.39303953E+03 0.50000000E+00 0.0000E+00 0.9000E+01
       21  1    1    2  503  501 0.23105585E+02 0.22762783E+02 0.60494833E+03 0.60581768E+03 0.75000000E+00 0.0000E+00 0.9000E+01
#aMCatNLO 2  0  0  1  2 0.18450226D+02 0.00000000D+00  -5  6  0 0.00000000D+00 0.00000000D+00 0.00000000D+00 0.00000000D+00 0.00000000D+00
  <mgrwgt>
 0.1666324519D-02    1    2    0
 0.563716302339251D+03 0.000000000000000D+00 0.000000000000000D+00 0.563716302339251D+03
 0.563716302339251D+03 0.000000000000000D+00 0.000000000000000D+00 -.563716302339251D+03
 0.567657928053914D+03 0.369446188448895D+03 0.389426626559681D+03 0.135893118476958D+03
 0.195574544850036D+03 -.119403248909820D+03 -.154241777468628D+03 -.142035497815364D+02
 0.364200131774551D+03 -.250042939539075D+03 -.235184849091053D+03 -.121689568695422D+03
 0.000000000000000D+00 0.000000000000000D+00 0.000000000000000D+00 0.000000000000000D+00
 0.834780550092687D+03 0.000000000000000D+00 0.000000000000000D+00 0.834780550092687D+03
 0.564920626801859D+03 0.000000000000000D+00 0.000000000000000D+00 -.564920626801859D+03
 0.552458867220497D+03 0.357970735107447D+03 0.378121426433092D+03 0.135893118476958D+03
 0.201216638972656D+03 -.123468323851527D+03 -.158246541757948D+03 -.142035497815364D+02
 0.374223554197321D+03 -.257607995781727D+03 -.242637667925075D+03 -.121689568695422D+03
 0.271802116504074D+03 0.231055845258075D+02 0.227627832499306D+02 0.269859923290828D+03
0.200664043245D-03 0.000000000000D+00 0.000000000000D+00 0.879984151653D-04 0.561545494088D-06  6 2 -1 25 4 -3 21 2 0.28707116D+00 0.38881542D-01 0.31501257D+06 0.31501257D+06 0.31501257D+06 0.10829864D+01  1  2  1  1  6  1        2 0.166632451904D-02 0.100000000000D+01
  </mgrwgt>
  </event>
  <event>
  7     66 0.16549492E-05 0.17982940E+03 0.75467711E-02 0.91510422E-01
        2 -1    0    0  501    0 0.00000000E+00 0.00000000E+00 0.15514850E+04 0.15514850E+04 0.32000000E+00 0.0000E+00 0.9000E+01
       -1 -1    0    0    0  503 0.00000000E+00 0.00000000E+00 -.61693112E+03 0.61693121E+03 0.32000000E+00 0.0000E+00 0.9000E+01
       24  2    1    2    0    0 -.46624004E+03 -.24182438E+03 0.84831745E+03 0.10010746E+04 0.81541833E+02 0.0000E+00 0.0000E+00
       25  1    1    2    0    0 0.58825269E+03 0.90774733E+02 0.44893122E+03 0.75594016E+03 0.12500000E+03 0.0000E+00 0.9000E+01
        4  1    3    3  502    0 -.56283214E+02 -.16987423E+02 0.56736636E+02 0.81717936E+02 0.15500000E+01 0.0000E+00 0.9000E+01
       -3  1    3    3    0  502 -.40995683E+03 -.22483696E+03 0.79158081E+03 0.91935667E+03 0.50000000E+00 0.0000E+00 0.9000E+01
       21  1    1    2  501  503 -.12201265E+03 0.15104965E+03 -.36269480E+03 0.41140147E+03 0.75000000E+00 0.0000E+00 0.9000E+01
#aMCatNLO 2  0  0  2  1 0.74824483D+01 0.00000000D+00  -5  6  0 0.00000000D+00 0.00000000D+00 0.00000000D+00 0.00000000D+00 0.00000000D+00
  <mgrwgt>
 0.7683251421D-04    1    2    0
 0.584496297523218D+03 0.000000000000000D+00 0.000000000000000D+00 0.584496297523218D+03
 0.584496297523218D+03 0.000000000000000D+00 0.000000000000000D+00 -.584496297523218D+03
 0.588335470556591D+03 0.525135980807538D+03 0.168912177328812D+03 -.161908937141810D+03
 0.633568502022969D+02 -.624726864692899D+02 -.906348152703327D+01 -.539511033021765D+01
 0.517300274287548D+03 -.462663294338248D+03 -.159848695801779D+03 0.167304047472027D+03
 0.000000000000000D+00 -.000000000000000D+00 0.000000000000000D+00 -.000000000000000D+00
 0.601953188433603D+03 0.000000000000000D+00 0.000000000000000D+00 0.601953188433603D+03
 0.159008887550851D+04 0.000000000000000D+00 0.000000000000000D+00 -.159008887550851D+04
 0.629381270474204D+03 0.588252690199208D+03 0.907747331074460D+02 -.161908937141810D+03
 0.588755030637369D+02 -.561371376019716D+02 -.169067864300160D+02 -.539511033021765D+01
 0.496752411904221D+03 -.410102902791008D+03 -.224917592807960D+03 0.167304047472027D+03
 0.100703287849995D+04 -.122012649806228D+03 0.151049646130530D+03 -.988135687074907D+03
0.359849133206D-04 0.000000000000D+00 0.000000000000D+00 0.312804369785D-04 0.781996381123D-08  6 2 -1 25 4 -3 21 2 0.23868995D+00 0.94912468D-01 0.44138141D+06 0.44138141D+06 0.44138141D+06 0.10723590D+01  1  2  1  2  6  2       -1 0.768325142071D-04 0.100000000000D+01
  </mgrwgt>
  </event>
  <event>
  7     66 0.16549492E-05 0.32736610E+02 0.75467711E-02 0.94335443E-01
        2 -1    0    0  501    0 0.00000000E+00 0.00000000E+00 0.64573496E+03 0.64573503E+03 0.32000000E+00 0.0000E+00 0.9000E+01
       -1 -1    0    0    0  503 0.00000000E+00 0.00000000E+00 -.49501130E+03 0.49501140E+03 0.32000000E+00 0.0000E+00 0.9000E+01
       24  2    1    2    0    0 -.90079013E+02 0.46883900E+03 -.79374731E+02 0.49042682E+03 0.79333965E+02 0.0000E+00 0.0000E+00
       25  1    1    2    0    0 0.95764155E+02 -.49310191E+03 0.28436475E+03 0.59060019E+03 0.12500000E+03 0.0000E+00 0.9000E+01
        4  1    3    3  502    0 -.10069221E+03 0.35181894E+03 -.50367263E+02 0.36939782E+03 0.15500000E+01 0.0000E+00 0.9000E+01
       -3  1    3    3    0  502 0.10613194E+02 0.11702007E+03 -.29007468E+02 0.12102900E+03 0.50000000E+00 0.0000E+00 0.9000E+01
       21  1    1    2  501  503 -.56851421E+01 0.24262908E+02 -.54266367E+02 0.59719432E+02 0.75000000E+00 0.0000E+00 0.9000E+01
#aMCatNLO 2  0  0  2  1 0.74824483D+01 0.00000000D+00  -5  6  0 0.00000000D+00 0.00000000D+00 0.00000000D+00 0.00000000D+00 0.00000000D+00
  <mgrwgt>
 0.1173722905D-02    1    2    0
 0.530560427305403D+03 0.000000000000000D+00 0.000000000000000D+00 0.530560427305403D+03
 0.530560427305403D+03 0.000000000000000D+00 0.000000000000000D+00 -.530560427305403D+03
 0.534957250709219D+03 0.928672517348382D+02 -.480738580527171D+03 0.175557257993810D+03
 0.394607033008180D+03 -.102790873030966D+03 0.360710486351468D+03 -.122624189934687D+03
 0.131556570893407D+03 0.992362129612741D+01 0.120028094175703D+03 -.529330680591226D+02
 0.000000000000000D+00 -.000000000000000D+00 0.000000000000000D+00 -.000000000000000D+00
 0.532955094744265D+03 0.000000000000000D+00 0.000000000000000D+00 0.532955094744265D+03
 0.599757560470004D+03 0.000000000000000D+00 0.000000000000000D+00 -.599757560470004D+03
 0.546594564901008D+03 0.957641546214701D+02 -.493101910597244D+03 0.175557257993810D+03
 0.385917342184689D+03 -.100700262777302D+03 0.351788231921334D+03 -.122624189934687D+03
 0.128901526796452D+03 0.106212502068779D+02 0.117050770866097D+03 -.529330680591226D+02
 0.712992213321196D+02 -.568514205104558D+01 0.242629078098135D+02 -.668024657257388D+02
0.894714457801D-04 0.000000000000D+00 0.000000000000D+00 0.990726001086D-04 0.101370018254D-05  6 2 -1 25 4 -3 21 2 0.99343487D-01 0.76155318D-01 0.26317073D+06 0.26317073D+06 0.26317073D+06 0.10887856D+01  1  2  1  2  6  2       -1 0.117372290525D-02 0.100000000000D+01
  </mgrwgt>
  </event>
  <event>
  7     66 0.16549492E-05 0.42299701E+02 0.75467711E-02 0.92890244E-01
        2 -1    0    0  501    0 0.00000000E+00 0.00000000E+00 0.24082580E+04 0.24082581E+04 0.32000000E+00 0.0000E+00 0.9000E+01
       -1 -1    0    0    0  503 0.00000000E+00 0.00000000E+00 -.15427855E+03 0.15427888E+03 0.32000000E+00 0.0000E+00 0.9000E+01
       24  2    1    2    0    0 -.53732114E+03 0.19085435E+03 0.86062281E+03 0.10358155E+04 0.84277577E+02 0.0000E+00 0.0000E+00
       25  1    1    2    0    0 0.52090214E+03 -.16239405E+03 0.13834365E+04 0.14923915E+04 0.12500000E+03 0.0000E+00 0.9000E+01
        4  1    3    3  502    0 -.16000674E+03 0.97727189E+02 0.29507258E+03 0.34960405E+03 0.15500000E+01 0.0000E+00 0.9000E+01
       -3  1    3    3    0  502 -.37731441E+03 0.93127157E+02 0.56555023E+03 0.68621144E+03 0.50000000E+00 0.0000E+00 0.9000E+01
       21  1    1    2  501  503 0.16419005E+02 -.28460301E+02 0.99201622E+01 0.34329937E+02 0.75000000E+00 0.0000E+00 0.9000E+01
#aMCatNLO 2  0  0  2  1 0.74824483D+01 0.00000000D+00  -5  6  0 0.00000000D+00 0.00000000D+00 0.00000000D+00 0.00000000D+00 0.00000000D+00
  <mgrwgt>
 0.1433660931D-02    1    2    0
 0.582011350847847D+03 0.000000000000000D+00 0.000000000000000D+00 0.582011350847847D+03
 0.582011350847847D+03 0.000000000000000D+00 0.000000000000000D+00 -.582011350847847D+03
 0.585672057577451D+03 0.529080211617950D+03 -.176569718370101D+03 0.127608868249874D+03
 0.185697007788711D+03 -.157233673639739D+03 0.931039003978502D+02 -.330547168516045D+02
 0.392653636329533D+03 -.371846537978211D+03 0.834658179722504D+02 -.945541513982698D+02
 0.000000000000000D+00 0.000000000000000D+00 -.000000000000000D+00 -.000000000000000D+00
 0.587639407404688D+03 0.000000000000000D+00 0.000000000000000D+00 0.587639407404688D+03
 0.632258195116180D+03 0.000000000000000D+00 0.000000000000000D+00 -.632258195116180D+03
 0.574125322899170D+03 0.520902137746720D+03 -.162394045546502D+03 0.127608868249874D+03
 0.190265201026780D+03 -.159884694213023D+03 0.976991144894838D+02 -.330547168516045D+02
 0.400095810259490D+03 -.377436448461469D+03 0.931552318087577D+02 -.945541513982698D+02
 0.554112683354285D+02 0.164190049277724D+02 -.284603007517398D+02 -.446187877114918D+02
0.151113293956D-03 0.000000000000D+00 0.000000000000D+00 0.161526961192D-04 0.935302685748D-07  6 2 -1 25 4 -3 21 2 0.37049968D+00 0.23735087D-01 0.34149720D+06 0.34149720D+06 0.34149720D+06 0.10804135D+01  1  2  1  2  6  2       -1 0.143366093111D-02 0.100000000000D+01
  </mgrwgt>
  </event>
  <event>
  7     66 0.16549492E-05 0.57156805E+02 0.75467711E-02 0.94157164E-01
        2 -1    0    0  501    0 0.00000000E+00 0.00000000E+00 0.11681702E+04 0.11681702E+04 0.32000000E+00 0.0000E+00 0.9000E+01
       -1 -1    0    0    0  503 0.00000000E+00 0.00000000E+00 -.27866182E+03 0.27866200E+03 0.32000000E+00 0.0000E+00 0.9000E+01
       24  2    1    2    0    0 0.49127730E+03 0.98042274E+02 0.65650843E+03 0.82989861E+03 0.82235641E+02 0.0000E+00 0.0000E+00
       25  1    1    2    0    0 -.50316590E+03 -.88021296E+02 0.25933073E+03 0.58634554E+03 0.12500000E+03 0.0000E+00 0.9000E+01
        4  1    3    3  502    0 0.30143476E+03 0.60935809E+02 0.46651967E+03 0.55876569E+03 0.15500000E+01 0.0000E+00 0.9000E+01
       -3  1    3    3    0  502 0.18984254E+03 0.37106466E+02 0.18998876E+03 0.27113292E+03 0.50000000E+00 0.0000E+00 0.9000E+01
       21  1    1    2  501  503 0.11888596E+02 -.10020978E+02 -.26330784E+02 0.30588092E+02 0.75000000E+00 0.0000E+00 0.9000E+01
#aMCatNLO 2  0  0  2  1 0.14632344D+02 0.00000000D+00  -5  6  0 0.00000000D+00 0.00000000D+00 0.00000000D+00 0.00000000D+00 0.00000000D+00
  <mgrwgt>
 0.1701630711D-02    1    2    0
 0.540079707220149D+03 0.000000000000000D+00 0.000000000000000D+00 0.540079707220149D+03
 0.540079707220149D+03 0.000000000000000D+00 0.000000000000000D+00 -.540079707220149D+03
 0.544182018246582D+03 -.497151089106706D+03 -.930912183433923D+02 -.157111071062108D+03
 0.339767372124750D+03 0.305102502769908D+03 0.577858357624692D+02 0.137895348541312D+03
 0.196210024068965D+03 0.192048586336798D+03 0.353053825809231D+02 0.192157225207959D+02
 0.000000000000000D+00 0.000000000000000D+00 -.000000000000000D+00 -.000000000000000D+00
 0.541119448454236D+03 0.000000000000000D+00 0.000000000000000D+00 0.541119448454236D+03
 0.601571224769055D+03 0.000000000000000D+00 0.000000000000000D+00 -.601571224769055D+03
 0.548846569566265D+03 -.503165896769827D+03 -.880212962991900D+02 -.157111071062108D+03
 0.336980608633883D+03 0.301378438288837D+03 0.609248748912472D+02 0.137895348541312D+03
 0.194444139256146D+03 0.189898862458212D+03 0.371173993720525D+02 0.192157225207959D+02
 0.624193557669965D+02 0.118885960227787D+02 -.100209779641097D+02 -.604517763148187D+02
0.983910173932D-04 0.000000000000D+00 0.000000000000D+00 0.804404574885D-04 0.211267656836D-05  6 2 -1 25 4 -3 21 2 0.17971776D+00 0.42870888D-01 0.27164670D+06 0.27164670D+06 0.27164670D+06 0.10877563D+01  1  2  1  2  6  2       -1 0.170163071130D-02 0.100000000000D+01
  </mgrwgt>
  </event>
  <event>
  6     66 0.16549492E-05 0.14400796E+02 0.75467711E-02 0.90714570E-01
        2 -1    0    0  501    0 0.00000000E+00 0.00000000E+00 0.18440401E+04 0.18440402E+04 0.32000000E+00 0.0000E+00 0.9000E+01
       -1 -1    0    0    0  501 0.00000000E+00 0.00000000E+00 -.20411138E+03 0.20411164E+03 0.32000000E+00 0.0000E+00 0.9000E+01
       24  2    1    2    0    0 0.20226509E+03 0.56966744E+03 0.79415656E+03 0.10010664E+04 0.77570621E+02 0.0000E+00 0.0000E+00
       25  1    1    2    0    0 -.20226509E+03 -.56966744E+03 0.84577220E+03 0.10470854E+04 0.12500000E+03 0.0000E+00 0.9000E+01
        4  1    3    3  502    0 -.70466225E+01 0.18296959E+02 0.23782166E+02 0.30861425E+02 0.15500000E+01 0.0000E+00 0.9000E+01
       -3  1    3    3    0  502 0.20931171E+03 0.55137048E+03 0.77037440E+03 0.97020501E+03 0.50000000E+00 0.0000E+00 0.9000E+01
#aMCatNLO 1  0  0  2  1 0.14632344D+02 0.00000000D+00  -5  6  0 0.00000000D+00 0.00000000D+00 0.00000000D+00 0.00000000D+00 0.00000000D+00
  <mgrwgt>
 0.1404680533D-03    7    4    0
 0.613506212114058D+03 0.000000000000000D+00 0.000000000000000D+00 0.613506212114058D+03
 0.613506212114058D+03 0.000000000000000D+00 0.000000000000000D+00 -.613506212114058D+03
 0.617421330924500D+03 -.202265092178351D+03 -.569667443653082D+03 0.123262325317430D+02
 0.194942699042610D+02 -.713052806813129D+01 0.180774670996974D+02 -.154509282217196D+01
 0.590096823399356D+03 0.209395620246483D+03 0.551589976553385D+03 -.107811397095710D+02
 0.000000000000000D+00 0.000000000000000D+00 0.000000000000000D+00 -.000000000000000D+00
 0.650380253237611D+03 0.000000000000000D+00 0.000000000000000D+00 0.650380253237611D+03
 0.933292210191204D+03 0.000000000000000D+00 0.000000000000000D+00 -.933292210191204D+03
 0.718146531518222D+03 -.252272032187121D+03 -.660542448673366D+03 0.123262325317430D+02
 0.177930822311615D+02 -.852665808425160D+01 0.155403528071281D+02 -.154509282217196D+01
 0.505964528704739D+03 0.168356392048559D+03 0.477011526685009D+03 -.107811397095710D+02
 0.341768320974692D+03 0.924422982228131D+02 0.167990569181229D+03 -.282911956953593D+03
 0.613506212114058D+03 0.000000000000000D+00 0.000000000000000D+00 0.613506212114058D+03
 0.613506212114058D+03 0.000000000000000D+00 0.000000000000000D+00 -.613506212114058D+03
 0.617421330924500D+03 -.202265092178351D+03 -.569667443653082D+03 0.123262325317430D+02
 0.194942699042610D+02 -.713052806813129D+01 0.180774670996974D+02 -.154509282217196D+01
 0.000000000000000D+00 0.000000000000000D+00 0.000000000000000D+00 -.000000000000000D+00
 0.590096823399356D+03 0.209395620246483D+03 0.551589976553385D+03 -.107811397095710D+02
 0.650380253237611D+03 0.000000000000000D+00 0.000000000000000D+00 0.650380253237611D+03
 0.933292210191204D+03 0.000000000000000D+00 0.000000000000000D+00 -.933292210191204D+03
 0.718146531518222D+03 -.252272032187121D+03 -.660542448673366D+03 0.123262325317430D+02
 0.177930822311615D+02 -.852665808425160D+01 0.155403528071281D+02 -.154509282217196D+01
 0.341768320974692D+03 0.924422982228131D+02 0.167990569181229D+03 -.282911956953593D+03
 0.505964528704739D+03 0.168356392048559D+03 0.477011526685009D+03 -.107811397095710D+02
0.642828431113D-05 0.000000000000D+00 0.000000000000D+00 0.395287046352D-05 0.000000000000D+00  6 2 -1 25 4 -3 21 0 0.28369851D+00 0.31401773D-01 0.37621635D+06 0.37621635D+06 0.37621635D+06 0.10773521D+01  1  2  2  2  6  2       -1 0.671110850332D-04 0.100000000000D+01
0.295129121475D-05 0.000000000000D+00 -.246863043609D-07 0.395287046352D-05 0.000000000000D+00  6 2 -1 25 4 -3 21 2 0.28369851D+00 0.31401773D-01 0.37621635D+06 0.37621635D+06 0.37621635D+06 0.10773521D+01  1  2  3  2  6  2       -1 0.357623915341D-04 0.100000000000D+01
-.208920968539D-05 0.000000000000D+00 0.000000000000D+00 0.395287046352D-05 0.000000000000D+00  6 2 -1 25 4 -3 21 2 0.28369851D+00 0.31401773D-01 0.37621635D+06 0.37621635D+06 0.37621635D+06 0.10773521D+01  1  2 15  2  6  2       -1 -.253160834797D-04 0.100000000000D+01
-.291860966965D-06 0.000000000000D+00 0.000000000000D+00 0.395287046352D-05 0.000000000000D+00  6 2 -1 25 4 -3 21 2 0.28369851D+00 0.31401773D-01 0.37621635D+06 0.37621635D+06 0.37621635D+06 0.10773521D+01  1  2  4  2  6  2       -1 -.353663715799D-05 0.100000000000D+01
-.141797062322D-04 0.000000000000D+00 -.288504256483D-05 0.395287046352D-05 0.000000000000D+00  6 2 -1 25 4 -3 21 2 0.28369851D+00 0.50033245D-01 0.37621635D+06 0.37621635D+06 0.37621635D+06 0.10773521D+01  1  2  5  2  6  2       -1 -.757081668336D-04 0.100000000000D+01
0.142377641137D-04 0.000000000000D+00 0.259803312022D-05 0.395287046352D-05 0.000000000000D+00  6 2 -1 25 4 -3 21 2 0.28369851D+00 0.31401773D-01 0.37621635D+06 0.37621635D+06 0.37621635D+06 0.10773521D+01  1  2  6  2  6  2       -1 0.172526686712D-03 0.100000000000D+01
-.636755617469D-06 0.000000000000D+00 -.153928106877D-06 0.395287046352D-05 0.000000000000D+00  6 2 21 25 4 1 -3 2 0.28369851D+00 0.50033245D-01 0.37621635D+06 0.37621635D+06 0.37621635D+06 0.10773521D+01  3  4  5  6  5  2       -1 -.303712225414D-04 0.100000000000D+01
  </mgrwgt>
  </event>
  <event>
  7     66 0.16549492E-05 0.26910491E+02 0.75467711E-02 0.90401693E-01
        2 -1    0    0  501    0 0.00000000E+00 0.00000000E+00 0.12315956E+04 0.12315957E+04 0.32000000E+00 0.0000E+00 0.9000E+01
       21 -1    0    0  503  501 0.00000000E+00 0.00000000E+00 -.56011692E+03 0.56011742E+03 0.75000000E+00 0.0000E+00 0.9000E+01
       24  2    1    2    0    0 0.29833833E+02 0.72800111E+03 0.54947331E+03 0.91623508E+03 0.81793243E+02 0.0000E+00 0.0000E+00
       25  1    1    2    0    0 -.18614076E+02 -.72377876E+03 0.22762360E+03 0.76918118E+03 0.12500000E+03 0.0000E+00 0.9000E+01
        4  1    3    3  502    0 0.73884885E+01 0.62864236E+03 0.49843594E+03 0.80230082E+03 0.15500000E+01 0.0000E+00 0.9000E+01
        1  1    1    2  503    0 -.11219757E+02 -.42223417E+01 -.10561820E+03 0.10629684E+03 0.32000000E+00 0.0000E+00 0.9000E+01
       -3  1    3    3    0  502 0.22445345E+02 0.99358741E+02 0.51037370E+02 0.11393426E+03 0.50000000E+00 0.0000E+00 0.9000E+01
#aMCatNLO 2  0  0  2  1 0.27682007D+03 0.00000000D+00  -5  6  0 0.00000000D+00 0.00000000D+00 0.00000000D+00 0.00000000D+00 0.00000000D+00
  <mgrwgt>
 0.2074052404D-03    1    2    0
 0.747764107770756D+03 0.000000000000000D+00 0.000000000000000D+00 0.747764107770756D+03
 0.747764107770756D+03 0.000000000000000D+00 0.000000000000000D+00 -.747764107770756D+03
 0.750751301638623D+03 -.242379955764625D+02 -.725895218575206D+03 -.143147365089885D+03
 0.643332598831007D+03 0.254757891922582D+01 0.626811323510986D+03 0.144837520272592D+03
 0.000000000000000D+00 -.000000000000000D+00 -.000000000000000D+00 -.000000000000000D+00
 0.101444315071883D+03 0.216904166572367D+02 0.990838950642200D+02 -.169015518270719D+01
 0.747994065339503D+03 0.000000000000000D+00 0.000000000000000D+00 0.747994065339503D+03
 0.922250326021375D+03 0.000000000000000D+00 0.000000000000000D+00 -.922250326021375D+03
 0.748544154144353D+03 -.186140758825583D+02 -.723778763677511D+03 -.143147365089885D+03
 0.645142062836817D+03 0.738070103461705D+01 0.628630176824870D+03 0.144837520272592D+03
 0.174668129645121D+03 -.112197574609385D+02 -.422234169788852D+01 -.174256260681873D+03
 0.101890044734587D+03 0.224531323088798D+02 0.993709285505299D+02 -.169015518270719D+01
0.737901237894D-05 0.000000000000D+00 0.000000000000D+00 0.597876468423D-04 0.765383519344D-07  6 2 21 25 4 1 -3 2 0.18947626D+00 0.86171859D-01 0.54557931D+06 0.54557931D+06 0.54557931D+06 0.10658429D+01  1  2  1  6  5  2       -1 0.207405240366D-03 0.100000000000D+01
  </mgrwgt>
  </event>
  <event>
  7     66 0.16549492E-05 0.33268409E+02 0.75467711E-02 0.92785516E-01
        2 -1    0    0  503    0 0.00000000E+00 0.00000000E+00 0.96396442E+03 0.96396447E+03 0.32000000E+00 0.0000E+00 0.9000E+01
       -1 -1    0    0    0  501 0.00000000E+00 0.00000000E+00 -.36493326E+03 0.36493340E+03 0.32000000E+00 0.0000E+00 0.9000E+01
       24  2    1    2    0    0 0.31700607E+03 0.48034543E+03 0.27489071E+03 0.64279815E+03 0.79999800E+02 0.0000E+00 0.0000E+00
       25  1    1    2    0    0 -.28598976E+03 -.47966585E+03 0.29639490E+03 0.64447220E+03 0.12500000E+03 0.0000E+00 0.9000E+01
        4  1    3    3  502    0 0.21725788E+03 0.35938190E+03 0.23409708E+03 0.48079120E+03 0.15500000E+01 0.0000E+00 0.9000E+01
       -3  1    3    3    0  502 0.99748196E+02 0.12096354E+03 0.40793624E+02 0.16200694E+03 0.50000000E+00 0.0000E+00 0.9000E+01
       21  1    1    2  503  501 -.31016310E+02 -.67958415E+00 0.27745548E+02 0.41627530E+02 0.75000000E+00 0.0000E+00 0.9000E+01
#aMCatNLO 2  0  0  1  2 0.16941345D+02 0.00000000D+00  -5  6  0 0.00000000D+00 0.00000000D+00 0.00000000D+00 0.00000000D+00 0.00000000D+00
  <mgrwgt>
 0.7866507211D-03    1    2    0
 0.576570726107303D+03 0.000000000000000D+00 0.000000000000000D+00 0.576570726107303D+03
 0.576570726107303D+03 0.000000000000000D+00 0.000000000000000D+00 -.576570726107303D+03
 0.580570682955190D+03 -.301492663966373D+03 -.480005526412872D+03 0.115838721771841D+02
 0.414640814045232D+03 0.205998873106160D+03 0.359104462072022D+03 0.231398848538361D+02
 0.157929955214183D+03 0.954937908602133D+02 0.120901064340850D+03 -.347237570310202D+02
 0.000000000000000D+00 -.000000000000000D+00 -.000000000000000D+00 0.000000000000000D+00
 0.598304060945123D+03 0.000000000000000D+00 0.000000000000000D+00 0.598304060945123D+03
 0.587958054799000D+03 0.000000000000000D+00 0.000000000000000D+00 -.587958054799000D+03
 0.572388555478978D+03 -.285989764133074D+03 -.479665849482536D+03 0.115838721771841D+02
 0.420543278148786D+03 0.217228910467440D+03 0.359350518271795D+03 0.231398848538361D+02
 0.160626869756006D+03 0.997771639267527D+02 0.120994915364231D+03 -.347237570310202D+02
 0.327034123603529D+02 -.310163102611190D+02 -.679584153489869D+00 0.103460061461227D+02
0.571098685894D-04 0.000000000000D+00 0.000000000000D+00 0.254314796502D-03 0.164415054384D-05  6 2 -1 25 4 -3 21 2 0.14830115D+00 0.56143185D-01 0.34811769D+06 0.34811769D+06 0.34811769D+06 0.10798042D+01  1  2  1  1  6  1        2 0.786650721057D-03 0.100000000000D+01
  </mgrwgt>
  </event>
  <event>
  7     66 0.16549492E-05 0.54208420E+02 0.75467711E-02 0.92675525E-01
        2 -1    0    0  503    0 0.00000000E+00 0.00000000E+00 0.20969680E+04 0.20969680E+04 0.32000000E+00 0.0000E+00 0.9000E+01
       -1 -1    0    0    0  501 0.00000000E+00 0.00000000E+00 -.21706548E+03 0.21706572E+03 0.32000000E+00 0.0000E+00 0.9000E+01
       24  2    1    2    0    0 0.56961917E+03 -.14333053E+03 0.83082676E+03 0.10205014E+04 0.78360884E+02 0.0000E+00 0.0000E+00
       25  1    1    2    0    0 -.48913645E+03 0.14078496E+03 0.45512011E+03 0.69414277E+03 0.12500000E+03 0.0000E+00 0.9000E+01
        4  1    3    3  502    0 0.17797251E+03 -.45125715E+02 0.32502902E+03 0.37330525E+03 0.15500000E+01 0.0000E+00 0.9000E+01
       -3  1    3    3    0  502 0.39164666E+03 -.98204817E+02 0.50579774E+03 0.64719618E+03 0.50000000E+00 0.0000E+00 0.9000E+01
       21  1    1    2  503  501 -.80482721E+02 0.25455760E+01 0.59395561E+03 0.59938951E+03 0.75000000E+00 0.0000E+00 0.9000E+01
#aMCatNLO 2  0  0  1  2 0.16941345D+02 0.00000000D+00  -5  6  0 0.00000000D+00 0.00000000D+00 0.00000000D+00 0.00000000D+00 0.00000000D+00
  <mgrwgt>
 0.7338767656D-03    1    2    0
 0.565654808084229D+03 0.000000000000000D+00 0.000000000000000D+00 0.565654808084229D+03
 0.565654808084229D+03 0.000000000000000D+00 0.000000000000000D+00 -.565654808084229D+03
 0.569846663189896D+03 -.528329405679811D+03 0.142024584056044D+03 -.989811909727504D+02
 0.183431807260798D+03 0.164357936877582D+03 -.446631184566396D+02 0.681094879589865D+02
 0.378031145717765D+03 0.363971468802229D+03 -.973614655994044D+02 0.308717030137639D+02
 0.000000000000000D+00 -.000000000000000D+00 0.000000000000000D+00 0.000000000000000D+00
 0.792616951219782D+03 0.000000000000000D+00 0.000000000000000D+00 0.792616951219782D+03
 0.574273260411677D+03 0.000000000000000D+00 0.000000000000000D+00 -.574273260411677D+03
 0.533382740715332D+03 -.489136451412696D+03 0.140784955964800D+03 -.989811909727504D+02
 0.195688982884874D+03 0.177826453703996D+03 -.450891121618253D+02 0.681094879589865D+02
 0.405099954779401D+03 0.391792719122691D+03 -.982414197665677D+02 0.308717030137639D+02
 0.232718533251853D+03 -.804827214139908D+02 0.254557596359349D+01 0.218343690808105D+03
0.921276271161D-04 0.000000000000D+00 0.000000000000D+00 0.646611942848D-04 0.658305542462D-07  6 2 -1 25 4 -3 21 2 0.32261014D+00 0.33394675D-01 0.35522602D+06 0.35522602D+06 0.35522602D+06 0.10791640D+01  1  2  1  1  6  1        2 0.733876765567D-03 0.100000000000D+01
  </mgrwgt>
  </event>
  <event>
  7     66 0.16549492E-05 0.50954148E+02 0.75467711E-02 0.92579647E-01
        2 -1    0    0  501    0 0.00000000E+00 0.00000000E+00 0.65280317E+03 0.65280324E+03 0.32000000E+00 0.0000E+00 0.9000E+01
       -1 -1    0    0    0  503 0.00000000E+00 0.00000000E+00 -.86575764E+03 0.86575770E+03 0.32000000E+00 0.0000E+00 0.9000E+01
       24  2    1    2    0    0 -.24898149E+03 0.51419519E+03 0.11091143E+03 0.58856033E+03 0.87826193E+02 0.0000E+00 0.0000E+00
       25  1    1    2    0    0 0.25268387E+03 -.53729667E+03 -.14792181E+01 0.60676522E+03 0.12500000E+03 0.0000E+00 0.9000E+01
        4  1    3    3  502    0 -.68915266E+02 0.18125064E+03 0.76574168E+02 0.20848768E+03 0.15500000E+01 0.0000E+00 0.9000E+01
       -3  1    3    3    0  502 -.18006622E+03 0.33294455E+03 0.34337257E+02 0.38007265E+03 0.50000000E+00 0.0000E+00 0.9000E+01
       21  1    1    2  501  503 -.37023825E+01 0.23101476E+02 -.32238668E+03 0.32323539E+03 0.75000000E+00 0.0000E+00 0.9000E+01
#aMCatNLO 2  0  0  2  1 0.13334505D+03 0.00000000D+00  -5  6  0 0.00000000D+00 0.00000000D+00 0.00000000D+00 0.00000000D+00 0.00000000D+00
  <mgrwgt>
 0.1004519335D-02    1    2    0
 0.595037892741807D+03 0.000000000000000D+00 0.000000000000000D+00 0.595037892741807D+03
 0.595037892741807D+03 0.000000000000000D+00 0.000000000000000D+00 -.595037892741807D+03
 0.598361868051259D+03 0.250805255772813D+03 -.525574821142466D+03 -.572691557087319D+02
 0.205985405805771D+03 -.694963058944189D+02 0.185114345342485D+03 0.577315340210258D+02
 0.385728511626584D+03 -.181308949878394D+03 0.340460475799982D+03 -.462378312293893D+00
 0.000000000000000D+00 -.000000000000000D+00 0.000000000000000D+00 -.000000000000000D+00
 0.595539607342251D+03 0.000000000000000D+00 0.000000000000000D+00 0.595539607342251D+03
 0.949002674673309D+03 0.000000000000000D+00 0.000000000000000D+00 -.949002674673309D+03
 0.609460093058923D+03 0.252683870137158D+03 -.537296669083578D+03 -.572691557087319D+02
 0.202215604935487D+03 -.688614008281012D+02 0.181152776227680D+03 0.577315340210258D+02
 0.378630044676139D+03 -.180120086776369D+03 0.333042416634015D+03 -.462378312293893D+00
 0.354236539345010D+03 -.370238253268843D+01 0.231014762218834D+02 -.353463067331059D+03
0.285352699695D-03 0.000000000000D+00 0.000000000000D+00 0.576934242282D-05 0.727610466826D-07  6 2 -1 25 4 -3 21 2 0.10043120D+00 0.13319340D+00 0.36155501D+06 0.36155501D+06 0.36155501D+06 0.10786057D+01  1  2  1  2  6  2       -1 0.100451933475D-02 0.100000000000D+01
  </mgrwgt>
  </event>
  <event>
  7     66 0.16549492E-05 0.26070968E+02 0.75467711E-02 0.88821220E-01
        2 -1    0    0  503    0 0.00000000E+00 0.00000000E+00 0.23828266E+04 0.23828267E+04 0.32000000E+00 0.0000E+00 0.9000E+01
       -1 -1    0    0    0  501 0.00000000E+00 0.00000000E+00 -.45256144E+03 0.45256155E+03 0.32000000E+00 0.0000E+00 0.9000E+01
       24  2    1    2    0    0 -.21401190E+03 -.79023091E+03 0.29363967E+03 0.87341480E+03 0.79769516E+02 0.0000E+00 0.0000E+00
       25  1    1    2    0    0 0.20608106E+03 0.83131059E+03 0.99418387E+03 0.13181704E+04 0.12500000E+03 0.0000E+00 0.9000E+01
        4  1    3    3  502    0 -.16382443E+03 -.58478289E+03 0.18045375E+03 0.63354198E+03 0.15500000E+01 0.0000E+00 0.9000E+01
       -3  1    3    3    0  502 -.50187466E+02 -.20544801E+03 0.11318593E+03 0.23987283E+03 0.50000000E+00 0.0000E+00 0.9000E+01
       21  1    1    2  503  501 0.79308425E+01 -.41079676E+02 0.64244166E+03 0.64380299E+03 0.75000000E+00 0.0000E+00 0.9000E+01
#aMCatNLO 2  0  0  1  2 0.16941345D+02 0.00000000D+00  -5  6  0 0.00000000D+00 0.00000000D+00 0.00000000D+00 0.00000000D+00 0.00000000D+00
  <mgrwgt>
 0.6545681116D-03    1    2    0
 0.886398031556535D+03 0.000000000000000D+00 0.000000000000000D+00 0.886398031556535D+03
 0.886398031556535D+03 0.000000000000000D+00 0.000000000000000D+00 -.886398031556535D+03
 0.889010239601427D+03 0.210098066496826D+03 0.810503534394170D+03 0.271398285376016D+03
 0.664877308920472D+03 -.160866983535847D+03 -.599982265725444D+03 -.237075790287344D+03
 0.218908514591170D+03 -.492310829609790D+02 -.210521268668726D+03 -.343224950886723D+02
 0.000000000000000D+00 0.000000000000000D+00 -.000000000000000D+00 0.000000000000000D+00
 0.121441321779657D+04 0.000000000000000D+00 0.000000000000000D+00 0.121441321779657D+04
 0.887979962437728D+03 0.000000000000000D+00 0.000000000000000D+00 -.887979962437728D+03
 0.907099069278142D+03 0.206081057044714D+03 0.831310585826719D+03 0.271398285376016D+03
 0.651879160645424D+03 -.163811917431700D+03 -.584728283436643D+03 -.237075790287344D+03
 0.214311458604095D+03 -.501999820800726D+02 -.205502626306973D+03 -.343224950886723D+02
 0.329103491706635D+03 0.793084246705864D+01 -.410796760831029D+02 0.326433255358839D+03
0.497762381592D-03 0.000000000000D+00 0.000000000000D+00 0.114606163456D-03 0.410590985155D-06  6 2 -1 25 4 -3 21 2 0.36658855D+00 0.69624813D-01 0.74491690D+06 0.74491690D+06 0.74491690D+06 0.10564849D+01  1  2  1  1  6  1        2 0.654568111601D-03 0.100000000000D+01
  </mgrwgt>
  </event>
  <event>
  7     66 0.16549492E-05 0.59772216E+02 0.75467711E-02 0.93030381E-01
        2 -1    0    0  503    0 0.00000000E+00 0.00000000E+00 0.10923476E+04 0.10923476E+04 0.32000000E+00 0.0000E+00 0.9000E+01
       -1 -1    0    0    0  501 0.00000000E+00 0.00000000E+00 -.44106897E+03 0.44106908E+03 0.32000000E+00 0.0000E+00 0.9000E+01
       24  2    1    2    0    0 -.47856729E+03 -.13860355E+03 0.29515826E+03 0.58458931E+03 0.79929171E+02 0.0000E+00 0.0000E+00
       25  1    1    2    0    0 0.48722898E+03 0.23592477E+03 -.24241421E+02 0.55611620E+03 0.12500000E+03 0.0000E+00 0.9000E+01
        4  1    3    3  502    0 -.22032697E+03 -.88979419E+02 0.10345674E+03 0.25916599E+03 0.15500000E+01 0.0000E+00 0.9000E+01
       -3  1    3    3    0  502 -.25824032E+03 -.49624126E+02 0.19170152E+03 0.32542332E+03 0.50000000E+00 0.0000E+00 0.9000E+01
       21  1    1    2  503  501 -.86616944E+01 -.97321223E+02 0.38036177E+03 0.39271120E+03 0.75000000E+00 0.0000E+00 0.9000E+01
#aMCatNLO 2  0  0  1  2 0.16941345D+02 0.00000000D+00  -5  6  0 0.00000000D+00 0.00000000D+00 0.00000000D+00 0.00000000D+00 0.00000000D+00
  <mgrwgt>
 0.6274843141D-03    1    2    0
 0.551875592162508D+03 0.000000000000000D+00 0.000000000000000D+00 0.551875592162508D+03
 0.551875592162508D+03 0.000000000000000D+00 0.000000000000000D+00 -.551875592162508D+03
 0.556059654542721D+03 0.482786237175844D+03 0.186006886706894D+03 -.160923045898865D+03
 0.251922722043892D+03 -.222170362927688D+03 -.110670973672278D+03 0.430966739437449D+02
 0.295768807738403D+03 -.260615874248156D+03 -.753359130346164D+02 0.117826371955120D+03
 0.000000000000000D+00 -.000000000000000D+00 -.000000000000000D+00 0.000000000000000D+00
 0.857448705249565D+03 0.000000000000000D+00 0.000000000000000D+00 0.857448705249565D+03
 0.561899476030886D+03 0.000000000000000D+00 0.000000000000000D+00 -.561899476030886D+03
 0.578423551421833D+03 0.487228982789620D+03 0.235924768661262D+03 -.160923045898865D+03
 0.241406148150300D+03 -.220238439508565D+03 -.889642333895092D+02 0.430966739437449D+02
 0.288237591877662D+03 -.258328848881301D+03 -.496393118303312D+02 0.117826371955120D+03
 0.311280889830657D+03 -.866169439975359D+01 -.973212234414215D+02 0.295549229218680D+03
0.780997257472D-04 0.000000000000D+00 0.000000000000D+00 0.164377228891D-03 0.117565767265D-06  6 2 -1 25 4 -3 21 2 0.16805335D+00 0.67856723D-01 0.33285773D+06 0.33285773D+06 0.33285773D+06 0.10812281D+01  1  2  1  1  6  1        2 0.627484314130D-03 0.100000000000D+01
  </mgrwgt>
  </event>
  <event>
  7     66 0.16549492E-05 0.10331041E+03 0.75467711E-02 0.93943049E-01
        2 -1    0    0  503    0 0.00000000E+00 0.00000000E+00 0.25816722E+04 0.25816722E+04 0.32000000E+00 0.0000E+00 0.9000E+01
       -1 -1    0    0    0  501 0.00000000E+00 0.00000000E+00 -.14787944E+03 0.14787979E+03 0.32000000E+00 0.0000E+00 0.9000E+01
       24  2    1    2    0    0 -.17984340E+03 0.36585733E+03 0.74687343E+03 0.85462156E+03 0.79767425E+02 0.0000E+00 0.0000E+00
       25  1    1    2    0    0 0.10322512E+03 -.48355474E+03 0.63867298E+03 0.81731805E+03 0.12500000E+03 0.0000E+00 0.9000E+01
        4  1    3    3  502    0 -.56448107E+02 0.18268190E+03 0.40084547E+03 0.44411548E+03 0.15500000E+01 0.0000E+00 0.9000E+01
       -3  1    3    3    0  502 -.12339530E+03 0.18317544E+03 0.34602796E+03 0.41050608E+03 0.50000000E+00 0.0000E+00 0.9000E+01
       21  1    1    2  503  501 0.76618285E+02 0.11769741E+03 0.10482463E+04 0.10576124E+04 0.75000000E+00 0.0000E+00 0.9000E+01
#aMCatNLO 2  0  0  1  2 0.16941345D+02 0.00000000D+00  -5  6  0 0.00000000D+00 0.00000000D+00 0.00000000D+00 0.00000000D+00 0.00000000D+00
  <mgrwgt>
 0.1368101073D-02    1    2    0
 0.462579758853083D+03 0.000000000000000D+00 0.000000000000000D+00 0.462579758853083D+03
 0.462579758853083D+03 0.000000000000000D+00 0.000000000000000D+00 -.462579758853083D+03
 0.467585467537730D+03 0.143666354990047D+03 -.421430815393915D+03 -.690450268503944D+02
 0.220768180785899D+03 -.390831531410860D+02 0.209226915842839D+03 0.586105321163301D+02
 0.236805869382536D+03 -.104583201848961D+03 0.212203899551076D+03 0.104344947340643D+02
 0.000000000000000D+00 0.000000000000000D+00 0.000000000000000D+00 0.000000000000000D+00
 0.790132394189921D+03 0.000000000000000D+00 0.000000000000000D+00 0.790132394189921D+03
 0.483179920227154D+03 0.000000000000000D+00 0.000000000000000D+00 -.483179920227154D+03
 0.514657975651105D+03 0.103225118491618D+03 -.483554744657638D+03 -.690450268503944D+02
 0.199916470371148D+03 -.564037141350784D+02 0.182619883042529D+03 0.586105321163301D+02
 0.221183629586857D+03 -.123439689789963D+03 0.183237447868657D+03 0.104344947340643D+02
 0.337554238807965D+03 0.766182854334233D+02 0.117697413746452D+03 0.306952473962767D+03
0.166022913415D-03 0.000000000000D+00 0.000000000000D+00 0.247942474813D-03 0.903142074282D-07  6 2 -1 25 4 -3 21 2 0.39718003D+00 0.22750693D-01 0.28223374D+06 0.28223374D+06 0.28223374D+06 0.10865188D+01  1  2  1  1  6  1        2 0.136810107317D-02 0.100000000000D+01
  </mgrwgt>
  </event>
  <event>
  7     66 0.16549492E-05 0.57758050E+02 0.75467711E-02 0.93232337E-01
        2 -1    0    0  503    0 0.00000000E+00 0.00000000E+00 0.60595096E+03 0.60595104E+03 0.32000000E+00 0.0000E+00 0.9000E+01
       -1 -1    0    0    0  501 0.00000000E+00 0.00000000E+00 -.83478059E+03 0.83478065E+03 0.32000000E+00 0.0000E+00 0.9000E+01
       24  2    1    2    0    0 0.25654682E+03 0.49369916E+03 -.25611906E+03 0.61785678E+03 0.81208953E+02 0.0000E+00 0.0000E+00
       25  1    1    2    0    0 -.22925205E+03 -.43060066E+03 -.23212141E+03 0.55450769E+03 0.12500000E+03 0.0000E+00 0.9000E+01
        4  1    3    3  502    0 0.30544757E+02 0.22644139E+02 -.30450806E+02 0.48738007E+02 0.15500000E+01 0.0000E+00 0.9000E+01
       -3  1    3    3    0  502 0.22600207E+03 0.47105502E+03 -.22566825E+03 0.56911877E+03 0.50000000E+00 0.0000E+00 0.9000E+01
       21  1    1    2  503  501 -.27294776E+02 -.63098498E+02 0.25941083E+03 0.26836723E+03 0.75000000E+00 0.0000E+00 0.9000E+01
#aMCatNLO 2  0  0  1  2 0.15794619D+02 0.00000000D+00  -5  6  0 0.00000000D+00 0.00000000D+00 0.00000000D+00 0.00000000D+00 0.00000000D+00
  <mgrwgt>
 0.2872494776D-03    1    2    0
 0.531820755006115D+03 0.000000000000000D+00 0.000000000000000D+00 0.531820755006115D+03
 0.531820755006115D+03 0.000000000000000D+00 0.000000000000000D+00 -.531820755006115D+03
 0.536065656168309D+03 -.242577739987570D+03 -.461406228772871D+03 -.131142490404401D+01
 0.374378504134375D+02 0.294777804647775D+02 0.201944785239611D+02 -.111730094242587D+02
 0.490138003430483D+03 0.213099959522793D+03 0.441211750248910D+03 0.124844343283027D+02
 0.000000000000000D+00 -.000000000000000D+00 -.000000000000000D+00 0.000000000000000D+00
 0.944067405988585D+03 0.000000000000000D+00 0.000000000000000D+00 0.944067405988585D+03
 0.535804500881612D+03 0.000000000000000D+00 0.000000000000000D+00 -.535804500881612D+03
 0.503587280386940D+03 -.229252048289610D+03 -.430600658948932D+03 -.131142490404401D+01
 0.394704185883292D+02 0.304635477777974D+02 0.224733188633366D+02 -.111730094242587D+02
 0.522803308397393D+03 0.226083276507661D+03 0.471225837846698D+03 0.124844343283027D+02
 0.414010899497533D+03 -.272947759958483D+02 -.630984977611033D+02 0.408262905106973D+03
0.670724783462D-04 0.000000000000D+00 0.000000000000D+00 0.324554438080D-04 0.497776851380D-07  6 2 -1 25 4 -3 21 2 0.93223177D-01 0.12842771D+00 0.32083434D+06 0.32083434D+06 0.32083434D+06 0.10824011D+01  1  2  1  1  6  1        2 0.287249477588D-03 0.100000000000D+01
  </mgrwgt>
  </event>
  <event>
  7     66 0.16549492E-05 0.13357649E+03 0.75467711E-02 0.93365092E-01
        2 -1    0    0  501    0 0.00000000E+00 0.00000000E+00 0.34022339E+04 0.34022339E+04 0.32000000E+00 0.0000E+00 0.9000E+01
       -1 -1    0    0    0  503 0.00000000E+00 0.00000000E+00 -.12662782E+03 0.12662822E+03 0.32000000E+00 0.0000E+00 0.9000E+01
       24  2    1    2    0    0 0.34251828E+03 -.16596340E+03 0.18117290E+04 0.18530935E+04 0.82043026E+02 0.0000E+00 0.0000E+00
       25  1    1    2    0    0 -.47060129E+03 0.28058215E+03 0.13680512E+04 0.14789797E+04 0.12500000E+03 0.0000E+00 0.9000E+01
        4  1    3    3  502    0 0.14595993E+03 -.10436787E+03 0.97564958E+03 0.99201384E+03 0.15500000E+01 0.0000E+00 0.9000E+01
       -3  1    3    3    0  502 0.19655835E+03 -.61595533E+02 0.83607940E+03 0.86107968E+03 0.50000000E+00 0.0000E+00 0.9000E+01
       21  1    1    2  501  503 0.12808300E+03 -.11461875E+03 0.95825937E+02 0.19678894E+03 0.75000000E+00 0.0000E+00 0.9000E+01
#aMCatNLO 2  0  0  2  1 0.50847735D+02 0.00000000D+00  -5  6  0 0.00000000D+00 0.00000000D+00 0.00000000D+00 0.00000000D+00 0.00000000D+00
  <mgrwgt>
 0.4980718849D-03    1    2    0
 0.490450638238279D+03 0.000000000000000D+00 0.000000000000000D+00 0.490450638238279D+03
 0.490450638238279D+03 0.000000000000000D+00 0.000000000000000D+00 -.490450638238279D+03
 0.494984194608554D+03 -.400923435826106D+03 0.218228925639505D+03 -.144985818381996D+03
 0.238241130754790D+03 0.174543024945793D+03 -.129986106389326D+03 0.969390580304762D+02
 0.247675951113214D+03 0.226380410880313D+03 -.882428192501785D+02 0.480467603515200D+02
 0.000000000000000D+00 0.000000000000000D+00 -.000000000000000D+00 -.000000000000000D+00
 0.520297350482022D+03 0.000000000000000D+00 0.000000000000000D+00 0.520297350482022D+03
 0.828021814438680D+03 0.000000000000000D+00 0.000000000000000D+00 -.828021814438680D+03
 0.580377291188157D+03 -.470601285604690D+03 0.280582149436167D+03 -.144985818381996D+03
 0.203890783526789D+03 0.145895168841103D+03 -.104349750091498D+03 0.969390580304762D+02
 0.211578312711551D+03 0.196623115284732D+03 -.616136491803382D+02 0.480467603515200D+02
 0.352472777494204D+03 0.128083001478855D+03 -.114618750164330D+03 -.307724463956658D+03
0.157465392333D-03 0.000000000000D+00 0.000000000000D+00 0.915433147789D-04 0.224848200020D-07  6 2 -1 25 4 -3 21 2 0.52342025D+00 0.19481220D-01 0.31319604D+06 0.31319604D+06 0.31319604D+06 0.10831714D+01  1  2  1  2  6  2       -1 0.498071884851D-03 0.100000000000D+01
  </mgrwgt>
  </event>
  <event>
  7     66 0.16549492E-05 0.39534733E+02 0.75467711E-02 0.91836811E-01
        2 -1    0    0  501    0 0.00000000E+00 0.00000000E+00 0.11947376E+04 0.11947377E+04 0.32000000E+00 0.0000E+00 0.9000E+01
       -1 -1    0    0    0  503 0.00000000E+00 0.00000000E+00 -.36088435E+03 0.36088450E+03 0.32000000E+00 0.0000E+00 0.9000E+01
       24  2    1    2    0    0 -.48527073E+02 0.62170404E+03 0.27382252E+03 0.68610376E+03 0.82998785E+02 0.0000E+00 0.0000E+00
       25  1    1    2    0    0 0.26769636E+02 -.62889644E+03 0.53437078E+03 0.83510747E+03 0.12500000E+03 0.0000E+00 0.9000E+01
        4  1    3    3  502    0 -.26689610E+02 0.45136589E+03 0.15801743E+03 0.47897329E+03 0.15500000E+01 0.0000E+00 0.9000E+01
       -3  1    3    3    0  502 -.21837463E+02 0.17033815E+03 0.11580509E+03 0.20713046E+03 0.50000000E+00 0.0000E+00 0.9000E+01
       21  1    1    2  501  503 0.21757436E+02 0.71924028E+01 0.25659968E+02 0.34410945E+02 0.75000000E+00 0.0000E+00 0.9000E+01
#aMCatNLO 2  0  0  2  1 0.50847735D+02 0.00000000D+00  -5  6  0 0.00000000D+00 0.00000000D+00 0.00000000D+00 0.00000000D+00 0.00000000D+00
  <mgrwgt>
 0.3305483913D-03    1    2    0
 0.644279063168692D+03 0.000000000000000D+00 0.000000000000000D+00 0.644279063168692D+03
 0.644279063168692D+03 0.000000000000000D+00 0.000000000000000D+00 -.644279063168692D+03
 0.647668977059648D+03 0.377296786134377D+02 -.625273357625553D+03 0.107050471465031D+03
 0.468369247319993D+03 -.187932079800387D+02 0.453930983923393D+03 -.113856176834004D+03
 0.172519901957743D+03 -.189364706333990D+02 0.171342373702160D+03 0.680570536897309D+01
 0.000000000000000D+00 0.000000000000000D+00 0.000000000000000D+00 0.000000000000000D+00
 0.660992507859465D+03 0.000000000000000D+00 0.000000000000000D+00 0.660992507859465D+03
 0.652283810428778D+03 0.000000000000000D+00 0.000000000000000D+00 -.652283810428778D+03
 0.650624432604276D+03 0.267696363996301D+02 -.628896442530709D+03 0.107050471465031D+03
 0.466226903560902D+03 -.266829601656931D+02 0.451322851446197D+03 -.113856176834004D+03
 0.171910535414137D+03 -.218441123923549D+02 0.170381188265008D+03 0.680570536897309D+01
 0.245144467089286D+02 0.217574361584179D+02 0.719240281950369D+01 0.870869743068769D+01
0.329699165193D-04 0.000000000000D+00 0.000000000000D+00 0.218681333461D-04 0.256441017710D-06  6 2 -1 25 4 -3 21 2 0.18380419D+00 0.55520198D-01 0.41509631D+06 0.41509631D+06 0.41509631D+06 0.10742697D+01  1  2  1  2  6  2       -1 0.330548391349D-03 0.100000000000D+01
  </mgrwgt>
  </event>
  <event>
  7     66 0.16549492E-05 0.24803867E+02 0.75467711E-02 0.94426018E-01
        2 -1    0    0  503    0 0.00000000E+00 0.00000000E+00 0.17821250E+04 0.17821250E+04 0.32000000E+00 0.0000E+00 0.9000E+01
       -1 -1    0    0    0  501 0.00000000E+00 0.00000000E+00 -.25621522E+03 0.25621542E+03 0.32000000E+00 0.0000E+00 0.9000E+01
       24  2    1    2    0    0 0.36470114E+03 -.33921012E+03 0.92588473E+03 0.10544798E+04 0.81207313E+02 0.0000E+00 0.0000E+00
       25  1    1    2    0    0 -.34356013E+03 0.30942381E+03 0.10864795E+03 0.49112731E+03 0.12500000E+03 0.0000E+00 0.9000E+01
        4  1    3    3  502    0 0.26837703E+03 -.28626299E+03 0.76280690E+03 0.85781671E+03 0.15500000E+01 0.0000E+00 0.9000E+01
       -3  1    3    3    0  502 0.96324114E+02 -.52947128E+02 0.16307783E+03 0.19666306E+03 0.50000000E+00 0.0000E+00 0.9000E+01
       21  1    1    2  503  501 -.21141016E+02 0.29786311E+02 0.49137709E+03 0.49273337E+03 0.75000000E+00 0.0000E+00 0.9000E+01
#aMCatNLO 2  0  0  1  2 0.17214650D+03 0.00000000D+00  -5  6  0 0.00000000D+00 0.00000000D+00 0.00000000D+00 0.00000000D+00 0.00000000D+00
  <mgrwgt>
 0.1946929350D-02    1    2    0
 0.573870455279806D+03 0.000000000000000D+00 0.000000000000000D+00 0.573870455279806D+03
 0.573870455279806D+03 0.000000000000000D+00 0.000000000000000D+00 -.573870455279806D+03
 0.577804432176481D+03 -.354065574401966D+03 0.324225293574298D+03 -.296223715918986D+03
 0.455216206942996D+03 0.259857556417924D+03 -.274286287321248D+03 0.253895407645746D+03
 0.114720271440134D+03 0.942080179840413D+02 -.499390062530501D+02 0.423283082732398D+02
 0.000000000000000D+00 -.000000000000000D+00 0.000000000000000D+00 0.000000000000000D+00
 0.793155163160199D+03 0.000000000000000D+00 0.000000000000000D+00 0.793155163160199D+03
 0.575684050956492D+03 0.000000000000000D+00 0.000000000000000D+00 -.575684050956492D+03
 0.563160850105184D+03 -.343560127968123D+03 0.309423805950460D+03 -.296223715918986D+03
 0.467351472417310D+03 0.268352105277231D+03 -.286254551649937D+03 0.253895407645746D+03
 0.117809655256808D+03 0.963490390362287D+02 -.529555650262442D+02 0.423283082732398D+02
 0.220517236337389D+03 -.211410163453358D+02 0.297863107257204D+02 0.217471112203706D+03
0.211800054743D-03 0.000000000000D+00 0.000000000000D+00 0.114046722578D-03 0.573650681163D-06  6 2 -1 25 4 -3 21 2 0.27417279D+00 0.39417701D-01 0.25897840D+06 0.25897840D+06 0.25897840D+06 0.10893082D+01  1  2  1  1  6  1        2 0.194692935021D-02 0.100000000000D+01
  </mgrwgt>
  </event>
  <event>
  7     66 0.16549492E-05 0.35306479E+02 0.75467711E-02 0.91732735E-01
        2 -1    0    0  501    0 0.00000000E+00 0.00000000E+00 0.71505407E+03 0.71505415E+03 0.32000000E+00 0.0000E+00 0.9000E+01
       -1 -1    0    0    0  503 0.00000000E+00 0.00000000E+00 -.88171985E+03 0.88171991E+03 0.32000000E+00 0.0000E+00 0.9000E+01
       24  2    1    2    0    0 0.97574471E+02 0.63025918E+03 0.37384791E+03 0.74187431E+03 0.62191781E+02 0.0000E+00 0.0000E+00
       25  1    1    2    0    0 -.11762163E+03 -.60902986E+03 -.52235215E+03 0.82050532E+03 0.12500000E+03 0.0000E+00 0.9000E+01
        4  1    3    3  502    0 0.38440625E+02 0.38707109E+03 0.25237549E+03 0.46367823E+03 0.15500000E+01 0.0000E+00 0.9000E+01
       -3  1    3    3    0  502 0.59133846E+02 0.24318809E+03 0.12147241E+03 0.27819607E+03 0.50000000E+00 0.0000E+00 0.9000E+01
       21  1    1    2  501  503 0.20047158E+02 -.21229326E+02 -.18161534E+02 0.34394428E+02 0.75000000E+00 0.0000E+00 0.9000E+01
#aMCatNLO 2  0  0  2  2 0.13189036D+02 0.00000000D+00  -5  6  0 0.00000000D+00 0.00000000D+00 0.00000000D+00 0.00000000D+00 0.00000000D+00
  <mgrwgt>
 0.1015537143D-02    1    2    0
 0.777515919083068D+03 0.000000000000000D+00 0.000000000000000D+00 0.777515919083068D+03
 0.777515919083068D+03 0.000000000000000D+00 0.000000000000000D+00 -.777515919083068D+03
 0.781296286220967D+03 -.107594898537543D+03 -.619647856778610D+03 -.446384092750901D+03
 0.485034139518671D+03 0.446890667177812D+02 0.380291776722311D+03 0.297723308412189D+03
 0.288701412426498D+03 0.629058318197618D+02 0.239356080056300D+03 0.148660784338712D+03
 0.000000000000000D+00 0.000000000000000D+00 -.000000000000000D+00 -.000000000000000D+00
 0.786577048566602D+03 0.000000000000000D+00 0.000000000000000D+00 0.786577048566602D+03
 0.801537041808442D+03 0.000000000000000D+00 0.000000000000000D+00 -.801537041808442D+03
 0.774361654203506D+03 -.117621629858466D+03 -.609029855942369D+03 -.446384092750901D+03
 0.489735266179323D+03 0.384063546402645D+02 0.386944976050962D+03 0.297723308412189D+03
 0.291209027187251D+03 0.591681167237177D+02 0.243314205665252D+03 0.148660784338712D+03
 0.328081428049635D+02 0.200471584944840D+02 -.212293257738444D+02 -.149599932418401D+02
0.344181736588D-03 0.000000000000D+00 0.000000000000D+00 0.843936138594D-06 0.608775653186D-08  6 2 -1 25 4 -3 21 2 0.11000773D+00 0.13564848D+00 0.42328287D+06 0.42328287D+06 0.42328287D+06 0.10736608D+01  1  2  1  2  6  2       -1 0.101553714300D-02 0.100000000000D+01
  </mgrwgt>
  </event>
  <event>
  7     66 0.16549492E-05 0.61047543E+02 0.75467711E-02 0.91883006E-01
        2 -1    0    0  503    0 0.00000000E+00 0.00000000E+00 0.33029894E+04 0.33029894E+04 0.32000000E+00 0.0000E+00 0.9000E+01
       -1 -1    0    0    0  501 0.00000000E+00 0.00000000E+00 -.22680321E+03 0.22680343E+03 0.32000000E+00 0.0000E+00 0.9000E+01
       24  2    1    2    0    0 0.14977031E+03 0.60349025E+03 0.49954985E+03 0.80154360E+03 0.79312455E+02 0.0000E+00 0.0000E+00
       25  1    1    2    0    0 -.13522803E+03 -.61537824E+03 0.12862006E+04 0.14376766E+04 0.12500000E+03 0.0000E+00 0.9000E+01
        4  1    3    3  502    0 0.88198680E+02 0.33553531E+03 0.32821830E+03 0.47759042E+03 0.15500000E+01 0.0000E+00 0.9000E+01
       -3  1    3    3    0  502 0.61571631E+02 0.26795494E+03 0.17133154E+03 0.32395318E+03 0.50000000E+00 0.0000E+00 0.9000E+01
       21  1    1    2  503  501 -.14542282E+02 0.11887995E+02 0.12904358E+04 0.12905727E+04 0.75000000E+00 0.0000E+00 0.9000E+01
#aMCatNLO 2  0  0  1  2 0.17214650D+03 0.00000000D+00  -5  6  0 0.00000000D+00 0.00000000D+00 0.00000000D+00 0.00000000D+00 0.00000000D+00
  <mgrwgt>
 0.9813208381D-03    1    2    0
 0.675434972471288D+03 0.000000000000000D+00 0.000000000000000D+00 0.675434972471288D+03
 0.675434972471288D+03 0.000000000000000D+00 0.000000000000000D+00 -.675434972471288D+03
 0.678889981078495D+03 -.142556967595002D+03 -.609386998022865D+03 0.231498604832853D+03
 0.359678253621078D+03 0.843178329419614D+02 0.338602409995624D+03 -.872201646469172D+02
 0.312301710243002D+03 0.582391346530402D+02 0.270784588027241D+03 -.144278440185935D+03
 0.000000000000000D+00 -.000000000000000D+00 0.000000000000000D+00 0.000000000000000D+00
 0.110866359941057D+04 0.000000000000000D+00 0.000000000000000D+00 0.110866359941057D+04
 0.675703880726125D+03 0.000000000000000D+00 0.000000000000000D+00 -.675703880726125D+03
 0.682783718935504D+03 -.135228029155340D+03 -.615378243793687D+03 0.231498604832853D+03
 0.357640926245265D+03 0.881786610616312D+02 0.335446268033964D+03 -.872201646469172D+02
 0.310575876848995D+03 0.615916496433754D+02 0.268043980854343D+03 -.144278440185935D+03
 0.433366958106928D+03 -.145422815496665D+02 0.118879949053802D+02 0.432959718684443D+03
0.726488237870D-03 0.000000000000D+00 0.000000000000D+00 0.147793878568D-03 0.290793338705D-05  6 2 -1 25 4 -3 21 2 0.50815199D+00 0.34892803D-01 0.41151955D+06 0.41151955D+06 0.41151955D+06 0.10745399D+01  1  2  1  1  6  1        2 0.981320838052D-03 0.100000000000D+01
  </mgrwgt>
  </event>
  <event>
  7     66 0.16549492E-05 0.76471790E+02 0.75467711E-02 0.92591770E-01
        2 -1    0    0  503    0 0.00000000E+00 0.00000000E+00 0.14121171E+04 0.14121171E+04 0.32000000E+00 0.0000E+00 0.9000E+01
       -1 -1    0    0    0  501 0.00000000E+00 0.00000000E+00 -.31786072E+03 0.31786088E+03 0.32000000E+00 0.0000E+00 0.9000E+01
       24  2    1    2    0    0 0.53186060E+03 -.17911471E+03 0.14459193E+03 0.58505438E+03 0.80150018E+02 0.0000E+00 0.0000E+00
       25  1    1    2    0    0 -.51156816E+03 0.78938080E+02 0.74009168E+03 0.91175320E+03 0.12500000E+03 0.0000E+00 0.9000E+01
        4  1    3    3  502    0 0.36827582E+03 -.16104824E+03 0.92918416E+02 0.41255285E+03 0.15500000E+01 0.0000E+00 0.9000E+01
       -3  1    3    3    0  502 0.16358478E+03 -.18066466E+02 0.51673517E+02 0.17250153E+03 0.50000000E+00 0.0000E+00 0.9000E+01
       21  1    1    2  503  501 -.20292436E+02 0.10017663E+03 0.20957274E+03 0.23317040E+03 0.75000000E+00 0.0000E+00 0.9000E+01
#aMCatNLO 2  0  0  1  4 0.39718211D+02 0.00000000D+00  -5  6  0 0.00000000D+00 0.00000000D+00 0.00000000D+00 0.00000000D+00 0.00000000D+00
  <mgrwgt>
 0.1049098437D-02    1    2    0
 0.601523214417177D+03 0.000000000000000D+00 0.000000000000000D+00 0.601523214417177D+03
 0.601523214417177D+03 0.000000000000000D+00 0.000000000000000D+00 -.601523214417177D+03
 0.605347245805946D+03 -.521614710290884D+03 0.128534350226066D+03 0.249433964858365D+03
 0.425290895864654D+03 0.360916506124807D+03 -.124948744408956D+03 -.187081353914941D+03
 0.172408287163755D+03 0.160698204166077D+03 -.358560581710972D+01 -.623526109434239D+02
 0.000000000000000D+00 -.000000000000000D+00 0.000000000000000D+00 0.000000000000000D+00
 0.715921221476495D+03 0.000000000000000D+00 0.000000000000000D+00 0.715921221476495D+03
 0.626961811930747D+03 0.000000000000000D+00 0.000000000000000D+00 -.626961811930747D+03
 0.588026793638793D+03 -.511568164306683D+03 0.789380800377525D+02 0.249433964858365D+03
 0.443315213840391D+03 0.368228958830222D+03 -.161047756018254D+03 -.187081353914941D+03
 0.176038566303822D+03 0.163631640976921D+03 -.180669534245091D+02 -.623526109434239D+02
 0.135502459624235D+03 -.202924355004598D+02 0.100176629405011D+03 0.889594095457484D+02
0.108658028427D-03 0.000000000000D+00 0.000000000000D+00 0.168994649718D-03 0.101343252324D-06  6 2 -1 25 4 -3 21 2 0.21724845D+00 0.48901585D-01 0.36074784D+06 0.36074784D+06 0.36074784D+06 0.10786763D+01  1  2  1  1  6  1        2 0.104909843730D-02 0.100000000000D+01
  </mgrwgt>
  </event>
  <event>
  6     66 0.16549492E-05 0.15040539E+03 0.75467711E-02 0.88790092E-01
       21 -1    0    0  501  503 0.00000000E+00 0.00000000E+00 0.75921606E+03 0.75921643E+03 0.75000000E+00 0.0000E+00 0.9000E+01
       -3 -1    0    0    0  501 0.00000000E+00 0.00000000E+00 -.10093194E+04 0.10093195E+04 0.50000000E+00 0.0000E+00 0.9000E+01
       25  1    1    2    0    0 0.64320621E+03 -.47580236E+01 -.74597111E+02 0.65948964E+03 0.12500000E+03 0.0000E+00 0.9000E+01
        2  1    1    2  502    0 -.33700213E+03 0.77106785E+02 -.44459193E+02 0.34855790E+03 0.32000000E+00 0.0000E+00 0.9000E+01
       -1  1    1    2    0  502 -.51643352E+03 -.41132927E+02 -.16827462E+03 0.54471272E+03 0.32000000E+00 0.0000E+00 0.9000E+01
       -4  1    1    2    0  503 0.21022944E+03 -.31215834E+02 0.37227606E+02 0.21577567E+03 0.15500000E+01 0.0000E+00 0.9000E+01
#aMCatNLO 2  0  0  1  4 0.39718211D+02 0.00000000D+00  -5  6  0 0.00000000D+00 0.00000000D+00 0.00000000D+00 0.00000000D+00 0.00000000D+00
  <mgrwgt>
 0.3273948054D-05    1    2    0
 0.755535329456762D+03 0.000000000000000D+00 0.000000000000000D+00 0.755535329456762D+03
 0.755535329456762D+03 0.000000000000000D+00 0.000000000000000D+00 -.755535329456762D+03
 0.753085053699448D+03 0.740817980052606D+03 -.192518633302609D+02 0.482719825011434D+02
 0.301241079063338D+03 -.292176247196928D+03 0.704512926012716D+02 0.203922450940102D+02
 0.456744526150737D+03 -.448641732855678D+03 -.511994292710108D+02 -.686642275951536D+02
 0.000000000000000D+00 0.000000000000000D+00 -.000000000000000D+00 0.000000000000000D+00
 0.915513849128611D+03 0.000000000000000D+00 0.000000000000000D+00 0.915513849128611D+03
 0.837002320018732D+03 0.000000000000000D+00 0.000000000000000D+00 -.837002320018732D+03
 0.657032796377984D+03 0.643206244085126D+03 -.475802391629335D+01 0.482719825011434D+02
 0.346310932948746D+03 -.337001348884892D+03 0.771071298235147D+02 0.203922450940102D+02
 0.522600365600300D+03 -.516434332594383D+03 -.411332723245191D+02 -.686642275951536D+02
 0.226572074220312D+03 0.210229437394149D+03 -.312158335827023D+02 0.785115291098793D+02
0.455747283546D-05 0.000000000000D+00 0.000000000000D+00 0.340803819803D-07 0.132270231719D-12  6 21 -3 25 2 -1 -4 2 0.11680215D+00 0.15527947D+00 0.74958483D+06 0.74958483D+06 0.74958483D+06 0.10562998D+01  1  2  1  5  6  1        4 0.327394805356D-05 0.100000000000D+01
  </mgrwgt>
  </event>
  <event>
  7     66 0.16549492E-05 0.34071508E+02 0.75467711E-02 0.88269440E-01
        2 -1    0    0  501    0 0.00000000E+00 0.00000000E+00 0.14193377E+04 0.14193377E+04 0.32000000E+00 0.0000E+00 0.9000E+01
       -1 -1    0    0    0  503 0.00000000E+00 0.00000000E+00 -.74750390E+03 0.74750397E+03 0.32000000E+00 0.0000E+00 0.9000E+01
       24  2    1    2    0    0 0.22117059E+03 0.87911201E+03 0.60627309E+03 0.10933910E+04 0.78629249E+02 0.0000E+00 0.0000E+00
       25  1    1    2    0    0 -.20658733E+03 -.85160738E+03 0.22310310E+03 0.91286004E+03 0.12500000E+03 0.0000E+00 0.9000E+01
        4  1    3    3  502    0 0.34989275E+02 0.25663989E+03 0.14808764E+03 0.29836327E+03 0.15500000E+01 0.0000E+00 0.9000E+01
       -3  1    3    3    0  502 0.18618132E+03 0.62247211E+03 0.45818544E+03 0.79502778E+03 0.50000000E+00 0.0000E+00 0.9000E+01
       21  1    1    2  501  503 -.14583265E+02 -.27504629E+02 -.15754239E+03 0.16059061E+03 0.75000000E+00 0.0000E+00 0.9000E+01
#aMCatNLO 2  0  0  2  4 0.34875159D+02 0.00000000D+00  -5  6  0 0.00000000D+00 0.00000000D+00 0.00000000D+00 0.00000000D+00 0.00000000D+00
  <mgrwgt>
 0.8141304600D-03    1    2    0
 0.913264658984804D+03 0.000000000000000D+00 0.000000000000000D+00 0.913264658984804D+03
 0.913264658984804D+03 0.000000000000000D+00 0.000000000000000D+00 -.913264658984804D+03
 0.915849463141109D+03 -.213840771003126D+03 -.865287664899923D+03 -.169424380667851D+03
 0.256090334359254D+03 0.328574213613324D+02 0.252521362178083D+03 0.271221469917870D+02
 0.654589520469244D+03 0.180983349641793D+03 0.612766302721841D+03 0.142302233676064D+03
 0.000000000000000D+00 -.000000000000000D+00 -.000000000000000D+00 -.000000000000000D+00
 0.914378611227591D+03 0.000000000000000D+00 0.000000000000000D+00 0.914378611227591D+03
 0.116030628709212D+04 0.000000000000000D+00 0.000000000000000D+00 -.116030628709212D+04
 0.901245290073072D+03 -.206587328787800D+03 -.851607378842229D+03 -.169424380667851D+03
 0.260192437675848D+03 0.349183085259125D+02 0.256408278914596D+03 0.271221469917870D+02
 0.665356876362129D+03 0.186252285067317D+03 0.622703728526155D+03 0.142302233676064D+03
 0.247890294208660D+03 -.145832648054299D+02 -.275046285985224D+02 -.245927675864527D+03
0.539927735939D-03 0.000000000000D+00 0.000000000000D+00 0.507129944431D-04 0.317899830613D-06  6 2 -1 25 4 -3 21 2 0.21835952D+00 0.11500054D+00 0.83269738D+06 0.83269738D+06 0.83269738D+06 0.10531982D+01  1  2  1  2  6  2       -1 0.814130459984D-03 0.100000000000D+01
  </mgrwgt>
  </event>
  <event>
  7     66 0.16549492E-05 0.19726601E+03 0.75467711E-02 0.93550578E-01
        2 -1    0    0  501    0 0.00000000E+00 0.00000000E+00 0.26965585E+04 0.26965585E+04 0.32000000E+00 0.0000E+00 0.9000E+01
       21 -1    0    0  503  501 0.00000000E+00 0.00000000E+00 -.22088861E+03 0.22088989E+03 0.75000000E+00 0.0000E+00 0.9000E+01
       24  2    1    2    0    0 -.80861822E+02 0.30303339E+03 0.15648252E+04 0.15979803E+04 0.80593534E+02 0.0000E+00 0.0000E+00
       25  1    1    2    0    0 0.24182183E+03 -.47224766E+03 0.93746160E+03 0.10844145E+04 0.12500000E+03 0.0000E+00 0.9000E+01
        4  1    3    3  502    0 -.80240592E+02 0.16003871E+03 0.95247825E+03 0.96915848E+03 0.15500000E+01 0.0000E+00 0.9000E+01
        1  1    1    2  503    0 -.16096001E+03 0.16921426E+03 -.26616942E+02 0.23505351E+03 0.32000000E+00 0.0000E+00 0.9000E+01
       -3  1    3    3    0  502 -.62122983E+00 0.14299469E+03 0.61234693E+03 0.62882182E+03 0.50000000E+00 0.0000E+00 0.9000E+01
#aMCatNLO 2  0  0  2  4 0.34875159D+02 0.00000000D+00  -5  6  0 0.00000000D+00 0.00000000D+00 0.00000000D+00 0.00000000D+00 0.00000000D+00
  <mgrwgt>
 0.3161126837D-02    1    2    0
 0.468844686388878D+03 0.000000000000000D+00 0.000000000000000D+00 0.468844686388878D+03
 0.468844686388878D+03 0.000000000000000D+00 0.000000000000000D+00 -.468844686388878D+03
 0.473712866994818D+03 0.152520766352750D+03 -.378367112627965D+03 -.205802391310687D+03
 0.273258987348585D+03 -.122261225067664D+03 0.204164462659288D+03 0.134311351712252D+03
 0.000000000000000D+00 -.000000000000000D+00 0.000000000000000D+00 -.000000000000000D+00
 0.190717518434354D+03 -.302595412850858D+02 0.174202649968677D+03 0.714910395984348D+02
 0.502591849416584D+03 0.000000000000000D+00 0.000000000000000D+00 0.502591849416584D+03
 0.118513831451427D+04 0.000000000000000D+00 0.000000000000000D+00 -.118513831451427D+04
 0.582645065209494D+03 0.241821826945953D+03 -.472247659344438D+03 -.205802391310687D+03
 0.223776624584974D+03 -.802434525446349D+02 0.159991958659143D+03 0.134311351712252D+03
 0.721395361497736D+03 -.160960005181788D+03 0.169214264484366D+03 -.682546465097683D+03
 0.159913112638648D+03 -.618369219529772D+00 0.143041436200928D+03 0.714910395984348D+02
0.868811796867D-04 0.000000000000D+00 0.000000000000D+00 0.252499190084D-03 0.511629557795D-08  6 2 21 25 4 1 -3 2 0.41485522D+00 0.33982960D-01 0.30286266D+06 0.30286266D+06 0.30286266D+06 0.10842469D+01  1  2  1  6  5  2       -1 0.316112683681D-02 0.100000000000D+01
  </mgrwgt>
  </event>
  <event>
  6     66 0.16549492E-05 0.18002266E+02 0.75467711E-02 0.95205987E-01
        2 -1    0    0  501    0 0.00000000E+00 0.00000000E+00 0.13355045E+04 0.13355045E+04 0.32000000E+00 0.0000E+00 0.9000E+01
       -1 -1    0    0    0  501 0.00000000E+00 0.00000000E+00 -.18116413E+03 0.18116441E+03 0.32000000E+00 0.0000E+00 0.9000E+01
       24  2    1    2    0    0 0.26012466E+03 0.38721848E+03 0.40014669E+03 0.62110427E+03 0.89722580E+02 0.0000E+00 0.0000E+00
       25  1    1    2    0    0 -.26012466E+03 -.38721848E+03 0.75419363E+03 0.89556464E+03 0.12500000E+03 0.0000E+00 0.9000E+01
        4  1    3    3  502    0 0.25407780E+03 0.36903412E+03 0.40185716E+03 0.60185820E+03 0.15500000E+01 0.0000E+00 0.9000E+01
       -3  1    3    3    0  502 0.60468595E+01 0.18184357E+02 -.17104661E+01 0.19246065E+02 0.50000000E+00 0.0000E+00 0.9000E+01
#aMCatNLO 1  0  0  5  2 0.13796025D+01 0.00000000D+00  -5  6  0 0.00000000D+00 0.00000000D+00 0.00000000D+00 0.00000000D+00 0.00000000D+00
  <mgrwgt>
 0.4200445074D-01    7    2    0
 0.491879809282523D+03 0.000000000000000D+00 0.000000000000000D+00 0.491879809282523D+03
 0.491879809282523D+03 -.000000000000000D+00 -.000000000000000D+00 -.491879809282523D+03
 0.495729771486885D+03 -.260124666872900D+03 -.387218488019292D+03 0.111892835153800D+03
 0.456355732721693D+03 0.254083886382993D+03 0.369040162645701D+03 -.866677092284221D+02
 0.316741143564670D+02 0.604078048990751D+01 0.181783253735905D+02 -.252251259253780D+02
 0.000000000000000D+00 0.000000000000000D+00 0.000000000000000D+00 -.000000000000000D+00
 0.491879809282523D+03 0.000000000000000D+00 0.000000000000000D+00 0.491879809282523D+03
 0.491879809282523D+03 -.000000000000000D+00 -.000000000000000D+00 -.491879809282523D+03
 0.495633486397901D+03 -.260099444847683D+03 -.387142588194468D+03 0.111787512875783D+03
 0.456443600989858D+03 0.254107109603775D+03 0.369110047532978D+03 -.867646848873791D+02
 0.273886545308330D+02 0.657049142904325D+01 0.155109838510619D+02 -.215957500300935D+02
 0.429387664645404D+01 -.578156185135223D+00 0.252155681042834D+01 -.342707795831023D+01
0.936587282020D-06 0.000000000000D+00 0.000000000000D+00 0.109261418113D-05 0.000000000000D+00  6 2 -1 25 4 -3 21 0 0.20546225D+00 0.27871429D-01 0.22569298D+06 0.22569298D+06 0.22569298D+06 0.10938168D+01  1  2  2  4  6  5       -3 0.231376835299D-04 0.100000000000D+01
0.259535283320D-06 0.000000000000D+00 -.359674177205D-08 0.109261418113D-05 0.000000000000D+00  6 2 -1 25 4 -3 21 2 0.20546225D+00 0.27871429D-01 0.22569298D+06 0.22569298D+06 0.22569298D+06 0.10938168D+01  1  2  3  4  6  5       -3 0.767109191844D-05 0.100000000000D+01
-.259807275815D-06 0.000000000000D+00 0.000000000000D+00 0.109261418113D-05 0.000000000000D+00  6 2 -1 25 4 -3 21 2 0.20546225D+00 0.27871429D-01 0.22569298D+06 0.22569298D+06 0.22569298D+06 0.10938168D+01  1  2 15  4  6  5       -3 -.767913120853D-05 0.100000000000D+01
-.644144365147D-04 0.000000000000D+00 0.000000000000D+00 0.109261418113D-05 0.000000000000D+00  6 2 -1 25 4 -3 21 2 0.20546225D+00 0.27871429D-01 0.22569298D+06 0.22569298D+06 0.22569298D+06 0.10938168D+01  1  2  4  4  6  5       -3 -.190389937375D-02 0.100000000000D+01
-.462978400840D-04 0.000000000000D+00 0.000000000000D+00 0.109261418113D-05 0.000000000000D+00  6 2 -1 25 4 -3 21 2 0.20546225D+00 0.27871429D-01 0.22569298D+06 0.22569298D+06 0.22569298D+06 0.10938168D+01  1  2  5  4  6  5       -3 -.136842660607D-02 0.100000000000D+01
0.677200909940D-04 0.000000000000D+00 -.000000000000D+00 0.109261418113D-05 0.000000000000D+00  6 2 -1 25 4 -3 21 2 0.20546225D+00 0.27871429D-01 0.22569298D+06 0.22569298D+06 0.22569298D+06 0.10938168D+01  1  2  6  4  6  5       -3 0.200160469935D-02 0.100000000000D+01
0.146341557418D-02 0.000000000000D+00 0.000000000000D+00 0.109261418113D-05 0.860557053564D-04  6 2 -1 25 4 -3 21 2 0.20546225D+00 0.27871429D-01 0.22582259D+06 0.22582259D+06 0.22582259D+06 0.10937978D+01  1  2 11  4  6  5       -3 0.432520423810D-01 0.100000000000D+01
  </mgrwgt>
  </event>
  <event>
  7     66 0.16549492E-05 0.35426734E+02 0.75467711E-02 0.87766829E-01
        2 -1    0    0  501    0 0.00000000E+00 0.00000000E+00 0.22277464E+04 0.22277465E+04 0.32000000E+00 0.0000E+00 0.9000E+01
       -1 -1    0    0    0  503 0.00000000E+00 0.00000000E+00 -.60110728E+03 0.60110737E+03 0.32000000E+00 0.0000E+00 0.9000E+01
       24  2    1    2    0    0 0.50236117E+03 -.80055164E+03 0.13732078E+03 0.95848035E+03 0.81104285E+02 0.0000E+00 0.0000E+00
       25  1    1    2    0    0 -.51517290E+03 0.80171951E+03 0.15415180E+04 0.18166067E+04 0.12500000E+03 0.0000E+00 0.9000E+01
        4  1    3    3  502    0 0.41915196E+03 -.61969948E+03 0.87329744E+02 0.75322287E+03 0.15500000E+01 0.0000E+00 0.9000E+01
       -3  1    3    3    0  502 0.83209211E+02 -.18085217E+03 0.49991035E+02 0.20525748E+03 0.50000000E+00 0.0000E+00 0.9000E+01
       21  1    1    2  501  503 0.12811722E+02 -.11678609E+01 -.52199598E+02 0.53766761E+02 0.75000000E+00 0.0000E+00 0.9000E+01
#aMCatNLO 2  0  0  2  4 0.34875159D+02 0.00000000D+00  -5  6  0 0.00000000D+00 0.00000000D+00 0.00000000D+00 0.00000000D+00 0.00000000D+00
  <mgrwgt>
 0.1791138178D-02    1    2    0
 0.110481255610057D+04 0.000000000000000D+00 0.000000000000000D+00 0.110481255610057D+04
 0.110481255610057D+04 0.000000000000000D+00 0.000000000000000D+00 -.110481255610057D+04
 0.110685975745015D+04 -.508745385459493D+03 0.801133601910427D+03 0.555766684253660D+03
 0.882338132378367D+03 0.424245341307469D+03 -.620122573666772D+03 -.462584547792891D+03
 0.220427222372629D+03 0.845000441520235D+02 -.181011028243655D+03 -.931821364607689D+02
 0.000000000000000D+00 0.000000000000000D+00 -.000000000000000D+00 -.000000000000000D+00
 0.110521871699261D+04 0.000000000000000D+00 0.000000000000000D+00 0.110521871699261D+04
 0.121162585576301D+04 0.000000000000000D+00 0.000000000000000D+00 -.121162585576301D+04
 0.111025172170931D+04 -.515172895470463D+03 0.801719505815312D+03 0.555766684253660D+03
 0.879565496276208D+03 0.419137500173637D+03 -.619656965046834D+03 -.462584547792891D+03
 0.219845344621746D+03 0.832236733612391D+02 -.180894679824263D+03 -.931821364607689D+02
 0.107182010148357D+03 0.128117219355873D+02 -.116786094421485D+01 -.106407138770397D+03
0.205752888467D-02 0.000000000000D+00 0.000000000000D+00 0.862644208986D-04 0.307765021569D-05  6 2 -1 25 4 -3 21 2 0.34272982D+00 0.92477942D-01 0.92277134D+06 0.92277134D+06 0.92277134D+06 0.10501955D+01  1  2  1  2  6  2       -1 0.179113817756D-02 0.100000000000D+01
  </mgrwgt>
  </event>
  <event>
  7     66 0.16549492E-05 0.32963034E+02 0.75467711E-02 0.95413065E-01
        2 -1    0    0  501    0 0.00000000E+00 0.00000000E+00 0.74176723E+03 0.74176729E+03 0.32000000E+00 0.0000E+00 0.9000E+01
       21 -1    0    0  503  501 0.00000000E+00 0.00000000E+00 -.31707958E+03 0.31708047E+03 0.75000000E+00 0.0000E+00 0.9000E+01
       24  2    1    2    0    0 -.37486557E+03 -.23980994E+03 0.30588771E+03 0.54385333E+03 0.64623120E+02 0.0000E+00 0.0000E+00
       25  1    1    2    0    0 0.38013175E+03 0.25181846E+03 0.13728747E+03 0.49232665E+03 0.12500000E+03 0.0000E+00 0.9000E+01
        4  1    3    3  502    0 -.28532717E+03 -.15739319E+03 0.24554518E+03 0.40801844E+03 0.15500000E+01 0.0000E+00 0.9000E+01
        1  1    1    2  503    0 -.52661706E+01 -.12008515E+02 -.18487535E+02 0.22667782E+02 0.32000000E+00 0.0000E+00 0.9000E+01
       -3  1    3    3    0  502 -.89538400E+02 -.82416749E+02 0.60342537E+02 0.13583489E+03 0.50000000E+00 0.0000E+00 0.9000E+01
#aMCatNLO 2  0  0  2  4 0.34875159D+02 0.00000000D+00  -5  6  0 0.00000000D+00 0.00000000D+00 0.00000000D+00 0.00000000D+00 0.00000000D+00
  <mgrwgt>
 0.1735483337D-03    1    2    0
 0.468266155667051D+03 0.000000000000000D+00 0.000000000000000D+00 0.468266155667051D+03
 0.468266155667051D+03 0.000000000000000D+00 0.000000000000000D+00 -.468266155667051D+03
 0.474378519748594D+03 0.377449465894190D+03 0.245702019654974D+03 -.810703289281878D+02
 0.338809665840563D+03 -.287187505282566D+03 -.161675861920762D+03 0.785890714333023D+02
 0.000000000000000D+00 -.000000000000000D+00 -.000000000000000D+00 -.000000000000000D+00
 0.123344125744946D+03 -.902619606116238D+02 -.840261577342121D+02 0.248125749488548D+01
 0.469634615653313D+03 0.000000000000000D+00 0.000000000000000D+00 0.469634615653313D+03
 0.500812720574983D+03 0.000000000000000D+00 0.000000000000000D+00 -.500812720574983D+03
 0.479697901578663D+03 0.380131745500000D+03 0.251818455657189D+03 -.810703289281878D+02
 0.335154942879986D+03 -.285292728842651D+03 -.157355179316257D+03 0.785890714333023D+02
 0.338232349121850D+02 -.526617064611529D+01 -.120085153180648D+02 -.311781049216698D+02
 0.121771256857463D+03 -.895728460112335D+02 -.824547610228666D+02 0.248125749488548D+01
0.723126840368D-06 0.000000000000D+00 0.000000000000D+00 0.138988398822D-05 0.590479701188D-09  6 2 21 25 4 1 -3 2 0.11411792D+00 0.48781469D-01 0.21784008D+06 0.21784008D+06 0.21784008D+06 0.10949867D+01  1  2  1  6  5  2       -1 0.173548333696D-03 0.100000000000D+01
  </mgrwgt>
  </event>
  <event>
  6     66 -.16549492E-05 0.18482728E+02 0.75467711E-02 0.94526524E-01
        2 -1    0    0  501    0 0.00000000E+00 0.00000000E+00 0.59874317E+03 0.59874326E+03 0.32000000E+00 0.0000E+00 0.9000E+01
       -1 -1    0    0    0  501 0.00000000E+00 0.00000000E+00 -.43013842E+03 0.43013854E+03 0.32000000E+00 0.0000E+00 0.9000E+01
       24  2    1    2    0    0 0.32894825E+03 0.34513960E+03 0.22396923E+03 0.53287926E+03 0.80435065E+02 0.0000E+00 0.0000E+00
       25  1    1    2    0    0 -.32894825E+03 -.34513960E+03 -.55364486E+02 0.49600254E+03 0.12500000E+03 0.0000E+00 0.9000E+01
        4  1    3    3  502    0 0.11499890E+02 0.22041043E+02 -.49023393E+01 0.25386817E+02 0.15500000E+01 0.0000E+00 0.9000E+01
       -3  1    3    3    0  502 0.31744836E+03 0.32309856E+03 0.22887157E+03 0.50749244E+03 0.50000000E+00 0.0000E+00 0.9000E+01
#aMCatNLO 1  0  0  1  2 0.40600593D+02 0.00000000D+00  -5  6  0 0.00000000D+00 0.00000000D+00 0.00000000D+00 0.00000000D+00 0.00000000D+00
  <mgrwgt>
 -.4807187992D-03    5    2    0
 0.507486501477170D+03 0.000000000000000D+00 0.000000000000000D+00 0.507486501477170D+03
 0.507486501477170D+03 0.000000000000000D+00 0.000000000000000D+00 -.507486501477170D+03
 0.511996572402305D+03 -.328948246731380D+03 -.345139598239479D+03 -.138517864736473D+03
 0.263731024951088D+02 0.113824002464579D+02 0.219218617294988D+02 -.924194125493582D+01
 0.476603328056927D+03 0.317565846484922D+03 0.323217736509980D+03 0.147759805991408D+03
 0.000000000000000D+00 0.000000000000000D+00 -.000000000000000D+00 0.000000000000000D+00
 0.116298423179601D+04 0.000000000000000D+00 0.000000000000000D+00 0.116298423179601D+04
 0.508361778964124D+03 0.000000000000000D+00 0.000000000000000D+00 -.508361778964124D+03
 0.511955654084558D+03 -.342287393594278D+03 -.331851974658027D+03 -.138517864736473D+03
 0.266634258068041D+02 0.106914871141678D+02 0.226101061669964D+02 -.924194125493582D+01
 0.477040486350776D+03 0.305142615628808D+03 0.335592981866988D+03 0.147759805991408D+03
 0.655686444517998D+03 0.264532908513024D+02 -.263511133759570D+02 0.654622452831888D+03
0.652889749139D-06 0.000000000000D+00 0.000000000000D+00 0.256500618863D-04 0.000000000000D+00  6 2 -1 25 4 -3 21 0 0.92114350D-01 0.66175158D-01 0.23557613D+06 0.23557613D+06 0.23557613D+06 0.10924060D+01  1  2  2  1  6  1        2 0.104484869217D-04 0.100000000000D+01
0.212857108710D-06 0.000000000000D+00 -.250726854651D-08 0.256500618863D-04 0.000000000000D+00  6 2 -1 25 4 -3 21 2 0.92114350D-01 0.66175158D-01 0.23557613D+06 0.23557613D+06 0.23557613D+06 0.10924060D+01  1  2  3  1  6  1        2 0.406508731523D-05 0.100000000000D+01
-.180262069529D-06 0.000000000000D+00 0.000000000000D+00 0.256500618863D-04 0.000000000000D+00  6 2 -1 25 4 -3 21 2 0.92114350D-01 0.66175158D-01 0.23557613D+06 0.23557613D+06 0.23557613D+06 0.10924060D+01  1  2 15  1  6  1        2 -.344259609980D-05 0.100000000000D+01
-.786640074142D-04 0.000000000000D+00 -.292514690763D-06 0.256500618863D-04 0.000000000000D+00  6 2 -1 25 4 -3 21 2 0.21118256D+00 0.66175158D-01 0.23557613D+06 0.23557613D+06 0.23557613D+06 0.10924060D+01  1  2  5  1  6  1        2 -.474074641786D-03 0.100000000000D+01
-.708205187574D-05 0.000000000000D+00 -.264036551005D-07 0.256500618863D-04 0.000000000000D+00  6 21 -1 25 4 -3 -2 2 0.21118256D+00 0.66175158D-01 0.23557613D+06 0.23557613D+06 0.23557613D+06 0.10924060D+01  1  2  5  5  6  1        2 -.177151355786D-04 0.100000000000D+01
  </mgrwgt>
  </event>
  <event>
  7     66 0.16549492E-05 0.35245987E+02 0.75467711E-02 0.92334959E-01
        2 -1    0    0  503    0 0.00000000E+00 0.00000000E+00 0.35776933E+04 0.35776933E+04 0.32000000E+00 0.0000E+00 0.9000E+01
       -1 -1    0    0    0  501 0.00000000E+00 0.00000000E+00 -.12440331E+03 0.12440372E+03 0.32000000E+00 0.0000E+00 0.9000E+01
       24  2    1    2    0    0 0.57577785E+03 0.18838474E+03 0.10319434E+04 0.11994316E+04 0.81975744E+02 0.0000E+00 0.0000E+00
       25  1    1    2    0    0 -.56224952E+03 -.19256209E+03 0.22432455E+04 0.23240009E+04 0.12500000E+03 0.0000E+00 0.9000E+01
        4  1    3    3  502    0 0.12716426E+03 0.16593671E+02 0.26611016E+03 0.29540332E+03 0.15500000E+01 0.0000E+00 0.9000E+01
       -3  1    3    3    0  502 0.44861359E+03 0.17179107E+03 0.76583323E+03 0.90402827E+03 0.50000000E+00 0.0000E+00 0.9000E+01
       21  1    1    2  503  501 -.13528328E+02 0.41773473E+01 0.17810111E+03 0.17866459E+03 0.75000000E+00 0.0000E+00 0.9000E+01
#aMCatNLO 2  0  0  1  2 0.69939163D+01 0.00000000D+00  -5  6  0 0.00000000D+00 0.00000000D+00 0.00000000D+00 0.00000000D+00 0.00000000D+00
  <mgrwgt>
 0.7749819677D-03    1    2    0
 0.649521658880427D+03 0.000000000000000D+00 0.000000000000000D+00 0.649521658880427D+03
 0.649521658880427D+03 0.000000000000000D+00 0.000000000000000D+00 -.649521658880427D+03
 0.652949172568488D+03 -.569021712198936D+03 -.190470936497040D+03 0.225061625680624D+03
 0.128854505675426D+03 0.125660107393921D+03 0.169492199465772D+02 -.229291296347963D+02
 0.517239639516940D+03 0.443361604805015D+03 0.173521716550463D+03 -.202132496045827D+03
 0.000000000000000D+00 -.000000000000000D+00 0.000000000000000D+00 0.000000000000000D+00
 0.683642534898813D+03 0.000000000000000D+00 0.000000000000000D+00 0.683642534898813D+03
 0.651030691847989D+03 0.000000000000000D+00 0.000000000000000D+00 -.651030691847989D+03
 0.647674622078850D+03 -.562249519807925D+03 -.192562089225094D+03 0.225061625680624D+03
 0.130116288343833D+03 0.127008537314985D+03 0.165328447544361D+02 -.229291296347963D+02
 0.521329564091992D+03 0.448769310313067D+03 0.171851897166612D+03 -.202132496045827D+03
 0.355527522321268D+02 -.135283278201268D+02 0.417734730404578D+01 0.326118430508238D+02
0.324686096083D-03 0.000000000000D+00 0.000000000000D+00 0.627974134770D-04 0.194036809758D-05  6 2 -1 25 4 -3 21 2 0.55041105D+00 0.19138887D-01 0.37828698D+06 0.37828698D+06 0.37828698D+06 0.10771793D+01  1  2  1  1  6  1        2 0.774981967689D-03 0.100000000000D+01
  </mgrwgt>
  </event>
  <event>
  6     66 -.16549492E-05 0.21089248E+02 0.75467711E-02 0.95291807E-01
        2 -1    0    0  501    0 0.00000000E+00 0.00000000E+00 0.13602011E+04 0.13602012E+04 0.32000000E+00 0.0000E+00 0.9000E+01
       -1 -1    0    0    0  501 0.00000000E+00 0.00000000E+00 -.18755899E+03 0.18755926E+03 0.32000000E+00 0.0000E+00 0.9000E+01
       24  2    1    2    0    0 0.57389841E+02 -.45952951E+03 0.84367715E+03 0.96612143E+03 0.84489760E+02 0.0000E+00 0.0000E+00
       25  1    1    2    0    0 -.57389841E+02 0.45952951E+03 0.32896499E+03 0.58163900E+03 0.12500000E+03 0.0000E+00 0.9000E+01
        4  1    3    3  502    0 0.48515511E+02 -.43273972E+03 0.82310685E+03 0.93119531E+03 0.15500000E+01 0.0000E+00 0.9000E+01
       -3  1    3    3    0  502 0.88743295E+01 -.26789787E+02 0.20570302E+02 0.34926119E+02 0.50000000E+00 0.0000E+00 0.9000E+01
#aMCatNLO 1  0  0  5  2 0.40288552D+01 0.00000000D+00  -5  6  0 0.00000000D+00 0.00000000D+00 0.00000000D+00 0.00000000D+00 0.00000000D+00
  <mgrwgt>
 -.1132540895D-01    4    2    0
 0.505092259311780D+03 0.000000000000000D+00 0.000000000000000D+00 0.505092259311780D+03
 0.505092259311780D+03 -.000000000000000D+00 -.000000000000000D+00 -.505092259311780D+03
 0.509292721148866D+03 -.573898406973077D+02 0.459529510456829D+03 -.171152303575681D+03
 0.471264482389925D+03 0.485142245232333D+02 -.432745869005212D+03 0.180187666725769D+03
 0.296273150847695D+02 0.887561617407435D+01 -.267836414516164D+02 -.903536315008847D+01
 0.000000000000000D+00 0.000000000000000D+00 0.000000000000000D+00 0.000000000000000D+00
 0.505092259311780D+03 0.000000000000000D+00 0.000000000000000D+00 0.505092259311780D+03
 0.505092259311780D+03 -.000000000000000D+00 -.000000000000000D+00 -.505092259311780D+03
 0.507795210267121D+03 -.567885441806260D+02 0.457714998653586D+03 -.171764422473405D+03
 0.472652694870747D+03 0.490722629122374D+02 -.434429842245400D+03 0.179619584533226D+03
 0.256893127233893D+02 0.787951906180891D+01 -.241376896411943D+02 -.390203874148668D+01
 0.404730076230293D+01 -.163237793420298D+00 0.852533233008516D+00 -.395312331833364D+01
0.112811609784D-04 0.000000000000D+00 0.000000000000D+00 0.657281307828D-05 0.000000000000D+00  6 2 -1 25 4 -3 21 0 0.20926174D+00 0.28855253D-01 0.22247519D+06 0.22247519D+06 0.22247519D+06 0.10942907D+01  1  2  2  4  6  5       -3 0.254853844609D-03 0.100000000000D+01
0.329722160857D-05 0.000000000000D+00 -.433226285548D-07 0.657281307828D-05 0.000000000000D+00  6 2 -1 25 4 -3 21 2 0.20926174D+00 0.28855253D-01 0.22247519D+06 0.22247519D+06 0.22247519D+06 0.10942907D+01  1  2  3  4  6  5       -3 0.891971453752D-04 0.100000000000D+01
-.332265109500D-05 0.000000000000D+00 0.000000000000D+00 0.657281307828D-05 0.000000000000D+00  6 2 -1 25 4 -3 21 2 0.20926174D+00 0.28855253D-01 0.22247519D+06 0.22247519D+06 0.22247519D+06 0.10942907D+01  1  2 15  4  6  5       -3 -.898850692904D-04 0.100000000000D+01
-.428045363166D-03 0.000000000000D+00 0.000000000000D+00 0.657281307828D-05 0.000000000000D+00  6 2 -1 25 4 -3 21 2 0.20926174D+00 0.28855253D-01 0.22247519D+06 0.22247519D+06 0.22247519D+06 0.10942907D+01  1  2  4  4  6  5       -3 -.115795748719D-01 0.100000000000D+01
  </mgrwgt>
  </event>
  <event>
  7     66 0.16549492E-05 0.44834615E+02 0.75467711E-02 0.94247313E-01
        2 -1    0    0  501    0 0.00000000E+00 0.00000000E+00 0.26121589E+04 0.26121589E+04 0.32000000E+00 0.0000E+00 0.9000E+01
       -1 -1    0    0    0  503 0.00000000E+00 0.00000000E+00 -.16047063E+03 0.16047095E+03 0.32000000E+00 0.0000E+00 0.9000E+01
       24  2    1    2    0    0 0.17366241E+03 0.46074844E+03 0.19702864E+04 0.20324746E+04 0.80478212E+02 0.0000E+00 0.0000E+00
       25  1    1    2    0    0 -.18848399E+03 -.46827227E+03 0.49553732E+03 0.71832261E+03 0.12500000E+03 0.0000E+00 0.9000E+01
        4  1    3    3  502    0 0.15209416E+03 0.31188713E+03 0.14446814E+04 0.14857702E+04 0.15500000E+01 0.0000E+00 0.9000E+01
       -3  1    3    3    0  502 0.21568244E+02 0.14886131E+03 0.52560501E+03 0.54670445E+03 0.50000000E+00 0.0000E+00 0.9000E+01
       21  1    1    2  501  503 0.14821588E+02 0.75238307E+01 -.14135504E+02 0.21832601E+02 0.75000000E+00 0.0000E+00 0.9000E+01
#aMCatNLO 2  0  0  2  4 0.34875159D+02 0.00000000D+00  -5  6  0 0.00000000D+00 0.00000000D+00 0.00000000D+00 0.00000000D+00 0.00000000D+00
  <mgrwgt>
 0.2530602523D-02    1    2    0
 0.609574110812980D+03 0.000000000000000D+00 0.000000000000000D+00 0.609574110812980D+03
 0.609574110812980D+03 0.000000000000000D+00 0.000000000000000D+00 -.609574110812980D+03
 0.613326016176910D+03 -.180996787352125D+03 -.464471565561596D+03 -.334738898056992D+03
 0.434128014810154D+03 0.157346444563641D+03 0.314511212170418D+03 0.254542583952628D+03
 0.171694190638896D+03 0.236503427884841D+02 0.149960353391178D+03 0.801963141043640D+02
 0.000000000000000D+00 0.000000000000000D+00 0.000000000000000D+00 -.000000000000000D+00
 0.610528467080781D+03 0.000000000000000D+00 0.000000000000000D+00 0.610528467080781D+03
 0.686573659121038D+03 0.000000000000000D+00 0.000000000000000D+00 -.686573659121038D+03
 0.618449887763368D+03 -.188483992701719D+03 -.468272269408869D+03 -.334738898056992D+03
 0.430314480371887D+03 0.152092032252408D+03 0.311843933238695D+03 0.254542583952628D+03
 0.170497159914402D+03 0.215703728018561D+02 0.148904505506517D+03 0.801963141043640D+02
 0.778405981521605D+02 0.148215876474542D+02 0.752383066365705D+01 -.760451920402571D+02
0.363884453222D-03 0.000000000000D+00 0.000000000000D+00 0.197471374417D-03 0.455054550358D-05  6 2 -1 25 4 -3 21 2 0.40186944D+00 0.24687742D-01 0.26732304D+06 0.26732304D+06 0.26732304D+06 0.10882769D+01  1  2  1  2  6  2       -1 0.253060252348D-02 0.100000000000D+01
  </mgrwgt>
  </event>
  <event>
  7     66 0.16549492E-05 0.51505760E+02 0.75467711E-02 0.92178171E-01
        2 -1    0    0  503    0 0.00000000E+00 0.00000000E+00 0.12274234E+04 0.12274235E+04 0.32000000E+00 0.0000E+00 0.9000E+01
       -1 -1    0    0    0  501 0.00000000E+00 0.00000000E+00 -.32889657E+03 0.32889672E+03 0.32000000E+00 0.0000E+00 0.9000E+01
       24  2    1    2    0    0 0.59354016E+03 0.16866861E+03 0.47957948E+03 0.78554414E+03 0.79649885E+02 0.0000E+00 0.0000E+00
       25  1    1    2    0    0 -.58223864E+03 -.17054877E+03 0.37225901E+03 0.72269668E+03 0.12500000E+03 0.0000E+00 0.9000E+01
        4  1    3    3  502    0 0.38877899E+03 0.11814345E+03 0.36132064E+03 0.54374809E+03 0.15500000E+01 0.0000E+00 0.9000E+01
       -3  1    3    3    0  502 0.20476118E+03 0.50525160E+02 0.11825884E+03 0.24179606E+03 0.50000000E+00 0.0000E+00 0.9000E+01
       21  1    1    2  503  501 -.11301520E+02 0.18801622E+01 0.46688379E+02 0.48079378E+02 0.75000000E+00 0.0000E+00 0.9000E+01
#aMCatNLO 2  0  0  1  2 0.69939163D+01 0.00000000D+00  -5  6  0 0.00000000D+00 0.00000000D+00 0.00000000D+00 0.00000000D+00 0.00000000D+00
  <mgrwgt>
 0.3327628517D-02    1    2    0
 0.622300230615319D+03 0.000000000000000D+00 0.000000000000000D+00 0.622300230615319D+03
 0.622300230615319D+03 0.000000000000000D+00 0.000000000000000D+00 -.622300230615319D+03
 0.626028694547647D+03 -.587900183833178D+03 -.169606893566447D+03 -.435178342830394D+02
 0.408215697666579D+03 0.384994904256284D+03 0.118748141119273D+03 0.657104139297872D+02
 0.210356069016412D+03 0.202905279576894D+03 0.508587524471739D+02 -.221925796467477D+02
 0.000000000000000D+00 -.000000000000000D+00 0.000000000000000D+00 0.000000000000000D+00
 0.647310257727078D+03 0.000000000000000D+00 0.000000000000000D+00 0.647310257727078D+03
 0.623640047907389D+03 0.000000000000000D+00 0.000000000000000D+00 -.623640047907389D+03
 0.620973042666927D+03 -.582238641281446D+03 -.170548768441965D+03 -.435178342830394D+02
 0.411549528470573D+03 0.388716740057871D+03 0.118128962935891D+03 0.657104139297872D+02
 0.212130620505414D+03 0.204823421548060D+03 0.505396433503491D+02 -.221925796467477D+02
 0.262971139915519D+02 -.113015203244846D+02 0.188016215572509D+01 0.236702098196893D+02
0.290310887120D-03 0.000000000000D+00 0.000000000000D+00 0.213214983431D-03 0.100425596236D-04  6 2 -1 25 4 -3 21 2 0.18883277D+00 0.50599054D-01 0.38946306D+06 0.38946306D+06 0.38946306D+06 0.10762644D+01  1  2  1  1  6  1        2 0.332762851744D-02 0.100000000000D+01
  </mgrwgt>
  </event>
  <event>
  7     66 0.16549492E-05 0.47175673E+02 0.75467711E-02 0.92707868E-01
        2 -1    0    0  501    0 0.00000000E+00 0.00000000E+00 0.19695300E+04 0.19695300E+04 0.32000000E+00 0.0000E+00 0.9000E+01
       21 -1    0    0  503  501 0.00000000E+00 0.00000000E+00 -.25463016E+03 0.25463126E+03 0.75000000E+00 0.0000E+00 0.9000E+01
       24  2    1    2    0    0 -.57798566E+03 0.85944620E+02 0.27130600E+03 0.64958634E+03 0.83075629E+02 0.0000E+00 0.0000E+00
       25  1    1    2    0    0 0.56207310E+03 -.76219531E+02 0.14434453E+04 0.15559226E+04 0.12500000E+03 0.0000E+00 0.9000E+01
        4  1    3    3  502    0 -.18569539E+03 -.70626182E+01 0.66439295E+02 0.19735562E+03 0.15500000E+01 0.0000E+00 0.9000E+01
        1  1    1    2  503    0 0.15912565E+02 -.97250888E+01 0.14850787E+00 0.18652387E+02 0.32000000E+00 0.0000E+00 0.9000E+01
       -3  1    3    3    0  502 -.39229027E+03 0.93007238E+02 0.20486671E+03 0.45223072E+03 0.50000000E+00 0.0000E+00 0.9000E+01
#aMCatNLO 2  0  0  2  1 0.28072315D+01 0.00000000D+00  -5  6  0 0.00000000D+00 0.00000000D+00 0.00000000D+00 0.00000000D+00 0.00000000D+00
  <mgrwgt>
 0.4404797153D-03    1    2    0
 0.693460447396257D+03 0.000000000000000D+00 0.000000000000000D+00 0.693460447396257D+03
 0.693460447396257D+03 0.000000000000000D+00 0.000000000000000D+00 -.693460447396257D+03
 0.696605342065651D+03 0.570024685428340D+03 -.810792062160142D+02 0.371661166812064D+03
 0.229461917758940D+03 -.182921131017889D+03 -.871139399193311D+01 -.138263310908802D+03
 0.000000000000000D+00 0.000000000000000D+00 -.000000000000000D+00 -.000000000000000D+00
 0.460853634967924D+03 -.387103554410451D+03 0.897906002079473D+02 -.233397855903262D+03
 0.696848287593162D+03 0.000000000000000D+00 0.000000000000000D+00 0.696848287593162D+03
 0.719671340843919D+03 0.000000000000000D+00 0.000000000000000D+00 -.719671340843919D+03
 0.689559720018268D+03 0.562073098079948D+03 -.762195314232251D+02 0.371661166812064D+03
 0.231520286234836D+03 -.185565506035970D+03 -.709526351948779D+01 -.138263310908802D+03
 0.294733582997621D+02 0.159125654057039D+02 -.972508879077339D+01 -.228230532507577D+02
 0.465966263884215D+03 -.392420157449682D+03 0.930398837334863D+02 -.233397855903262D+03
0.637959388063D-05 0.000000000000D+00 0.000000000000D+00 0.192931349253D-04 0.224551584729D-08  6 2 21 25 4 1 -3 2 0.30300433D+00 0.39173908D-01 0.35311913D+06 0.35311913D+06 0.35311913D+06 0.10793523D+01  1  2  1  6  5  2       -1 0.440479715340D-03 0.100000000000D+01
  </mgrwgt>
  </event>
  <event>
  7     66 0.16549492E-05 0.35843889E+02 0.75467711E-02 0.95269329E-01
        2 -1    0    0  501    0 0.00000000E+00 0.00000000E+00 0.26338066E+04 0.26338066E+04 0.32000000E+00 0.0000E+00 0.9000E+01
       -1 -1    0    0    0  503 0.00000000E+00 0.00000000E+00 -.14531857E+03 0.14531892E+03 0.32000000E+00 0.0000E+00 0.9000E+01
       24  2    1    2    0    0 0.13558266E+03 -.43921786E+03 0.57939072E+03 0.74387805E+03 0.79787011E+02 0.0000E+00 0.0000E+00
       25  1    1    2    0    0 -.14218516E+03 0.43003667E+03 0.19432578E+04 0.19992559E+04 0.12500000E+03 0.0000E+00 0.9000E+01
        4  1    3    3  502    0 0.34398188E+01 -.98556976E+02 0.93275168E+02 0.13574966E+03 0.15500000E+01 0.0000E+00 0.9000E+01
       -3  1    3    3    0  502 0.13214284E+03 -.34066088E+03 0.48611555E+03 0.60812839E+03 0.50000000E+00 0.0000E+00 0.9000E+01
       21  1    1    2  501  503 0.66025080E+01 0.91811901E+01 -.34160542E+02 0.35991562E+02 0.75000000E+00 0.0000E+00 0.9000E+01
#aMCatNLO 2  0  0  2  1 0.29310760D+01 0.00000000D+00  -5  6  0 0.00000000D+00 0.00000000D+00 0.00000000D+00 0.00000000D+00 0.00000000D+00
  <mgrwgt>
 0.3236881942D-02    1    2    0
 0.538725414684874D+03 0.000000000000000D+00 0.000000000000000D+00 0.538725414684874D+03
 0.538725414684874D+03 0.000000000000000D+00 0.000000000000000D+00 -.538725414684874D+03
 0.543022145735448D+03 -.138866319936542D+03 0.434651724692818D+03 0.266537190965859D+03
 0.126257483215663D+03 0.416621735807751D+01 -.973529336877117D+02 -.802869914947291D+02
 0.408171200418637D+03 0.134700102578464D+03 -.337298791005107D+03 -.186250199471130D+03
 0.000000000000000D+00 0.000000000000000D+00 0.000000000000000D+00 -.000000000000000D+00
 0.538941604342131D+03 0.000000000000000D+00 0.000000000000000D+00 0.538941604342131D+03
 0.710170356869860D+03 0.000000000000000D+00 0.000000000000000D+00 -.710170356869860D+03
 0.540199252931248D+03 -.142185163243141D+03 0.430036670591043D+03 0.266537190965859D+03
 0.127068472551191D+03 0.339006102132161D+01 -.984322264275773D+02 -.802869914947291D+02
 0.410242449445498D+03 0.132192594263706D+03 -.340785634300857D+03 -.186250199471130D+03
 0.171601786284054D+03 0.660250795811409D+01 0.918119013739167D+01 -.171228752527729D+03
0.399100325260D-03 0.000000000000D+00 0.000000000000D+00 0.800235558259D-04 0.416456312090D-05  6 2 -1 25 4 -3 21 2 0.40520042D+00 0.22356698D-01 0.22334651D+06 0.22334651D+06 0.22334651D+06 0.10941616D+01  1  2  1  2  6  2       -1 0.323688194181D-02 0.100000000000D+01
  </mgrwgt>
  </event>
  <event>
  7     66 0.16549492E-05 0.33819220E+02 0.75467711E-02 0.94209663E-01
       21 -1    0    0  501  503 0.00000000E+00 0.00000000E+00 0.65444242E+03 0.65444285E+03 0.75000000E+00 0.0000E+00 0.9000E+01
       -1 -1    0    0    0  501 0.00000000E+00 0.00000000E+00 -.42532084E+03 0.42532096E+03 0.32000000E+00 0.0000E+00 0.9000E+01
       24  2    1    2    0    0 -.15026877E+03 0.43618442E+03 0.83643948E+02 0.47371997E+03 0.67651655E+02 0.0000E+00 0.0000E+00
       25  1    1    2    0    0 0.10723992E+03 -.48433124E+03 0.86972931E+02 0.51890889E+03 0.12500000E+03 0.0000E+00 0.9000E+01
        4  1    3    3  502    0 -.79863141E+02 0.22136631E+03 0.76809923E+02 0.24755471E+03 0.15500000E+01 0.0000E+00 0.9000E+01
       -3  1    3    3    0  502 -.70405633E+02 0.21481811E+03 0.68340248E+01 0.22616526E+03 0.50000000E+00 0.0000E+00 0.9000E+01
       -2  1    1    2    0  503 0.43028851E+02 0.48146814E+02 0.58504696E+02 0.87134950E+02 0.32000000E+00 0.0000E+00 0.9000E+01
#aMCatNLO 2  0  0  1  1 0.33468844D+03 0.00000000D+00  -5  6  0 0.00000000D+00 0.00000000D+00 0.00000000D+00 0.00000000D+00 0.00000000D+00
  <mgrwgt>
 0.2820772002D-04    1    2    0
 0.487860722863514D+03 0.000000000000000D+00 0.000000000000000D+00 0.487860722863514D+03
 0.487860722863514D+03 0.000000000000000D+00 0.000000000000000D+00 -.487860722863514D+03
 0.493522304887716D+03 0.129377828885172D+03 -.459560190128413D+03 -.225265704899365D+01
 0.245703840621552D+03 -.691813407049262D+02 0.233181410028244D+03 0.347958246301182D+02
 0.236495300217760D+03 -.601964881802454D+02 0.226378780100169D+03 -.325431675811245D+02
 0.000000000000000D+00 0.000000000000000D+00 0.000000000000000D+00 0.000000000000000D+00
 0.550141853489639D+03 0.000000000000000D+00 0.000000000000000D+00 0.550141853489639D+03
 0.505956678731910D+03 0.000000000000000D+00 0.000000000000000D+00 -.505956678731910D+03
 0.511573280593888D+03 0.107239923388979D+03 -.484331235607759D+03 -.225265704899365D+01
 0.237785870825237D+03 -.798305264092507D+02 0.221265582514878D+03 0.347958246301182D+02
 0.228496634157563D+03 -.704382479177136D+02 0.214918838856450D+03 -.325431675811245D+02
 0.782427466448607D+02 0.430288509379850D+02 0.481468142364314D+02 0.441851747577296D+02
0.123356120268D-05 0.000000000000D+00 0.000000000000D+00 0.280323315147D-05 0.833693357893D-10  6 21 -1 25 4 -3 -2 2 0.10068343D+00 0.65433977D-01 0.26911934D+06 0.26911934D+06 0.26911934D+06 0.10880595D+01  1  2  1  5  6  1        2 0.282077200166D-04 0.100000000000D+01
  </mgrwgt>
  </event>
  <event>
  7     66 0.16549492E-05 0.11922779E+03 0.75467711E-02 0.92827633E-01
        2 -1    0    0  501    0 0.00000000E+00 0.00000000E+00 0.45672929E+03 0.45672940E+03 0.32000000E+00 0.0000E+00 0.9000E+01
       21 -1    0    0  503  501 0.00000000E+00 0.00000000E+00 -.90664612E+03 0.90664643E+03 0.75000000E+00 0.0000E+00 0.9000E+01
       24  2    1    2    0    0 -.37367926E+03 0.35906505E+03 -.35505483E+03 0.63329005E+03 0.80177625E+02 0.0000E+00 0.0000E+00
       25  1    1    2    0    0 0.44536736E+03 -.35133949E+03 0.34593128E+02 0.58190481E+03 0.12500000E+03 0.0000E+00 0.9000E+01
        4  1    3    3  502    0 -.18431305E+03 0.22303631E+03 -.16973931E+03 0.33545541E+03 0.15500000E+01 0.0000E+00 0.9000E+01
        1  1    1    2  503    0 -.71688095E+02 -.77255634E+01 -.12945514E+03 0.14818098E+03 0.32000000E+00 0.0000E+00 0.9000E+01
       -3  1    3    3    0  502 -.18936621E+03 0.13602874E+03 -.18531551E+03 0.29783464E+03 0.50000000E+00 0.0000E+00 0.9000E+01
#aMCatNLO 2  0  0  2  1 0.29310760D+01 0.00000000D+00  -5  6  0 0.00000000D+00 0.00000000D+00 0.00000000D+00 0.00000000D+00 0.00000000D+00
  <mgrwgt>
 0.1691245734D-03    1    2    0
 0.584979478611247D+03 0.000000000000000D+00 0.000000000000000D+00 0.584979478611247D+03
 0.584979478611247D+03 0.000000000000000D+00 0.000000000000000D+00 -.584979478611247D+03
 0.588909765387098D+03 0.408588001860863D+03 -.355303062522160D+03 0.194949455669945D+03
 0.311664867806604D+03 -.203010301711922D+03 0.220972337218001D+03 -.842201484690956D+02
 0.000000000000000D+00 -.000000000000000D+00 -.000000000000000D+00 -.000000000000000D+00
 0.269384324028792D+03 -.205577700148941D+03 0.134330725304159D+03 -.110729307200850D+03
 0.598355364960488D+03 0.000000000000000D+00 0.000000000000000D+00 0.598355364960488D+03
 0.692049999041426D+03 0.000000000000000D+00 0.000000000000000D+00 -.692049999041426D+03
 0.612716744329314D+03 0.445367358603700D+03 -.351339485975986D+03 0.194949455669945D+03
 0.301276058739462D+03 -.184249419842694D+03 0.222994128732256D+03 -.842201484690956D+02
 0.118226696365032D+03 -.716880948855342D+02 -.772556337825384D+01 -.936946340809373D+02
 0.258185864568106D+03 -.189429843875472D+03 0.136070920621984D+03 -.110729307200850D+03
0.567342862265D-05 0.000000000000D+00 0.000000000000D+00 0.279894849128D-03 0.873503652798D-08  6 2 21 25 4 1 -3 2 0.70266052D-01 0.13948400D+00 0.34543810D+06 0.34543810D+06 0.34543810D+06 0.10800493D+01  1  2  1  6  5  2       -1 0.169124573370D-03 0.100000000000D+01
  </mgrwgt>
  </event>
  <event>
  7     66 0.16549492E-05 0.67287156E+02 0.75467711E-02 0.90741035E-01
        2 -1    0    0  501    0 0.00000000E+00 0.00000000E+00 0.12432886E+04 0.12432887E+04 0.32000000E+00 0.0000E+00 0.9000E+01
       -1 -1    0    0    0  503 0.00000000E+00 0.00000000E+00 -.75163711E+03 0.75163718E+03 0.32000000E+00 0.0000E+00 0.9000E+01
       24  2    1    2    0    0 -.58386005E+03 0.34476540E+03 -.33028730E+03 0.75801264E+03 0.75747790E+02 0.0000E+00 0.0000E+00
       25  1    1    2    0    0 0.49674348E+03 -.39603966E+03 0.90034279E+03 0.11089831E+04 0.12500000E+03 0.0000E+00 0.9000E+01
        4  1    3    3  502    0 -.27477641E+03 0.12478745E+03 -.12492463E+03 0.32662295E+03 0.15500000E+01 0.0000E+00 0.9000E+01
       -3  1    3    3    0  502 -.30908364E+03 0.21997794E+03 -.20536267E+03 0.43138970E+03 0.50000000E+00 0.0000E+00 0.9000E+01
       21  1    1    2  501  503 0.87116571E+02 0.51274263E+02 -.78403983E+02 0.12793004E+03 0.75000000E+00 0.0000E+00 0.9000E+01
#aMCatNLO 2  0  0  2  1 0.29310760D+01 0.00000000D+00  -5  6  0 0.00000000D+00 0.00000000D+00 0.00000000D+00 0.00000000D+00 0.00000000D+00
  <mgrwgt>
 0.5180394349D-03    1    2    0
 0.887481224319808D+03 0.000000000000000D+00 0.000000000000000D+00 0.887481224319808D+03
 0.887481224319808D+03 0.000000000000000D+00 0.000000000000000D+00 -.887481224319808D+03
 0.890266430367064D+03 0.540050996206426D+03 -.370550122438035D+03 0.589904098388983D+03
 0.373600852252144D+03 -.256110119900053D+03 0.135618013297671D+03 -.235781589097838D+03
 0.511095166020407D+03 -.283940876306373D+03 0.234932109140364D+03 -.354122509291145D+03
 0.000000000000000D+00 0.000000000000000D+00 0.000000000000000D+00 -.000000000000000D+00
 0.906983151132366D+03 0.000000000000000D+00 0.000000000000000D+00 0.906983151132366D+03
 0.103033907136014D+04 0.000000000000000D+00 0.000000000000000D+00 -.103033907136014D+04
 0.875907153477078D+03 0.496743480561250D+03 -.396039658034512D+03 0.589904098388983D+03
 0.382858653457849D+03 -.274658909315855D+03 0.124700738985301D+03 -.235781589097838D+03
 0.519072779959064D+03 -.309201142254050D+03 0.220064656263937D+03 -.354122509291145D+03
 0.159483635598519D+03 0.871165710086551D+02 0.512742627852749D+02 -.123355920227777D+03
0.261061719730D-03 0.000000000000D+00 0.000000000000D+00 0.853665337131D-05 0.518221606424D-08  6 2 -1 25 4 -3 21 2 0.19127500D+00 0.11563638D+00 0.51102664D+06 0.51102664D+06 0.51102664D+06 0.10678415D+01  1  2  1  2  6  2       -1 0.518039434925D-03 0.100000000000D+01
  </mgrwgt>
  </event>
  <event>
  7     66 0.16549492E-05 0.46887497E+02 0.75467711E-02 0.95231960E-01
        2 -1    0    0  501    0 0.00000000E+00 0.00000000E+00 0.12436446E+04 0.12436447E+04 0.32000000E+00 0.0000E+00 0.9000E+01
       -1 -1    0    0    0  503 0.00000000E+00 0.00000000E+00 -.38754334E+03 0.38754347E+03 0.32000000E+00 0.0000E+00 0.9000E+01
       24  2    1    2    0    0 -.41465923E+03 0.14694887E+03 -.17402295E+03 0.48097752E+03 0.86712960E+02 0.0000E+00 0.0000E+00
       25  1    1    2    0    0 0.41454901E+03 -.18102552E+03 0.89177615E+03 0.10077256E+04 0.12500000E+03 0.0000E+00 0.9000E+01
        4  1    3    3  502    0 -.13391442E+03 0.80969268E+02 -.32953077E+02 0.15992937E+03 0.15500000E+01 0.0000E+00 0.9000E+01
       -3  1    3    3    0  502 -.28074481E+03 0.65979601E+02 -.14106988E+03 0.32104815E+03 0.50000000E+00 0.0000E+00 0.9000E+01
       21  1    1    2  501  503 0.11022133E+00 0.34076651E+02 0.13834808E+03 0.14248503E+03 0.75000000E+00 0.0000E+00 0.9000E+01
#aMCatNLO 2  0  0  2  2 0.43956049D+02 0.00000000D+00  -5  6  0 0.00000000D+00 0.00000000D+00 0.00000000D+00 0.00000000D+00 0.00000000D+00
  <mgrwgt>
 0.2351618031D-03    1    2    0
 0.651902218446366D+03 0.000000000000000D+00 0.000000000000000D+00 0.651902218446366D+03
 0.651902218446366D+03 0.000000000000000D+00 0.000000000000000D+00 -.651902218446366D+03
 0.655010761826707D+03 0.414604565867411D+03 -.163850452340926D+03 0.463325135664333D+03
 0.202719725099015D+03 -.133812098829227D+03 0.862199173451292D+02 -.125521850703917D+03
 0.446073949967011D+03 -.280792467038184D+03 0.776305349957965D+02 -.337803284960416D+03
 0.000000000000000D+00 0.000000000000000D+00 0.000000000000000D+00 0.000000000000000D+00
 0.735124105370956D+03 0.000000000000000D+00 0.000000000000000D+00 0.735124105370956D+03
 0.655622554956752D+03 0.000000000000000D+00 0.000000000000000D+00 -.655622554956752D+03
 0.659481845298250D+03 0.414549012908407D+03 -.181025519848108D+03 0.463325135664333D+03
 0.200546794492751D+03 -.133829141639745D+03 0.809508654997000D+02 -.125521850703917D+03
 0.444221044871466D+03 -.280830092598862D+03 0.659980035119557D+02 -.337803284960416D+03
 0.864969756652403D+02 0.110221330199773D+00 0.340766508364518D+02 0.795015504142032D+02
0.269311846963D-04 0.000000000000D+00 0.000000000000D+00 0.397490623591D-05 0.220794282026D-07  6 2 -1 25 4 -3 21 2 0.19132948D+00 0.59621918D-01 0.22480357D+06 0.22480357D+06 0.22480357D+06 0.10939470D+01  1  2  1  2  6  2       -1 0.235161803092D-03 0.100000000000D+01
  </mgrwgt>
  </event>
  <event>
  6     66 -.16549492E-05 0.10210759E+02 0.75467711E-02 0.94638293E-01
        2 -1    0    0  501    0 0.00000000E+00 0.00000000E+00 0.44306595E+03 0.44306606E+03 0.32000000E+00 0.0000E+00 0.9000E+01
       -1 -1    0    0    0  501 -.00000000E+00 -.00000000E+00 -.59571189E+03 0.59571197E+03 0.32000000E+00 0.0000E+00 0.9000E+01
       24  2    1    2    0    0 0.48789269E+03 0.11656392E+03 -.28527424E+02 0.50712323E+03 0.68802125E+02 0.0000E+00 0.0000E+00
       25  1    1    2    0    0 -.48789269E+03 -.11656392E+03 -.12411852E+03 0.53165480E+03 0.12500000E+03 0.0000E+00 0.9000E+01
        4  1    3    3  502    0 0.46759333E+01 0.93684274E+01 0.34351738E+01 0.11128104E+02 0.15500000E+01 0.0000E+00 0.9000E+01
       -3  1    3    3    0  502 0.48321676E+03 0.10719550E+03 -.31962597E+02 0.49599513E+03 0.50000000E+00 0.0000E+00 0.9000E+01
#aMCatNLO 1  0  0  5  1 0.15673646D+00 0.00000000D+00  -5  6  0 0.00000000D+00 0.00000000D+00 0.00000000D+00 0.00000000D+00 0.00000000D+00
  <mgrwgt>
 -.2737086394D-04    4    2    0
 0.513750673922580D+03 0.000000000000000D+00 0.000000000000000D+00 0.513750673922580D+03
 0.513750673922580D+03 -.000000000000000D+00 -.000000000000000D+00 -.513750673922580D+03
 0.519050554011850D+03 -.487892688879003D+03 -.116563923898624D+03 -.464978860141084D+02
 0.115089470478553D+02 0.443078437949932D+01 0.931448438484593D+01 0.510532982060769D+01
 0.496941846785455D+03 0.483461904499503D+03 0.107249439513778D+03 0.413925561935007D+02
 0.000000000000000D+00 0.000000000000000D+00 0.000000000000000D+00 0.000000000000000D+00
 0.513750673922580D+03 0.000000000000000D+00 0.000000000000000D+00 0.513750673922580D+03
 0.513750673922580D+03 -.000000000000000D+00 -.000000000000000D+00 -.513750673922580D+03
 0.501600648655784D+03 -.470379449469575D+03 -.112678850238733D+03 -.449984550565950D+02
 0.117541492063680D+02 0.482995323663673D+01 0.940303455974267D+01 0.513950545925880D+01
 0.147388601128346D+03 0.113396064233456D+03 0.739213379809606D+02 -.583126757235266D+02
 0.366757948854662D+03 0.352153431999483D+03 0.293544776980296D+02 0.981716253208628D+02
0.159362740420D-04 0.000000000000D+00 0.000000000000D+00 0.300686571481D-06 0.000000000000D+00  6 2 -1 25 4 -3 21 0 0.68164007D-01 0.91647998D-01 0.26137311D+06 0.26137311D+06 0.26137311D+06 0.10890086D+01  1  2  2  4  6  5       -3 0.185012332369D-03 0.100000000000D+01
0.826775972668D-05 0.000000000000D+00 -.611994884387D-07 0.300686571481D-06 0.000000000000D+00  6 2 -1 25 4 -3 21 2 0.68164007D-01 0.91647998D-01 0.26137311D+06 0.26137311D+06 0.26137311D+06 0.10890086D+01  1  2  3  4  6  5       -3 0.113831991617D-03 0.100000000000D+01
-.463968968297D-05 0.000000000000D+00 0.000000000000D+00 0.300686571481D-06 0.000000000000D+00  6 2 -1 25 4 -3 21 2 0.68164007D-01 0.91647998D-01 0.26137311D+06 0.26137311D+06 0.26137311D+06 0.10890086D+01  1  2 15  4  6  5       -3 -.638800756861D-04 0.100000000000D+01
-.190537268570D-04 0.000000000000D+00 0.000000000000D+00 0.300686571481D-06 0.000000000000D+00  6 2 -1 25 4 -3 21 2 0.68164007D-01 0.91647998D-01 0.26137311D+06 0.26137311D+06 0.26137311D+06 0.10890086D+01  1  2  5  4  6  5       -3 -.262335112238D-03 0.100000000000D+01
  </mgrwgt>
  </event>
  <event>
  7     66 0.16549492E-05 0.53585296E+02 0.75467711E-02 0.92988608E-01
        2 -1    0    0  503    0 0.00000000E+00 0.00000000E+00 0.12487648E+04 0.12487649E+04 0.32000000E+00 0.0000E+00 0.9000E+01
       -1 -1    0    0    0  501 0.00000000E+00 0.00000000E+00 -.47656268E+03 0.47656278E+03 0.32000000E+00 0.0000E+00 0.9000E+01
       24  2    1    2    0    0 0.55436496E+03 -.44585475E+02 0.35411319E+03 0.66404185E+03 0.79038301E+02 0.0000E+00 0.0000E+00
       25  1    1    2    0    0 -.50267732E+03 -.14676003E+02 -.10801943E+03 0.52933266E+03 0.12500000E+03 0.0000E+00 0.9000E+01
        4  1    3    3  502    0 0.15315316E+03 -.47095025E+02 0.11069536E+03 0.19475548E+03 0.15500000E+01 0.0000E+00 0.9000E+01
       -3  1    3    3    0  502 0.40121180E+03 0.25095503E+01 0.24341783E+03 0.46928637E+03 0.50000000E+00 0.0000E+00 0.9000E+01
       21  1    1    2  503  501 -.51687643E+02 0.59261478E+02 0.52610840E+03 0.53195314E+03 0.75000000E+00 0.0000E+00 0.9000E+01
#aMCatNLO 2  0  0  1  2 0.72475391D+01 0.00000000D+00  -5  6  0 0.00000000D+00 0.00000000D+00 0.00000000D+00 0.00000000D+00 0.00000000D+00
  <mgrwgt>
 0.1277216017D-02    1    2    0
 0.582536922823194D+03 0.000000000000000D+00 0.000000000000000D+00 0.582536922823194D+03
 0.582536922823194D+03 0.000000000000000D+00 0.000000000000000D+00 -.582536922823194D+03
 0.586561537681477D+03 -.528164125183507D+03 0.145454058046510D+02 -.221947123266732D+03
 0.166762840936429D+03 0.145420389153539D+03 -.384019737935176D+02 0.720280774724957D+02
 0.411749467028483D+03 0.382743736029968D+03 0.238565679888666D+02 0.149919045794236D+03
 0.000000000000000D+00 -.000000000000000D+00 0.000000000000000D+00 0.000000000000000D+00
 0.101302171763489D+04 0.000000000000000D+00 0.000000000000000D+00 0.101302171763489D+04
 0.587464389912743D+03 0.000000000000000D+00 0.000000000000000D+00 -.587464389912743D+03
 0.563724576816954D+03 -.502677319872517D+03 -.146760030954808D+02 -.221947123266732D+03
 0.175547032827135D+03 0.153004923991157D+03 -.470978770698596D+02 0.720280774724957D+02
 0.428452930249482D+03 0.401360039096956D+03 0.251240195897767D+01 0.149919045794236D+03
 0.432761567654058D+03 -.516876432155951D+02 0.592614782063627D+02 0.425557327722144D+03
0.228896836401D-03 0.000000000000D+00 0.000000000000D+00 0.772858763902D-04 0.911333342335D-07  6 2 -1 25 4 -3 21 2 0.19211757D+00 0.73317306D-01 0.33540715D+06 0.33540715D+06 0.33540715D+06 0.10809853D+01  1  2  1  1  6  1        2 0.127721601654D-02 0.100000000000D+01
  </mgrwgt>
  </event>
  <event>
  7     66 0.16549492E-05 0.46204026E+02 0.75467711E-02 0.94365228E-01
        2 -1    0    0  501    0 0.00000000E+00 0.00000000E+00 0.10411937E+04 0.10411937E+04 0.32000000E+00 0.0000E+00 0.9000E+01
       -1 -1    0    0    0  503 0.00000000E+00 0.00000000E+00 -.33559225E+03 0.33559240E+03 0.32000000E+00 0.0000E+00 0.9000E+01
       24  2    1    2    0    0 -.34690576E+03 -.35264630E+03 0.58606529E+03 0.77123882E+03 0.81448055E+02 0.0000E+00 0.0000E+00
       25  1    1    2    0    0 0.34963817E+03 0.31198338E+03 0.19264697E+03 0.52184129E+03 0.12500000E+03 0.0000E+00 0.9000E+01
        4  1    3    3  502    0 -.15741788E+03 -.12264400E+03 0.18964272E+03 0.27529748E+03 0.15500000E+01 0.0000E+00 0.9000E+01
       -3  1    3    3    0  502 -.18948788E+03 -.23000230E+03 0.39642257E+03 0.49594134E+03 0.50000000E+00 0.0000E+00 0.9000E+01
       21  1    1    2  501  503 -.27324078E+01 0.40662913E+02 -.73110833E+02 0.83706002E+02 0.75000000E+00 0.0000E+00 0.9000E+01
#aMCatNLO 2  0  0  2  2 0.43956049D+02 0.00000000D+00  -5  6  0 0.00000000D+00 0.00000000D+00 0.00000000D+00 0.00000000D+00 0.00000000D+00
  <mgrwgt>
 0.1219398020D-02    1    2    0
 0.515752477390393D+03 0.000000000000000D+00 0.000000000000000D+00 0.515752477390393D+03
 0.515752477390393D+03 0.000000000000000D+00 0.000000000000000D+00 -.515752477390393D+03
 0.520110776670736D+03 0.348276537286188D+03 0.332246769644880D+03 -.152334361342150D+03
 0.197418378165733D+03 -.157883545462640D+03 -.114702017637276D+03 0.298370450895015D+02
 0.313975799944316D+03 -.190392991823549D+03 -.217544752007604D+03 0.122497316252648D+03
 0.000000000000000D+00 -.000000000000000D+00 0.000000000000000D+00 -.000000000000000D+00
 0.518793619965361D+03 0.000000000000000D+00 0.000000000000000D+00 0.518793619965361D+03
 0.673515383867704D+03 0.000000000000000D+00 0.000000000000000D+00 -.673515383867704D+03
 0.508341654763936D+03 0.349638167032154D+03 0.311983384937422D+03 -.152334361342150D+03
 0.201675843230410D+03 -.157355160729728D+03 -.122565288213040D+03 0.298370450895015D+02
 0.322292247306508D+03 -.189550598463327D+03 -.230081009227125D+03 0.122497316252648D+03
 0.159999258532211D+03 -.273240783909919D+01 0.406629125027440D+02 -.154721763902343D+03
0.824931864463D-04 0.000000000000D+00 0.000000000000D+00 0.947971176774D-04 0.371477714388D-06  6 2 -1 25 4 -3 21 2 0.16018339D+00 0.51629505D-01 0.26178377D+06 0.26178377D+06 0.26178377D+06 0.10889575D+01  1  2  1  2  6  2       -1 0.121939802033D-02 0.100000000000D+01
  </mgrwgt>
  </event>
  <event>
  7     66 0.16549492E-05 0.30057495E+03 0.75467711E-02 0.89707545E-01
        2 -1    0    0  503    0 0.00000000E+00 0.00000000E+00 0.20418287E+04 0.20418287E+04 0.32000000E+00 0.0000E+00 0.9000E+01
       -1 -1    0    0    0  501 0.00000000E+00 0.00000000E+00 -.60041348E+03 0.60041357E+03 0.32000000E+00 0.0000E+00 0.9000E+01
       24  2    1    2    0    0 -.69444750E+03 -.35310941E+03 0.24676213E+03 0.82117951E+03 0.80626585E+02 0.0000E+00 0.0000E+00
       25  1    1    2    0    0 0.42760401E+03 0.16447368E+03 -.10042355E+03 0.48539332E+03 0.12500000E+03 0.0000E+00 0.9000E+01
        4  1    3    3  502    0 -.48732116E+03 -.24836052E+03 0.13403171E+03 0.56314453E+03 0.15500000E+01 0.0000E+00 0.9000E+01
       -3  1    3    3    0  502 -.20712634E+03 -.10474889E+03 0.11273042E+03 0.25803497E+03 0.50000000E+00 0.0000E+00 0.9000E+01
       21  1    1    2  503  501 0.26684349E+03 0.18863573E+03 0.12950766E+04 0.13356695E+04 0.75000000E+00 0.0000E+00 0.9000E+01
#aMCatNLO 2  0  0  1  2 0.72475391D+01 0.00000000D+00  -5  6  0 0.00000000D+00 0.00000000D+00 0.00000000D+00 0.00000000D+00 0.00000000D+00
  <mgrwgt>
 0.2747359135D-03    1    2    0
 0.628277142615731D+03 0.000000000000000D+00 0.000000000000000D+00 0.628277142615731D+03
 0.628277142615731D+03 0.000000000000000D+00 0.000000000000000D+00 -.628277142615731D+03
 0.631907846810956D+03 0.545802100360530D+03 0.248029711598603D+03 -.155768598464539D+03
 0.429123620269503D+03 -.384840030516231D+03 -.175926755401596D+03 0.713793325783982D+02
 0.195522818151003D+03 -.160962069844299D+03 -.721029561970068D+02 0.843892658861411D+02
 0.000000000000000D+00 0.000000000000000D+00 0.000000000000000D+00 0.000000000000000D+00
 0.182462033503016D+04 0.000000000000000D+00 0.000000000000000D+00 0.182462033503016D+04
 0.671888380304349D+03 0.000000000000000D+00 0.000000000000000D+00 -.671888380304349D+03
 0.499785591972195D+03 0.427604010642997D+03 0.164473681047803D+03 -.155768598464539D+03
 0.551533338229058D+03 -.487263332790892D+03 -.248331348355909D+03 0.713793325783982D+02
 0.247032931782955D+03 -.207184167139437D+03 -.104778061039600D+03 0.843892658861411D+02
 0.119815685335031D+04 0.266843489287332D+03 0.188635728347706D+03 0.115273195472581D+04
0.235601506112D-03 0.000000000000D+00 0.000000000000D+00 0.158041625668D-03 0.156981842598D-07  6 2 -1 25 4 -3 21 2 0.31412745D+00 0.92371298D-01 0.62468763D+06 0.62468763D+06 0.62468763D+06 0.10617430D+01  1  2  1  1  6  1        2 0.274735913490D-03 0.100000000000D+01
  </mgrwgt>
  </event>
  <event>
  7     66 0.16549492E-05 0.29969416E+02 0.75467711E-02 0.91089878E-01
        2 -1    0    0  501    0 0.00000000E+00 0.00000000E+00 0.13492645E+04 0.13492645E+04 0.32000000E+00 0.0000E+00 0.9000E+01
       -1 -1    0    0    0  503 0.00000000E+00 0.00000000E+00 -.54583625E+03 0.54583634E+03 0.32000000E+00 0.0000E+00 0.9000E+01
       24  2    1    2    0    0 -.66501392E+03 0.51070380E+02 0.93683107E+03 0.11528420E+04 0.80873639E+02 0.0000E+00 0.0000E+00
       25  1    1    2    0    0 0.65496734E+03 -.57124100E+01 -.80193016E+02 0.67161802E+03 0.12500000E+03 0.0000E+00 0.9000E+01
        4  1    3    3  502    0 -.57364848E+03 0.23651732E+02 0.83466960E+03 0.10130685E+04 0.15500000E+01 0.0000E+00 0.9000E+01
       -3  1    3    3    0  502 -.91365438E+02 0.27418648E+02 0.10216147E+03 0.13977353E+03 0.50000000E+00 0.0000E+00 0.9000E+01
       21  1    1    2  501  503 0.10046580E+02 -.45357970E+02 -.53209820E+02 0.70640829E+02 0.75000000E+00 0.0000E+00 0.9000E+01
#aMCatNLO 2  0  0  2  2 0.43956049D+02 0.00000000D+00  -5  6  0 0.00000000D+00 0.00000000D+00 0.00000000D+00 0.00000000D+00 0.00000000D+00
  <mgrwgt>
 0.1085019059D-02    1    2    0
 0.805088096415108D+03 0.000000000000000D+00 0.000000000000000D+00 0.805088096415108D+03
 0.805088096415108D+03 0.000000000000000D+00 0.000000000000000D+00 -.805088096415108D+03
 0.807909046871217D+03 0.659992892742283D+03 -.284016048354785D+02 -.447989685583051D+03
 0.699575322393126D+03 -.569260481433758D+03 0.388426780555844D+01 0.406611667863659D+03
 0.102691823565873D+03 -.907324113085247D+02 0.245173370299201D+02 0.413780177193926D+02
 0.000000000000000D+00 0.000000000000000D+00 -.000000000000000D+00 -.000000000000000D+00
 0.810658248877915D+03 0.000000000000000D+00 0.000000000000000D+00 0.810658248877915D+03
 0.908490404233783D+03 0.000000000000000D+00 0.000000000000000D+00 -.908490404233783D+03
 0.803327211025451D+03 0.654967341137998D+03 -.571240997739199D+01 -.447989685583051D+03
 0.703527722966659D+03 -.573636851892172D+03 0.236425610081338D+02 0.406611667863659D+03
 0.103991319124648D+03 -.913770695914031D+02 0.274278190125615D+02 0.413780177193926D+02
 0.108302399994940D+03 0.100465803455769D+02 -.453579700433033D+02 -.978321553558678D+02
0.304015103182D-03 0.000000000000D+00 0.000000000000D+00 0.101647678375D-03 0.289082529340D-06  6 2 -1 25 4 -3 21 2 0.20757883D+00 0.83974684D-01 0.47803329D+06 0.47803329D+06 0.47803329D+06 0.10698921D+01  1  2  1  2  6  2       -1 0.108501905929D-02 0.100000000000D+01
  </mgrwgt>
  </event>
  <event>
  6     66 0.16549492E-05 0.17162475E+02 0.75467711E-02 0.93513025E-01
        2 -1    0    0  501    0 0.00000000E+00 0.00000000E+00 0.12011486E+04 0.12011486E+04 0.32000000E+00 0.0000E+00 0.9000E+01
       -1 -1    0    0    0  501 0.00000000E+00 0.00000000E+00 -.28148952E+03 0.28148970E+03 0.32000000E+00 0.0000E+00 0.9000E+01
       24  2    1    2    0    0 0.52047449E+03 -.53383385E+02 0.16260255E+03 0.55392790E+03 0.81566215E+02 0.0000E+00 0.0000E+00
       25  1    1    2    0    0 -.52047449E+03 0.53383385E+02 0.75705650E+03 0.92871041E+03 0.12500000E+03 0.0000E+00 0.9000E+01
        4  1    3    3  502    0 0.50249729E+03 -.65492195E+02 0.14848455E+03 0.52805570E+03 0.15500000E+01 0.0000E+00 0.9000E+01
       -3  1    3    3    0  502 0.17977202E+02 0.12108810E+02 0.14117999E+02 0.25872205E+02 0.50000000E+00 0.0000E+00 0.9000E+01
#aMCatNLO 1  0  0  1  4 0.37374447D+02 0.00000000D+00  -5  6  0 0.00000000D+00 0.00000000D+00 0.00000000D+00 0.00000000D+00 0.00000000D+00
  <mgrwgt>
 0.2228812377D-03    7    2    0
 0.581473044878070D+03 0.000000000000000D+00 0.000000000000000D+00 0.581473044878070D+03
 0.581473044878070D+03 0.000000000000000D+00 0.000000000000000D+00 -.581473044878070D+03
 0.585330469041398D+03 -.520474495065960D+03 0.533833854731728D+02 0.230745037063595D+03
 0.555808731233866D+03 0.502509694930440D+03 -.654990325764944D+02 -.228291981787051D+03
 0.218068894808766D+02 0.179648001355196D+02 0.121156471033216D+02 -.245305527654393D+01
 0.000000000000000D+00 -.000000000000000D+00 0.000000000000000D+00 0.000000000000000D+00
 0.617084025326165D+03 0.000000000000000D+00 0.000000000000000D+00 0.617084025326165D+03
 0.591662931172099D+03 0.000000000000000D+00 0.000000000000000D+00 -.591662931172099D+03
 0.569405239927032D+03 -.503161062595707D+03 0.467225878397149D+02 0.230745037063595D+03
 0.571924073356601D+03 0.519418261631134D+03 -.720040708615747D+02 -.228291981787051D+03
 0.222171864088206D+02 0.186248714046955D+02 0.118617054799494D+02 -.245305527654393D+01
 0.452004568058101D+02 -.348820704401221D+02 0.134197775419104D+02 0.254210941540663D+02
0.551881498093D-05 0.000000000000D+00 0.000000000000D+00 0.120868526544D-04 0.000000000000D+00  6 2 -1 25 4 -3 21 0 0.18479210D+00 0.43306097D-01 0.28428022D+06 0.28428022D+06 0.28428022D+06 0.10862855D+01  1  2  2  1  6  1        2 0.756985517586D-04 0.100000000000D+01
0.211166093751D-05 0.000000000000D+00 -.211937026641D-07 0.120868526544D-04 0.000000000000D+00  6 2 -1 25 4 -3 21 2 0.18479210D+00 0.43306097D-01 0.28428022D+06 0.28428022D+06 0.28428022D+06 0.10862855D+01  1  2  3  1  6  1        2 0.341785679850D-04 0.100000000000D+01
-.167920215767D-05 0.000000000000D+00 0.000000000000D+00 0.120868526544D-04 0.000000000000D+00  6 2 -1 25 4 -3 21 2 0.18479210D+00 0.43306097D-01 0.28428022D+06 0.28428022D+06 0.28428022D+06 0.10862855D+01  1  2 15  1  6  1        2 -.271789490855D-04 0.100000000000D+01
-.156177413151D-05 0.000000000000D+00 0.000000000000D+00 0.120868526544D-04 0.000000000000D+00  6 2 -1 25 4 -3 21 2 0.18479210D+00 0.43306097D-01 0.28428022D+06 0.28428022D+06 0.28428022D+06 0.10862855D+01  1  2  4  1  6  1        2 -.252783022042D-04 0.100000000000D+01
-.928809421665D-04 0.000000000000D+00 -.138626018556D-04 0.120868526544D-04 0.000000000000D+00  6 2 -1 25 4 -3 21 2 0.19792193D+00 0.43306097D-01 0.28428022D+06 0.28428022D+06 0.28428022D+06 0.10862855D+01  1  2  5  1  6  1        2 -.134317842037D-02 0.100000000000D+01
0.936443869312D-04 0.000000000000D+00 0.138300081991D-04 0.120868526544D-04 0.000000000000D+00  6 2 -1 25 4 -3 21 2 0.18479210D+00 0.43306097D-01 0.28428022D+06 0.28428022D+06 0.28428022D+06 0.10862855D+01  1  2  6  1  6  1        2 0.151569363636D-02 0.100000000000D+01
-.105910717909D-05 0.000000000000D+00 -.161422932284D-06 0.120868526544D-04 0.000000000000D+00  6 21 -1 25 4 -3 -2 2 0.19792193D+00 0.43306097D-01 0.28428022D+06 0.28428022D+06 0.28428022D+06 0.10862855D+01  1  2  5  5  6  1        2 -.705384678708D-05 0.100000000000D+01
  </mgrwgt>
  </event>
  <event>
  7     66 0.16549492E-05 0.48981040E+02 0.75467711E-02 0.93406034E-01
        2 -1    0    0  501    0 0.00000000E+00 0.00000000E+00 0.11106789E+04 0.11106789E+04 0.32000000E+00 0.0000E+00 0.9000E+01
       -1 -1    0    0    0  503 0.00000000E+00 0.00000000E+00 -.31977672E+03 0.31977688E+03 0.32000000E+00 0.0000E+00 0.9000E+01
       24  2    1    2    0    0 -.13662136E+03 0.51551151E+03 0.59285534E+03 0.80153142E+03 0.80979298E+02 0.0000E+00 0.0000E+00
       25  1    1    2    0    0 0.16306358E+03 -.51544772E+03 0.21760012E+03 0.59602927E+03 0.12500000E+03 0.0000E+00 0.9000E+01
        4  1    3    3  502    0 -.96507314E+02 0.32072752E+03 0.31462250E+03 0.45953185E+03 0.15500000E+01 0.0000E+00 0.9000E+01
       -3  1    3    3    0  502 -.40114048E+02 0.19478399E+03 0.27823284E+03 0.34199957E+03 0.50000000E+00 0.0000E+00 0.9000E+01
       21  1    1    2  501  503 -.26442217E+02 -.63798276E-01 -.19553292E+02 0.32895116E+02 0.75000000E+00 0.0000E+00 0.9000E+01
#aMCatNLO 2  0  0  2  2 0.43956049D+02 0.00000000D+00  -5  6  0 0.00000000D+00 0.00000000D+00 0.00000000D+00 0.00000000D+00 0.00000000D+00
  <mgrwgt>
 0.1409031324D-02    1    2    0
 0.569130616576109D+03 0.000000000000000D+00 0.000000000000000D+00 0.569130616576109D+03
 0.569130616576109D+03 0.000000000000000D+00 0.000000000000000D+00 -.569130616576109D+03
 0.573113600959445D+03 0.149709889559099D+03 -.515479934514226D+03 -.157167381113617D+03
 0.342355051846100D+03 -.104421360485917D+03 0.320649240456472D+03 0.590527356987249D+02
 0.222792580346673D+03 -.452885290731821D+02 0.194830694057754D+03 0.981146454148920D+02
 0.000000000000000D+00 -.000000000000000D+00 -.000000000000000D+00 -.000000000000000D+00
 0.572721455902177D+03 0.000000000000000D+00 0.000000000000000D+00 0.572721455902177D+03
 0.620137754565415D+03 0.000000000000000D+00 0.000000000000000D+00 -.620137754565415D+03
 0.576717143645606D+03 0.163063578647838D+03 -.515447715493234D+03 -.157167381113617D+03
 0.340039642156063D+03 -.964962927120168D+02 0.320668361608932D+03 0.590527356987249D+02
 0.221811538808442D+03 -.401250689703571D+02 0.194843152160406D+03 0.981146454148920D+02
 0.542908858574811D+02 -.264422169654638D+02 -.637982761037718D-01 -.474162986632376D+02
0.976587692613D-04 0.000000000000D+00 0.000000000000D+00 0.138873837430D-03 0.124837957767D-05  6 2 -1 25 4 -3 21 2 0.17087292D+00 0.49196212D-01 0.31088162D+06 0.31088162D+06 0.31088162D+06 0.10834089D+01  1  2  1  2  6  2       -1 0.140903132418D-02 0.100000000000D+01
  </mgrwgt>
  </event>
  <event>
  7     66 0.16549492E-05 0.40871247E+02 0.75467711E-02 0.91317489E-01
        2 -1    0    0  501    0 0.00000000E+00 0.00000000E+00 0.22596885E+04 0.22596886E+04 0.32000000E+00 0.0000E+00 0.9000E+01
       -1 -1    0    0    0  503 0.00000000E+00 0.00000000E+00 -.47087133E+03 0.47087144E+03 0.32000000E+00 0.0000E+00 0.9000E+01
       24  2    1    2    0    0 0.63494263E+03 0.14629540E+03 0.76271319E+03 0.10066708E+04 0.84262918E+02 0.0000E+00 0.0000E+00
       25  1    1    2    0    0 -.65079697E+03 -.15873686E+03 0.12901593E+04 0.14590648E+04 0.12500000E+03 0.0000E+00 0.9000E+01
        4  1    3    3  502    0 0.17165000E+03 0.36489125E+02 0.26546251E+03 0.31822622E+03 0.15500000E+01 0.0000E+00 0.9000E+01
       -3  1    3    3    0  502 0.46329263E+03 0.10980628E+03 0.49725068E+03 0.68844460E+03 0.50000000E+00 0.0000E+00 0.9000E+01
       21  1    1    2  501  503 0.15854337E+02 0.12441457E+02 -.26405533E+03 0.26482434E+03 0.75000000E+00 0.0000E+00 0.9000E+01
#aMCatNLO 2  0  0  2  1 0.27157440D+01 0.00000000D+00  -5  6  0 0.00000000D+00 0.00000000D+00 0.00000000D+00 0.00000000D+00 0.00000000D+00
  <mgrwgt>
 0.2232294173D-02    1    2    0
 0.682854404811027D+03 0.000000000000000D+00 0.000000000000000D+00 0.682854404811027D+03
 0.682854404811027D+03 0.000000000000000D+00 0.000000000000000D+00 -.682854404811027D+03
 0.685975407414868D+03 -.642782194813083D+03 -.152447385973296D+03 0.136117978677244D+03
 0.177675457099879D+03 0.173548121621972D+03 0.380610890452121D+02 0.985412516891699D+00
 0.502057945107308D+03 0.469234073191111D+03 0.114386296928084D+03 -.137103391194135D+03
 0.000000000000000D+00 0.000000000000000D+00 0.000000000000000D+00 -.000000000000000D+00
 0.683044813321955D+03 0.000000000000000D+00 0.000000000000000D+00 0.683044813321955D+03
 0.155776342035793D+04 0.000000000000000D+00 0.000000000000000D+00 -.155776342035793D+04
 0.694900845208722D+03 -.650796965365327D+03 -.158736859058946D+03 0.136117978677244D+03
 0.175333370972755D+03 0.171499216258770D+03 0.364532407539976D+02 0.985412516891699D+00
 0.495623280972463D+03 0.463443412300160D+03 0.109842161124775D+03 -.137103391194135D+03
 0.874950736525949D+03 0.158543368063966D+02 0.124414571801732D+02 -.874718607035979D+03
0.147069758975D-02 0.000000000000D+00 0.000000000000D+00 0.181022591846D-04 0.370106475628D-06  6 2 -1 25 4 -3 21 2 0.34764432D+00 0.72441736D-01 0.45779116D+06 0.45779116D+06 0.45779116D+06 0.10712280D+01  1  2  1  2  6  2       -1 0.223229417338D-02 0.100000000000D+01
  </mgrwgt>
  </event>
  <event>
  6     66 -.16549492E-05 0.94000651E+01 0.75467711E-02 0.89847540E-01
        2 -1    0    0  501    0 0.00000000E+00 0.00000000E+00 0.19405500E+04 0.19405500E+04 0.32000000E+00 0.0000E+00 0.9000E+01
       -1 -1    0    0    0  501 0.00000000E+00 0.00000000E+00 -.34544759E+03 0.34544774E+03 0.32000000E+00 0.0000E+00 0.9000E+01
       24  2    1    2    0    0 0.50133111E+03 0.58896882E+03 0.44962385E+03 0.89820698E+03 0.79981410E+02 0.0000E+00 0.0000E+00
       25  1    1    2    0    0 -.50133111E+03 -.58896882E+03 0.11454785E+04 0.13877908E+04 0.12500000E+03 0.0000E+00 0.9000E+01
        4  1    3    3  502    0 0.50086642E+03 0.57847106E+03 0.44997715E+03 0.88768112E+03 0.15500000E+01 0.0000E+00 0.9000E+01
       -3  1    3    3    0  502 0.46468826E+00 0.10497760E+02 -.35329994E+00 0.10525860E+02 0.50000000E+00 0.0000E+00 0.9000E+01
#aMCatNLO 1  0  0  5  2 0.67242878D+00 0.00000000D+00  -5  6  0 0.00000000D+00 0.00000000D+00 0.00000000D+00 0.00000000D+00 0.00000000D+00
  <mgrwgt>
 -.1115693586D-01    6    2    0
 0.818754250221974D+03 0.000000000000000D+00 0.000000000000000D+00 0.818754250221974D+03
 0.818754250221974D+03 -.000000000000000D+00 -.000000000000000D+00 -.818754250221974D+03
 0.821571937590131D+03 -.501331106287648D+03 -.588968815225922D+03 0.247261612862531D+03
 0.800923755197369D+03 0.500885833085160D+03 0.578489735647463D+03 -.236520336556012D+03
 0.150128076564478D+02 0.445273202487868D+00 0.104790795784588D+02 -.107412763065184D+02
 0.000000000000000D+00 0.000000000000000D+00 0.000000000000000D+00 0.000000000000000D+00
 0.818754250221974D+03 0.000000000000000D+00 0.000000000000000D+00 0.818754250221974D+03
 0.818754250221974D+03 -.000000000000000D+00 -.000000000000000D+00 -.818754250221974D+03
 0.821490302187339D+03 -.501327806596341D+03 -.588891160142265D+03 0.247182014773413D+03
 0.801003372434359D+03 0.500889050166589D+03 0.578565446586523D+03 -.236597941856151D+03
 0.138112405530468D+02 -.257568284619543D+00 0.958178211056418D+01 -.994351425696949D+01
 0.120358526920379D+01 0.696324714372117D+00 0.743931445177931D+00 -.640558660291484D+00
0.743474810125D-05 0.000000000000D+00 0.000000000000D+00 0.213559491149D-04 0.000000000000D+00  6 2 -1 25 4 -3 21 0 0.29854617D+00 0.53145797D-01 0.60775528D+06 0.60775528D+06 0.60775528D+06 0.10625712D+01  1  2  2  4  6  5       -3 0.264175807029D-04 0.100000000000D+01
0.439100876507D-05 0.000000000000D+00 -.285513903229D-07 0.213559491149D-04 0.000000000000D+00  6 2 -1 25 4 -3 21 2 0.29854617D+00 0.53145797D-01 0.60775528D+06 0.60775528D+06 0.60775528D+06 0.10625712D+01  1  2  3  4  6  5       -3 0.176159936486D-04 0.100000000000D+01
-.231423646422D-05 0.000000000000D+00 0.000000000000D+00 0.213559491149D-04 0.000000000000D+00  6 2 -1 25 4 -3 21 2 0.29854617D+00 0.53145797D-01 0.60775528D+06 0.60775528D+06 0.60775528D+06 0.10625712D+01  1  2 15  4  6  5       -3 -.928433010189D-05 0.100000000000D+01
-.287582307682D-02 0.000000000000D+00 0.000000000000D+00 0.213559491149D-04 0.000000000000D+00  6 2 -1 25 4 -3 21 2 0.29854617D+00 0.53145797D-01 0.60775528D+06 0.60775528D+06 0.60775528D+06 0.10625712D+01  1  2  4  4  6  5       -3 -.115373217787D-01 0.100000000000D+01
-.232540723226D-03 0.000000000000D+00 0.000000000000D+00 0.213559491149D-04 0.000000000000D+00  6 2 -1 25 4 -3 21 2 0.29854617D+00 0.53145797D-01 0.60775528D+06 0.60775528D+06 0.60775528D+06 0.10625712D+01  1  2  5  4  6  5       -3 -.932914535718D-03 0.100000000000D+01
0.318695027996D-03 0.000000000000D+00 -.000000000000D+00 0.213559491149D-04 0.000000000000D+00  6 2 -1 25 4 -3 21 2 0.29854617D+00 0.53145797D-01 0.60775528D+06 0.60775528D+06 0.60775528D+06 0.10625712D+01  1  2  6  4  6  5       -3 0.127855121440D-02 0.100000000000D+01
  </mgrwgt>
  </event>
  <event>
  7     66 0.16549492E-05 0.82093542E+02 0.75467711E-02 0.90514068E-01
        2 -1    0    0  503    0 0.00000000E+00 0.00000000E+00 0.55446845E+03 0.55446854E+03 0.32000000E+00 0.0000E+00 0.9000E+01
       -1 -1    0    0    0  501 0.00000000E+00 0.00000000E+00 -.14629998E+04 0.14629999E+04 0.32000000E+00 0.0000E+00 0.9000E+01
       24  2    1    2    0    0 0.15519269E+03 -.60574767E+03 -.27426120E+03 0.68746702E+03 0.79854134E+02 0.0000E+00 0.0000E+00
       25  1    1    2    0    0 -.92434650E+02 0.70173035E+03 -.83320687E+03 0.11003764E+04 0.12500000E+03 0.0000E+00 0.9000E+01
        4  1    3    3  502    0 0.12023204E+03 -.35727106E+03 -.13445612E+03 0.40022394E+03 0.15500000E+01 0.0000E+00 0.9000E+01
       -3  1    3    3    0  502 0.34960650E+02 -.24847661E+03 -.13980508E+03 0.28724308E+03 0.50000000E+00 0.0000E+00 0.9000E+01
       21  1    1    2  503  501 -.62758045E+02 -.95982678E+02 0.19893669E+03 0.22962495E+03 0.75000000E+00 0.0000E+00 0.9000E+01
#aMCatNLO 2  0  0  1  2 0.16018951D+01 0.00000000D+00  -5  6  0 0.00000000D+00 0.00000000D+00 0.00000000D+00 0.00000000D+00 0.00000000D+00
  <mgrwgt>
 0.1029305946D-02    1    2    0
 0.699418951638867D+03 0.000000000000000D+00 0.000000000000000D+00 0.699418951638867D+03
 0.699418951638867D+03 0.000000000000000D+00 0.000000000000000D+00 -.699418951638867D+03
 0.702724666094310D+03 -.124838699651539D+03 0.652171320968808D+03 -.193092784724009D+03
 0.424107830565489D+03 0.101686503286810D+03 -.385542180078962D+03 0.144514824070849D+03
 0.272005406617936D+03 0.231521963647295D+02 -.266629140889847D+03 0.485779606531599D+02
 0.000000000000000D+00 -.000000000000000D+00 -.000000000000000D+00 0.000000000000000D+00
 0.114379989253514D+04 0.000000000000000D+00 0.000000000000000D+00 0.114379989253514D+04
 0.709203311140741D+03 0.000000000000000D+00 0.000000000000000D+00 -.709203311140741D+03
 0.744230788135109D+03 -.924346498484506D+02 0.701730345647905D+03 -.193092784724009D+03
 0.403638391147781D+03 0.120223583826721D+03 -.357191414124136D+03 0.144514824070849D+03
 0.255661627787870D+03 0.349691108470344D+02 -.248556253086684D+03 0.485779606531599D+02
 0.449472396605116D+03 -.627580448253048D+02 -.959826784370858D+02 0.434596581394395D+03
0.143901219516D-02 0.000000000000D+00 0.000000000000D+00 0.232517302354D-03 0.118109998195D-06  6 2 -1 25 4 -3 21 2 0.85302811D-01 0.22507681D+00 0.53385624D+06 0.53385624D+06 0.53385624D+06 0.10665052D+01  1  2  1  1  6  1        2 0.102930594581D-02 0.100000000000D+01
  </mgrwgt>
  </event>
  <event>
  7     66 0.16549492E-05 0.60131434E+02 0.75467711E-02 0.86848751E-01
        2 -1    0    0  501    0 0.00000000E+00 0.00000000E+00 0.93417604E+03 0.93417610E+03 0.32000000E+00 0.0000E+00 0.9000E+01
       -1 -1    0    0    0  503 0.00000000E+00 0.00000000E+00 -.13182745E+04 0.13182746E+04 0.32000000E+00 0.0000E+00 0.9000E+01
       24  2    1    2    0    0 0.16555084E+03 0.10350160E+04 -.36711374E+03 0.11135726E+04 0.81278736E+02 0.0000E+00 0.0000E+00
       25  1    1    2    0    0 -.17843460E+03 -.10188406E+04 0.75024027E+02 0.10445711E+04 0.12500000E+03 0.0000E+00 0.9000E+01
        4  1    3    3  502    0 0.10798766E+03 0.43767224E+03 -.14215015E+03 0.47268107E+03 0.15500000E+01 0.0000E+00 0.9000E+01
       -3  1    3    3    0  502 0.57563184E+02 0.59734376E+03 -.22496359E+03 0.64089154E+03 0.50000000E+00 0.0000E+00 0.9000E+01
       21  1    1    2  501  503 0.12883760E+02 -.16175391E+02 -.92008759E+02 0.94306992E+02 0.75000000E+00 0.0000E+00 0.9000E+01
#aMCatNLO 2  0  0  2  2 0.75724018D+02 0.00000000D+00  -5  6  0 0.00000000D+00 0.00000000D+00 0.00000000D+00 0.00000000D+00 0.00000000D+00
  <mgrwgt>
 0.1136509166D-02    1    2    0
 0.106909307625389D+04 0.000000000000000D+00 0.000000000000000D+00 0.106909307625389D+04
 0.106909307625389D+04 0.000000000000000D+00 0.000000000000000D+00 -.106909307625389D+04
 0.107120205236868D+04 -.172000295580506D+03 -.102691879551492D+04 0.218409072012325D+03
 0.454808662992459D+03 0.110719160709016D+03 0.434020955097716D+03 -.788542828319818D+02
 0.612175437146648D+03 0.612811348714900D+02 0.592897840417202D+03 -.139554789180343D+03
 0.000000000000000D+00 0.000000000000000D+00 -.000000000000000D+00 -.000000000000000D+00
 0.107045813184505D+04 0.000000000000000D+00 0.000000000000000D+00 0.107045813184505D+04
 0.115043888918614D+04 0.000000000000000D+00 0.000000000000000D+00 -.115043888918614D+04
 0.106451990010596D+04 -.178434601024939D+03 -.101884060978221D+04 0.218409072012325D+03
 0.457446159754394D+03 0.107970803805202D+03 0.437471480989053D+03 -.788542828319818D+02
 0.616320089680808D+03 0.575800372414501D+02 0.597544519740800D+03 -.139554789180343D+03
 0.826108714900301D+02 0.128837599782872D+02 -.161753909476454D+02 -.799807573410942D+02
0.220908250050D-02 0.000000000000D+00 0.000000000000D+00 0.167688646571D-03 0.228876099668D-05  6 2 -1 25 4 -3 21 2 0.14371917D+00 0.20281115D+00 0.11166820D+07 0.11166820D+07 0.11166820D+07 0.10446883D+01  1  2  1  2  6  2       -1 0.113650916650D-02 0.100000000000D+01
  </mgrwgt>
  </event>
  <event>
  6     66 0.16549492E-05 0.20634291E+02 0.75467711E-02 0.92228542E-01
        4 -1    0    0  501    0 0.00000000E+00 0.00000000E+00 0.49370422E+03 0.49370665E+03 0.15500000E+01 0.0000E+00 0.9000E+01
       -3 -1    0    0    0  501 -.00000000E+00 -.00000000E+00 -.98459365E+03 0.98459378E+03 0.50000000E+00 0.0000E+00 0.9000E+01
       25  1    1    2    0    0 -.57285090E+03 0.16151244E+03 0.85490153E+02 0.61414818E+03 0.12500000E+03 0.0000E+00 0.9000E+01
        2  1    1    2  502    0 0.73674761E+02 -.41997422E+02 -.48189019E+02 0.97539929E+02 0.32000000E+00 0.0000E+00 0.9000E+01
       -1  1    1    2    0  503 0.50915091E+03 -.13869667E+03 -.47820282E+03 0.71214426E+03 0.32000000E+00 0.0000E+00 0.9000E+01
       21  1    1    2  503  502 -.99747689E+01 0.19181648E+02 -.49987748E+02 0.54468055E+02 0.75000000E+00 0.0000E+00 0.9000E+01
#aMCatNLO 2  0  0  5  2 0.67242878D+00 0.00000000D+00  -5  6  0 0.00000000D+00 0.00000000D+00 0.00000000D+00 0.00000000D+00 0.00000000D+00
  <mgrwgt>
 0.7403574655D-03    1    2    0
 0.697208671013549D+03 0.000000000000000D+00 0.000000000000000D+00 0.697208671013549D+03
 0.697208671013549D+03 -.000000000000000D+00 -.000000000000000D+00 -.697208671013549D+03
 0.699521775598591D+03 -.588654151209295D+03 0.165296130031661D+03 0.316020876204764D+03
 0.843385485811315D+02 0.717232616667334D+02 -.415332143710709D+02 -.156127068973917D+02
 0.610557017847376D+03 0.516930889542561D+03 -.123762915660591D+03 -.300408169307372D+03
 0.000000000000000D+00 0.000000000000000D+00 0.000000000000000D+00 -.000000000000000D+00
 0.697208671013549D+03 0.000000000000000D+00 0.000000000000000D+00 0.697208671013549D+03
 0.697208671013549D+03 -.000000000000000D+00 -.000000000000000D+00 -.697208671013549D+03
 0.681171737842871D+03 -.572836045205816D+03 0.161508979836495D+03 0.306828374145891D+03
 0.864489766297611D+02 0.736799125465683D+02 -.420016731587292D+02 -.167497910234825D+02
 0.586617501659026D+03 0.509144041389038D+03 -.138708546740480D+03 -.256227198852617D+03
 0.401791258954406D+02 -.998790872979003D+01 0.192012400627140D+02 -.338513842697913D+02
0.599468373179D-02 0.000000000000D+00 0.000000000000D+00 0.553658079312D-06 0.435803747580D-06  6 4 -3 25 2 -1 21 2 0.75954692D-01 0.15147614D+00 0.38583279D+06 0.38583279D+06 0.38583279D+06 0.10765584D+01  1  2  1  4  6  5       -1 0.740357465500D-03 0.100000000000D+01
  </mgrwgt>
  </event>
  <event>
  7     66 0.16549492E-05 0.32357514E+02 0.75467711E-02 0.89922847E-01
        2 -1    0    0  501    0 0.00000000E+00 0.00000000E+00 0.15390601E+04 0.15390601E+04 0.32000000E+00 0.0000E+00 0.9000E+01
       -1 -1    0    0    0  503 0.00000000E+00 0.00000000E+00 -.62777937E+03 0.62777945E+03 0.32000000E+00 0.0000E+00 0.9000E+01
       24  2    1    2    0    0 -.35310171E+03 -.61784859E+03 0.90614484E+03 0.11548865E+04 0.79036032E+02 0.0000E+00 0.0000E+00
       25  1    1    2    0    0 0.38336636E+03 0.66511569E+03 0.20499525E+03 0.80436105E+03 0.12500000E+03 0.0000E+00 0.9000E+01
        4  1    3    3  502    0 -.24642445E+03 -.37722789E+03 0.61503884E+03 0.76243103E+03 0.15500000E+01 0.0000E+00 0.9000E+01
       -3  1    3    3    0  502 -.10667727E+03 -.24062070E+03 0.29110600E+03 0.39245549E+03 0.50000000E+00 0.0000E+00 0.9000E+01
       21  1    1    2  501  503 -.30264653E+02 -.47267100E+02 -.19985935E+03 0.20759203E+03 0.75000000E+00 0.0000E+00 0.9000E+01
#aMCatNLO 2  0  0  2  1 0.27907837D+01 0.00000000D+00  -5  6  0 0.00000000D+00 0.00000000D+00 0.00000000D+00 0.00000000D+00 0.00000000D+00
  <mgrwgt>
 0.5383820808D-03    1    2    0
 0.806360437165235D+03 0.000000000000000D+00 0.000000000000000D+00 0.806360437165235D+03
 0.806360437165235D+03 0.000000000000000D+00 0.000000000000000D+00 -.806360437165235D+03
 0.809268040669469D+03 0.367938472169308D+03 0.641020528150053D+03 -.304965120689146D+03
 0.518094424931846D+03 -.255963080671589D+03 -.392096475621108D+03 0.221732019077254D+03
 0.285358408729156D+03 -.111975391497719D+03 -.248924052528945D+03 0.832331016118917D+02
 0.000000000000000D+00 -.000000000000000D+00 -.000000000000000D+00 -.000000000000000D+00
 0.808880278282673D+03 0.000000000000000D+00 0.000000000000000D+00 0.808880278282673D+03
 0.119447769657456D+04 0.000000000000000D+00 0.000000000000000D+00 -.119447769657456D+04
 0.835450404175154D+03 0.383366364916270D+03 0.665115691628432D+03 -.304965120689146D+03
 0.502112705017760D+03 -.246393268750354D+03 -.377150417434069D+03 0.221732019077254D+03
 0.276134119679202D+03 -.106708443508135D+03 -.240698173925652D+03 0.832331016118917D+02
 0.389660745985116D+03 -.302646526577805D+02 -.472671002687112D+02 -.385597418291887D+03
0.267234707595D-03 0.000000000000D+00 0.000000000000D+00 0.958314859262D-04 0.199291141722D-06  6 2 -1 25 4 -3 21 2 0.23677838D+00 0.96581408D-01 0.59885918D+06 0.59885918D+06 0.59885918D+06 0.10630164D+01  1  2  1  2  6  2       -1 0.538382080751D-03 0.100000000000D+01
  </mgrwgt>
  </event>
  <event>
  7     66 0.16549492E-05 0.53748566E+02 0.75467711E-02 0.91615472E-01
        2 -1    0    0  501    0 0.00000000E+00 0.00000000E+00 0.64249857E+03 0.64249865E+03 0.32000000E+00 0.0000E+00 0.9000E+01
       -1 -1    0    0    0  503 0.00000000E+00 0.00000000E+00 -.17837739E+04 0.17837739E+04 0.32000000E+00 0.0000E+00 0.9000E+01
       24  2    1    2    0    0 0.51138438E+03 -.26838858E+03 -.92542251E+02 0.59043968E+03 0.80675493E+02 0.0000E+00 0.0000E+00
       25  1    1    2    0    0 -.57402709E+03 0.30695389E+03 0.11246199E+03 0.67230982E+03 0.12500000E+03 0.0000E+00 0.9000E+01
        4  1    3    3  502    0 0.10709959E+03 -.36404214E+02 0.86792837E+01 0.11346066E+03 0.15500000E+01 0.0000E+00 0.9000E+01
       -3  1    3    3    0  502 0.40428479E+03 -.23198436E+03 -.10122153E+03 0.47697902E+03 0.50000000E+00 0.0000E+00 0.9000E+01
       21  1    1    2  501  503 0.62642703E+02 -.38565316E+02 -.11611951E+04 0.11635231E+04 0.75000000E+00 0.0000E+00 0.9000E+01
#aMCatNLO 2  0  0  2  1 0.27907837D+01 0.00000000D+00  -5  6  0 0.00000000D+00 0.00000000D+00 0.00000000D+00 0.00000000D+00 0.00000000D+00
  <mgrwgt>
 0.1442569706D-03    1    2    0
 0.630223792725736D+03 0.000000000000000D+00 0.000000000000000D+00 0.630223792725736D+03
 0.630223792725736D+03 0.000000000000000D+00 0.000000000000000D+00 -.630223792725736D+03
 0.633840152862150D+03 -.541639626721388D+03 0.287014897320705D+03 0.101869047612191D+03
 0.119784780323099D+03 0.112738158599586D+03 -.398806472590230D+02 0.693074071288263D+01
 0.506822652266222D+03 0.428901468121802D+03 -.247134250061682D+03 -.108799788325073D+03
 0.000000000000000D+00 0.000000000000000D+00 -.000000000000000D+00 -.000000000000000D+00
 0.632441851992032D+03 0.000000000000000D+00 0.000000000000000D+00 0.632441851992032D+03
 0.181213795486954D+04 0.000000000000000D+00 0.000000000000000D+00 -.181213795486954D+04
 0.670619187207059D+03 -.574027088134675D+03 0.306953894708094D+03 0.101869047612191D+03
 0.113165449501868D+03 0.106954408698058D+03 -.363199429264333D+02 0.693074071288263D+01
 0.478807739149429D+03 0.404429976148703D+03 -.232068635369296D+03 -.108799788325073D+03
 0.118198743100322D+04 0.626427032879149D+02 -.385653164123644D+02 -.117969610287751D+04
0.604422282662D-03 0.000000000000D+00 0.000000000000D+00 0.215763008285D-03 0.391515873314D-06  6 2 -1 25 4 -3 21 2 0.98845923D-01 0.27442671D+00 0.43272367D+06 0.43272367D+06 0.43272367D+06 0.10729744D+01  1  2  1  2  6  2       -1 0.144256970623D-03 0.100000000000D+01
  </mgrwgt>
  </event>
  <event>
  7     66 0.16549492E-05 0.63348424E+02 0.75467711E-02 0.90210075E-01
        2 -1    0    0  501    0 0.00000000E+00 0.00000000E+00 0.87498922E+03 0.87498928E+03 0.32000000E+00 0.0000E+00 0.9000E+01
       -1 -1    0    0    0  503 0.00000000E+00 0.00000000E+00 -.97281432E+03 0.97281438E+03 0.32000000E+00 0.0000E+00 0.9000E+01
       24  2    1    2    0    0 -.10680433E+03 -.72968481E+03 -.45275389E+02 0.74320747E+03 0.80376608E+02 0.0000E+00 0.0000E+00
       25  1    1    2    0    0 0.12621490E+03 0.72370749E+03 0.26161215E+03 0.78977760E+03 0.12500000E+03 0.0000E+00 0.9000E+01
        4  1    3    3  502    0 -.85073077E+02 -.39366632E+03 0.47884542E+01 0.40278522E+03 0.15500000E+01 0.0000E+00 0.9000E+01
       -3  1    3    3    0  502 -.21731254E+02 -.33601849E+03 -.50063843E+02 0.34042225E+03 0.50000000E+00 0.0000E+00 0.9000E+01
       21  1    1    2  501  503 -.19410572E+02 0.59773162E+01 -.31416187E+03 0.31481858E+03 0.75000000E+00 0.0000E+00 0.9000E+01
#aMCatNLO 2  0  0  2  1 0.27907837D+01 0.00000000D+00  -5  6  0 0.00000000D+00 0.00000000D+00 0.00000000D+00 0.00000000D+00 0.00000000D+00
  <mgrwgt>
 0.1374405155D-02    1    2    0
 0.758753771036175D+03 0.000000000000000D+00 0.000000000000000D+00 0.758753771036175D+03
 0.758753771036175D+03 0.000000000000000D+00 0.000000000000000D+00 -.758753771036175D+03
 0.761773393888204D+03 0.116479770244551D+03 0.726705343296643D+03 0.151675676309150D+03
 0.405633774922637D+03 -.902592736497557D+02 -.391958036358335D+03 -.525444631938016D+02
 0.350100373261509D+03 -.262204965947948D+02 -.334747306938307D+03 -.991312131153484D+02
 0.000000000000000D+00 -.000000000000000D+00 0.000000000000000D+00 -.000000000000000D+00
 0.759106207447351D+03 0.000000000000000D+00 0.000000000000000D+00 0.759106207447351D+03
 0.112132040628575D+04 0.000000000000000D+00 0.000000000000000D+00 -.112132040628575D+04
 0.760469098448349D+03 0.126214903135128D+03 0.723707494183663D+03 0.151675676309150D+03
 0.406059473936582D+03 -.850682862191660D+02 -.393556555581359D+03 -.525444631938016D+02
 0.351114876808500D+03 -.217360444272216D+02 -.336128254800434D+03 -.991312131153484D+02
 0.362783164539666D+03 -.194105724887399D+02 0.597731619812953D+01 -.362214198838396D+03
0.820814499238D-03 0.000000000000D+00 0.000000000000D+00 0.320368954790D-03 0.505630235694D-05  6 2 -1 25 4 -3 21 2 0.13461367D+00 0.14966367D+00 0.56623787D+06 0.56623787D+06 0.56623787D+06 0.10647127D+01  1  2  1  2  6  2       -1 0.137440515509D-02 0.100000000000D+01
  </mgrwgt>
  </event>
  <event>
  7     66 0.16549492E-05 0.24063616E+02 0.75467711E-02 0.93304498E-01
        2 -1    0    0  503    0 0.00000000E+00 0.00000000E+00 0.14899043E+04 0.14899044E+04 0.32000000E+00 0.0000E+00 0.9000E+01
       -1 -1    0    0    0  501 0.00000000E+00 0.00000000E+00 -.23051780E+03 0.23051802E+03 0.32000000E+00 0.0000E+00 0.9000E+01
       24  2    1    2    0    0 -.48794373E+03 -.24538524E+03 0.76189435E+03 0.94021310E+03 0.72212736E+02 0.0000E+00 0.0000E+00
       25  1    1    2    0    0 0.49403801E+03 0.23103526E+03 0.41598902E+03 0.69722501E+03 0.12500000E+03 0.0000E+00 0.9000E+01
        4  1    3    3  502    0 -.40042023E+03 -.22899265E+03 0.62187254E+03 0.77427505E+03 0.15500000E+01 0.0000E+00 0.9000E+01
       -3  1    3    3    0  502 -.87523508E+02 -.16392587E+02 0.14002181E+03 0.16593806E+03 0.50000000E+00 0.0000E+00 0.9000E+01
       21  1    1    2  503  501 -.60942799E+01 0.14349980E+02 0.81503168E+02 0.82984282E+02 0.75000000E+00 0.0000E+00 0.9000E+01
#aMCatNLO 2  0  0  1  4 0.11442520D+03 0.00000000D+00  -5  6  0 0.00000000D+00 0.00000000D+00 0.00000000D+00 0.00000000D+00 0.00000000D+00
  <mgrwgt>
 0.2112022843D-03    1    2    0
 0.568671980396468D+03 0.000000000000000D+00 0.000000000000000D+00 0.568671980396468D+03
 0.568671980396468D+03 0.000000000000000D+00 0.000000000000000D+00 -.568671980396468D+03
 0.573248573451481D+03 0.490967357757342D+03 0.238265622721200D+03 -.123164416980761D+03
 0.469923515432677D+03 -.402918863794080D+03 -.223062877343437D+03 0.934208344362231D+02
 0.941718719087784D+02 -.880484939632618D+02 -.152027453777635D+02 0.297435825445374D+02
 0.000000000000000D+00 -.000000000000000D+00 0.000000000000000D+00 0.000000000000000D+00
 0.601949430363884D+03 0.000000000000000D+00 0.000000000000000D+00 0.601949430363884D+03
 0.570554369346208D+03 0.000000000000000D+00 0.000000000000000D+00 -.570554369346208D+03
 0.572926979742150D+03 0.494038014814388D+03 0.231035257968365D+03 -.123164416980761D+03
 0.470623091694431D+03 -.400399096147135D+03 -.228996082791435D+03 0.934208344362231D+02
 0.939007395074762D+02 -.875446387816769D+02 -.163891548913575D+02 0.297435825445374D+02
 0.350529887660355D+02 -.609427988557637D+01 0.143499797144268D+02 0.313950610176761D+02
0.135124393017D-04 0.000000000000D+00 0.000000000000D+00 0.223081306733D-05 0.574722328074D-07  6 2 -1 25 4 -3 21 2 0.22921446D+00 0.35464048D-01 0.31665687D+06 0.31665687D+06 0.31665687D+06 0.10828199D+01  1  2  1  1  6  1        2 0.211202284343D-03 0.100000000000D+01
  </mgrwgt>
  </event>
  <event>
  7     66 0.16549492E-05 0.56062855E+02 0.75467711E-02 0.94811413E-01
        2 -1    0    0  501    0 0.00000000E+00 0.00000000E+00 0.16074292E+04 0.16074292E+04 0.32000000E+00 0.0000E+00 0.9000E+01
       -1 -1    0    0    0  503 0.00000000E+00 0.00000000E+00 -.17672016E+03 0.17672045E+03 0.32000000E+00 0.0000E+00 0.9000E+01
       24  2    1    2    0    0 0.68303027E+01 0.46935486E+03 0.10209309E+04 0.11266325E+04 0.81610364E+02 0.0000E+00 0.0000E+00
       25  1    1    2    0    0 -.33060572E+02 -.46620942E+03 0.40436491E+03 0.63053961E+03 0.12500000E+03 0.0000E+00 0.9000E+01
        4  1    3    3  502    0 0.33705318E+02 0.19530098E+03 0.48934002E+03 0.52795320E+03 0.15500000E+01 0.0000E+00 0.9000E+01
       -3  1    3    3    0  502 -.26875015E+02 0.27405388E+03 0.53159093E+03 0.59867935E+03 0.50000000E+00 0.0000E+00 0.9000E+01
       21  1    1    2  501  503 0.26230269E+02 -.31454420E+01 0.54131565E+01 0.26977501E+02 0.75000000E+00 0.0000E+00 0.9000E+01
#aMCatNLO 2  0  0  2  1 0.27907837D+01 0.00000000D+00  -5  6  0 0.00000000D+00 0.00000000D+00 0.00000000D+00 0.00000000D+00 0.00000000D+00
  <mgrwgt>
 0.1665903249D-02    1    2    0
 0.513684677127629D+03 0.000000000000000D+00 0.000000000000000D+00 0.513684677127629D+03
 0.513684677127629D+03 0.000000000000000D+00 0.000000000000000D+00 -.513684677127629D+03
 0.518047640032661D+03 -.198458572996490D+02 -.467794080782243D+03 -.183093411341171D+03
 0.224284639029755D+03 0.394373529265481D+02 0.194523368462547D+03 0.104445936353880D+03
 0.285037075192842D+03 -.195914956268991D+02 0.273270712319696D+03 0.786474749872914D+02
 0.000000000000000D+00 0.000000000000000D+00 -.000000000000000D+00 -.000000000000000D+00
 0.519080795816346D+03 0.000000000000000D+00 0.000000000000000D+00 0.519080795816346D+03
 0.547239420815724D+03 0.000000000000000D+00 0.000000000000000D+00 -.547239420815724D+03
 0.517293360250712D+03 -.330605716016732D+02 -.466209418489477D+03 -.183093411341171D+03
 0.223947446223566D+03 0.337162823362769D+02 0.195209419226222D+03 0.104445936353880D+03
 0.286468155671154D+03 -.268859796142163D+02 0.274145441311614D+03 0.786474749872914D+02
 0.386112544866381D+02 0.262302688796126D+02 -.314544204835860D+01 -.281586249993776D+02
0.768074750135D-04 0.000000000000D+00 0.000000000000D+00 0.126982777389D-03 0.115807403626D-05  6 2 -1 25 4 -3 21 2 0.24729510D+00 0.27187553D-01 0.24195853D+06 0.24195853D+06 0.24195853D+06 0.10915289D+01  1  2  1  2  6  2       -1 0.166590324900D-02 0.100000000000D+01
  </mgrwgt>
  </event>
  <event>
  7     66 0.16549492E-05 0.45988676E+02 0.75467711E-02 0.92799051E-01
        2 -1    0    0  503    0 0.00000000E+00 0.00000000E+00 0.99806688E+03 0.99806693E+03 0.32000000E+00 0.0000E+00 0.9000E+01
       -1 -1    0    0    0  501 0.00000000E+00 0.00000000E+00 -.55504908E+03 0.55504918E+03 0.32000000E+00 0.0000E+00 0.9000E+01
       24  2    1    2    0    0 -.41194201E+03 -.39442018E+03 -.25028364E+03 0.62804867E+03 0.80868611E+02 0.0000E+00 0.0000E+00
       25  1    1    2    0    0 0.37906068E+03 0.40927696E+03 0.67513933E+03 0.88466533E+03 0.12500000E+03 0.0000E+00 0.9000E+01
        4  1    3    3  502    0 -.15140695E+03 -.16079200E+03 -.56259722E+02 0.22791598E+03 0.15500000E+01 0.0000E+00 0.9000E+01
       -3  1    3    3    0  502 -.26053506E+03 -.23362818E+03 -.19402392E+03 0.40013269E+03 0.50000000E+00 0.0000E+00 0.9000E+01
       21  1    1    2  503  501 0.32881328E+02 -.14856785E+02 0.18162102E+02 0.40402107E+02 0.75000000E+00 0.0000E+00 0.9000E+01
#aMCatNLO 2  0  0  1  2 0.27564050D+02 0.00000000D+00  -5  6  0 0.00000000D+00 0.00000000D+00 0.00000000D+00 0.00000000D+00 0.00000000D+00
  <mgrwgt>
 0.2572126904D-02    1    2    0
 0.725689220574691D+03 0.000000000000000D+00 0.000000000000000D+00 0.725689220574691D+03
 0.725689220574691D+03 0.000000000000000D+00 0.000000000000000D+00 -.725689220574691D+03
 0.728819096141310D+03 0.395517358295943D+03 0.401841336328793D+03 0.444569268623376D+03
 0.252068963105031D+03 -.145587883703771D+03 -.163300870338837D+03 -.125202859496423D+03
 0.470490381903041D+03 -.249929474592172D+03 -.238540465989957D+03 -.319366409126953D+03
 0.000000000000000D+00 0.000000000000000D+00 -.000000000000000D+00 0.000000000000000D+00
 0.747850763838062D+03 0.000000000000000D+00 0.000000000000000D+00 0.747850763838062D+03
 0.740750091265772D+03 0.000000000000000D+00 0.000000000000000D+00 -.740750091265772D+03
 0.724197120434280D+03 0.379060684490779D+03 0.409276962599120D+03 0.444569268623376D+03
 0.253773573082386D+03 -.151316990867098D+03 -.160712285292217D+03 -.125202859496423D+03
 0.473856185017740D+03 -.260625021712402D+03 -.233707892160989D+03 -.319366409126953D+03
 0.367739765694277D+02 0.328813280887209D+02 -.148567851459136D+02 0.710067257229020D+01
0.447944841139D-03 0.000000000000D+00 0.000000000000D+00 0.185729065896D-03 0.887891353506D-06  6 2 -1 25 4 -3 21 2 0.15354797D+00 0.85391739D-01 0.34725405D+06 0.34725405D+06 0.34725405D+06 0.10798830D+01  1  2  1  1  6  1        2 0.257212690383D-02 0.100000000000D+01
  </mgrwgt>
  </event>
  <event>
  7     66 0.16549492E-05 0.39993310E+02 0.75467711E-02 0.94798338E-01
        2 -1    0    0  501    0 0.00000000E+00 0.00000000E+00 0.18184921E+04 0.18184922E+04 0.32000000E+00 0.0000E+00 0.9000E+01
       21 -1    0    0  503  501 0.00000000E+00 0.00000000E+00 -.38392713E+03 0.38392787E+03 0.75000000E+00 0.0000E+00 0.9000E+01
       24  2    1    2    0    0 0.26327867E+03 -.33617772E+03 0.32117625E+02 0.43568258E+03 0.80353272E+02 0.0000E+00 0.0000E+00
       25  1    1    2    0    0 -.22760259E+03 0.40029382E+03 0.15392463E+04 0.16115031E+04 0.12500000E+03 0.0000E+00 0.9000E+01
        4  1    3    3  502    0 0.17018835E+03 -.15268650E+03 0.12360613E+02 0.22898128E+03 0.15500000E+01 0.0000E+00 0.9000E+01
        1  1    1    2  503    0 -.35676085E+02 -.64116107E+02 -.13679892E+03 0.15523435E+03 0.32000000E+00 0.0000E+00 0.9000E+01
       -3  1    3    3    0  502 0.93090329E+02 -.18349122E+03 0.19757012E+02 0.20670129E+03 0.50000000E+00 0.0000E+00 0.9000E+01
#aMCatNLO 2  0  0  2  1 0.60728210D+02 0.00000000D+00  -5  6  0 0.00000000D+00 0.00000000D+00 0.00000000D+00 0.00000000D+00 0.00000000D+00
  <mgrwgt>
 0.1178839452D-02    1    2    0
 0.655057432242470D+03 0.000000000000000D+00 0.000000000000000D+00 0.655057432242470D+03
 0.655057432242470D+03 0.000000000000000D+00 0.000000000000000D+00 -.655057432242470D+03
 0.658556496290299D+03 -.245689772067176D+03 0.367788021608520D+03 0.471635628286313D+03
 0.345718260754870D+03 0.160799188416417D+03 -.169447624552592D+03 -.254857292141068D+03
 0.000000000000000D+00 -.000000000000000D+00 -.000000000000000D+00 -.000000000000000D+00
 0.305840107439771D+03 0.848905836507590D+02 -.198340397055928D+03 -.216778336145245D+03
 0.659426443711581D+03 0.000000000000000D+00 0.000000000000000D+00 0.659426443711581D+03
 0.105875216456707D+04 0.000000000000000D+00 0.000000000000000D+00 -.105875216456707D+04
 0.670897346645562D+03 -.227602589262720D+03 0.400293823619521D+03 0.471635628286313D+03
 0.342346142517986D+03 0.170160285613858D+03 -.152624110609292D+03 -.254857292141068D+03
 0.406010701220551D+03 -.356760846613028D+02 -.641161068069890D+02 -.399325720855492D+03
 0.298924417894553D+03 0.931183883101643D+02 -.183553606203240D+03 -.216778336145245D+03
0.324940275058D-04 0.000000000000D+00 0.000000000000D+00 0.128616139178D-03 0.943893117812D-08  6 2 21 25 4 1 -3 2 0.27976805D+00 0.59065766D-01 0.24251498D+06 0.24251498D+06 0.24251498D+06 0.10914536D+01  1  2  1  6  5  2       -1 0.117883945206D-02 0.100000000000D+01
  </mgrwgt>
  </event>
  <event>
  7     66 0.16549492E-05 0.23860261E+03 0.75467711E-02 0.92487864E-01
        2 -1    0    0  503    0 0.00000000E+00 0.00000000E+00 0.11285159E+04 0.11285160E+04 0.32000000E+00 0.0000E+00 0.9000E+01
       -1 -1    0    0    0  501 0.00000000E+00 0.00000000E+00 -.37381683E+03 0.37381696E+03 0.32000000E+00 0.0000E+00 0.9000E+01
       24  2    1    2    0    0 0.44265357E+03 0.56517241E+02 0.54692417E+02 0.45678708E+03 0.80788568E+02 0.0000E+00 0.0000E+00
       25  1    1    2    0    0 -.45179490E+03 0.19590882E+03 0.36313328E+03 0.62449154E+03 0.12500000E+03 0.0000E+00 0.9000E+01
        4  1    3    3  502    0 0.40346004E+03 0.29453268E+02 0.38012480E+02 0.40631866E+03 0.15500000E+01 0.0000E+00 0.9000E+01
       -3  1    3    3    0  502 0.39193532E+02 0.27063973E+02 0.16679936E+02 0.50468424E+02 0.50000000E+00 0.0000E+00 0.9000E+01
       21  1    1    2  503  501 0.91413300E+01 -.25242606E+03 0.33687339E+03 0.42105430E+03 0.75000000E+00 0.0000E+00 0.9000E+01
#aMCatNLO 2  0  0  1  2 0.27564050D+02 0.00000000D+00  -5  6  0 0.00000000D+00 0.00000000D+00 0.00000000D+00 0.00000000D+00 0.00000000D+00
  <mgrwgt>
 0.9511879170D-04    1    2    0
 0.482385390289975D+03 0.000000000000000D+00 0.000000000000000D+00 0.482385390289975D+03
 0.482385390289975D+03 0.000000000000000D+00 0.000000000000000D+00 -.482385390289975D+03
 0.487100607449646D+03 -.447079730162182D+03 0.657053548120861D+02 0.132077715777274D+03
 0.435041593697700D+03 0.407466236963508D+03 -.811529724948640D+02 -.129021893634687D+03
 0.426285794326037D+02 0.396134931986742D+02 0.154476176827778D+02 -.305582214258750D+01
 0.000000000000000D+00 0.000000000000000D+00 -.000000000000000D+00 0.000000000000000D+00
 0.750752049925466D+03 0.000000000000000D+00 0.000000000000000D+00 0.750752049925466D+03
 0.561913541973457D+03 0.000000000000000D+00 0.000000000000000D+00 -.561913541973457D+03
 0.524946115188602D+03 -.451794904328951D+03 0.195908818762853D+03 0.132077715777274D+03
 0.424610953961781D+03 0.403461074558995D+03 0.294444307629444D+02 -.129021893634687D+03
 0.477318250237629D+02 0.391924997452487D+02 0.270728098809612D+02 -.305582214258750D+01
 0.315376697724777D+03 0.914133002470719D+01 -.252426059406758D+03 0.188838507952008D+03
0.915667335596D-05 0.000000000000D+00 0.000000000000D+00 0.623962850469D-04 0.717117355825D-08  6 2 -1 25 4 -3 21 2 0.17361772D+00 0.57510252D-01 0.36773215D+06 0.36773215D+06 0.36773215D+06 0.10780709D+01  1  2  1  1  6  1        2 0.951187917045D-04 0.100000000000D+01
  </mgrwgt>
  </event>
  <event>
  7     66 0.16549492E-05 0.36068286E+02 0.75467711E-02 0.90054335E-01
        2 -1    0    0  501    0 0.00000000E+00 0.00000000E+00 0.24895246E+04 0.24895246E+04 0.32000000E+00 0.0000E+00 0.9000E+01
       -1 -1    0    0    0  503 0.00000000E+00 0.00000000E+00 -.33949828E+03 0.33949843E+03 0.32000000E+00 0.0000E+00 0.9000E+01
       24  2    1    2    0    0 -.74836055E+03 -.98182642E+02 0.18541959E+04 0.20034835E+04 0.78869927E+02 0.0000E+00 0.0000E+00
       25  1    1    2    0    0 0.67849057E+03 0.10926486E+03 0.28289253E+03 0.75361890E+03 0.12500000E+03 0.0000E+00 0.9000E+01
        4  1    3    3  502    0 -.41720814E+03 -.15989657E+02 0.10411149E+04 0.11217134E+04 0.15500000E+01 0.0000E+00 0.9000E+01
       -3  1    3    3    0  502 -.33115241E+03 -.82192985E+02 0.81308100E+03 0.88177013E+03 0.50000000E+00 0.0000E+00 0.9000E+01
       21  1    1    2  501  503 0.69869977E+02 -.11082216E+02 0.12937941E+02 0.71920665E+02 0.75000000E+00 0.0000E+00 0.9000E+01
#aMCatNLO 2  0  0  2  1 0.60728210D+02 0.00000000D+00  -5  6  0 0.00000000D+00 0.00000000D+00 0.00000000D+00 0.00000000D+00 0.00000000D+00
  <mgrwgt>
 0.1287272422D-02    1    2    0
 0.870267519339215D+03 0.000000000000000D+00 0.000000000000000D+00 0.870267519339215D+03
 0.870267519339215D+03 0.000000000000000D+00 0.000000000000000D+00 -.870267519339215D+03
 0.872969141096428D+03 0.712973050681714D+03 0.103795523747993D+03 -.476808178996674D+03
 0.481762978820155D+03 -.397439982811959D+03 -.190763729396303D+02 0.271612075982579D+03
 0.385802918761847D+03 -.315533067869755D+03 -.847191508083631D+02 0.205196103014095D+03
 0.000000000000000D+00 0.000000000000000D+00 -.000000000000000D+00 -.000000000000000D+00
 0.886086351233651D+03 0.000000000000000D+00 0.000000000000000D+00 0.886086351233651D+03
 0.953842545587817D+03 0.000000000000000D+00 0.000000000000000D+00 -.953842545587817D+03
 0.845730044124788D+03 0.678490573803740D+03 0.109264858196325D+03 -.476808178996674D+03
 0.497993645576270D+03 -.417096962600684D+03 -.159585401607062D+02 0.271612075982579D+03
 0.398248425478625D+03 -.331263588126816D+03 -.822241016088352D+02 0.205196103014095D+03
 0.979567816417847D+02 0.698699769237599D+02 -.110822164267838D+02 -.677561943541656D+02
0.632535089704D-03 0.000000000000D+00 0.000000000000D+00 0.643895690750D-04 0.776681099940D-07  6 2 -1 25 4 -3 21 2 0.38300319D+00 0.52230434D-01 0.58367238D+06 0.58367238D+06 0.58367238D+06 0.10637933D+01  1  2  1  2  6  2       -1 0.128727242235D-02 0.100000000000D+01
  </mgrwgt>
  </event>
  <event>
  7     66 0.16549492E-05 0.47346292E+02 0.75467711E-02 0.94431159E-01
        2 -1    0    0  501    0 0.00000000E+00 0.00000000E+00 0.25616451E+04 0.25616451E+04 0.32000000E+00 0.0000E+00 0.9000E+01
       -1 -1    0    0    0  503 0.00000000E+00 0.00000000E+00 -.14900334E+03 0.14900368E+03 0.32000000E+00 0.0000E+00 0.9000E+01
       24  2    1    2    0    0 0.43299427E+03 0.75315463E+02 0.16003749E+04 0.16616879E+04 0.82767941E+02 0.0000E+00 0.0000E+00
       25  1    1    2    0    0 -.45773709E+03 -.15040774E+03 0.83010398E+03 0.96790669E+03 0.12500000E+03 0.0000E+00 0.9000E+01
        4  1    3    3  502    0 0.26967358E+03 0.61527600E+02 0.11375862E+04 0.11707324E+04 0.15500000E+01 0.0000E+00 0.9000E+01
       -3  1    3    3    0  502 0.16332069E+03 0.13787863E+02 0.46278865E+03 0.49095554E+03 0.50000000E+00 0.0000E+00 0.9000E+01
       21  1    1    2  501  503 0.24742826E+02 0.75092272E+02 -.17837106E+02 0.81054190E+02 0.75000000E+00 0.0000E+00 0.9000E+01
#aMCatNLO 2  0  0  2  1 0.60728210D+02 0.00000000D+00  -5  6  0 0.00000000D+00 0.00000000D+00 0.00000000D+00 0.00000000D+00 0.00000000D+00
  <mgrwgt>
 0.6409674905D-03    1    2    0
 0.500322206916982D+03 0.000000000000000D+00 0.000000000000000D+00 0.500322206916982D+03
 0.500322206916982D+03 0.000000000000000D+00 0.000000000000000D+00 -.500322206916982D+03
 0.504706615979511D+03 -.445017861886555D+03 -.111805997707415D+03 -.169003815613903D+03
 0.324707538467269D+03 0.277491329847698D+03 0.853951956057793D+02 0.145400164938970D+03
 0.171230259387183D+03 0.167526532038856D+03 0.264108021016354D+02 0.236036506749330D+02
 0.000000000000000D+00 0.000000000000000D+00 0.000000000000000D+00 -.000000000000000D+00
 0.508151154075677D+03 0.000000000000000D+00 0.000000000000000D+00 0.508151154075677D+03
 0.751141356811333D+03 0.000000000000000D+00 0.000000000000000D+00 -.751141356811333D+03
 0.525673876355576D+03 -.457737094446099D+03 -.150407735700936D+03 -.169003815613903D+03
 0.312449649740637D+03 0.269626128095445D+03 0.615250087933799D+02 0.145400164938970D+03
 0.165639543417722D+03 0.163368140652337D+03 0.137904546061829D+02 0.236036506749330D+02
 0.255529441373076D+03 0.247428256983163D+02 0.750922723013737D+02 -.242990202735656D+03
0.759281503082D-04 0.000000000000D+00 0.000000000000D+00 0.506796976165D-04 0.558058526567D-07  6 2 -1 25 4 -3 21 2 0.39409885D+00 0.22923594D-01 0.25874271D+06 0.25874271D+06 0.25874271D+06 0.10893378D+01  1  2  1  2  6  2       -1 0.640967490534D-03 0.100000000000D+01
  </mgrwgt>
  </event>
  <event>
  7     66 0.16549492E-05 0.58048966E+02 0.75467711E-02 0.95493841E-01
        2 -1    0    0  501    0 0.00000000E+00 0.00000000E+00 0.51161259E+03 0.51161269E+03 0.32000000E+00 0.0000E+00 0.9000E+01
       -1 -1    0    0    0  503 0.00000000E+00 0.00000000E+00 -.87220197E+03 0.87220203E+03 0.32000000E+00 0.0000E+00 0.9000E+01
       24  2    1    2    0    0 0.41596089E+03 0.14331764E+03 0.31454469E+03 0.54663284E+03 0.79408404E+02 0.0000E+00 0.0000E+00
       25  1    1    2    0    0 -.42924323E+03 -.14700684E+03 -.60916770E+03 0.76978637E+03 0.12500000E+03 0.0000E+00 0.9000E+01
        4  1    3    3  502    0 0.15898105E+03 0.79554381E+02 0.16497513E+03 0.24253468E+03 0.15500000E+01 0.0000E+00 0.9000E+01
       -3  1    3    3    0  502 0.25697984E+03 0.63763261E+02 0.14956956E+03 0.30409816E+03 0.50000000E+00 0.0000E+00 0.9000E+01
       21  1    1    2  501  503 0.13282342E+02 0.36892026E+01 -.65966368E+02 0.67395512E+02 0.75000000E+00 0.0000E+00 0.9000E+01
#aMCatNLO 2  0  0  2  1 0.60728210D+02 0.00000000D+00  -5  6  0 0.00000000D+00 0.00000000D+00 0.00000000D+00 0.00000000D+00 0.00000000D+00
  <mgrwgt>
 0.4638757119D-02    1    2    0
 0.641476182951577D+03 0.000000000000000D+00 0.000000000000000D+00 0.641476182951577D+03
 0.641476182951577D+03 0.000000000000000D+00 0.000000000000000D+00 -.641476182951577D+03
 0.645108159368271D+03 -.422539652820123D+03 -.145144909555682D+03 -.448255211133391D+03
 0.288500045749019D+03 0.161866360223826D+03 0.803600886533906D+02 0.224886224515189D+03
 0.349344160785863D+03 0.260673292596297D+03 0.647848209022917D+02 0.223368986618202D+03
 0.000000000000000D+00 0.000000000000000D+00 0.000000000000000D+00 -.000000000000000D+00
 0.642407869068478D+03 0.000000000000000D+00 0.000000000000000D+00 0.642407869068478D+03
 0.694614786147224D+03 0.000000000000000D+00 0.000000000000000D+00 -.694614786147224D+03
 0.649937302371983D+03 -.429243229924355D+03 -.147006844297936D+03 -.448255211133391D+03
 0.286609824903846D+03 0.158889404220949D+03 0.795332319287297D+02 0.224886224515189D+03
 0.346479296458245D+03 0.257071483752999D+03 0.637844097910271D+02 0.223368986618202D+03
 0.539962314816275D+02 0.132823419504066D+02 0.368920257817907D+01 -.522069170787466D+02
0.957982075488D-03 0.000000000000D+00 0.000000000000D+00 0.935080061592D-04 0.316394487144D-05  6 2 -1 25 4 -3 21 2 0.78709323D-01 0.13418439D+00 0.21481262D+06 0.21481262D+06 0.21481262D+06 0.10954501D+01  1  2  1  2  6  2       -1 0.463875711879D-02 0.100000000000D+01
  </mgrwgt>
  </event>
  <event>
  5     66 0.16549492E-05 0.41997725E+02 0.75467711E-02 0.90095726E-01
        2 -1    0    0  501    0 0.00000000E+00 0.00000000E+00 0.12913442E+04 0.12913443E+04 0.32000000E+00 0.0000E+00 0.9000E+01
       -1 -1    0    0    0  501 0.00000000E+00 0.00000000E+00 -.47122149E+03 0.47122160E+03 0.32000000E+00 0.0000E+00 0.9000E+01
       25  1    1    2    0    0 0.15223193E+02 -.68336758E+03 0.19804635E+02 0.69515481E+03 0.12500000E+03 0.0000E+00 0.9000E+01
        4  1    1    2  502    0 -.18303715E+01 0.64356078E+03 0.79823617E+03 0.10253571E+04 0.15500000E+01 0.0000E+00 0.9000E+01
       -3  1    1    2    0  502 -.13392822E+02 0.39806801E+02 0.20819230E+01 0.42053935E+02 0.50000000E+00 0.0000E+00 0.9000E+01
#aMCatNLO 1  0  0  1  4 0.13727962D+03 0.00000000D+00  -5  6  0 0.00000000D+00 0.00000000D+00 0.00000000D+00 0.00000000D+00 0.00000000D+00
  <mgrwgt>
 0.2017957020D-03    7    2    0
 0.780070049380426D+03 0.000000000000000D+00 0.000000000000000D+00 0.780070049380426D+03
 0.780070049380426D+03 0.000000000000000D+00 0.000000000000000D+00 -.780070049380426D+03
 0.774939604950222D+03 0.152231991363542D+02 -.683367832401816D+03 -.343049633678430D+03
 0.738787119656478D+03 -.182954799567640D+01 0.643563071666800D+03 0.362807984629942D+03
 0.464133741541514D+02 -.133936511406778D+02 0.398047607350167D+02 -.197583509515127D+02
 0.000000000000000D+00 -.000000000000000D+00 0.000000000000000D+00 0.000000000000000D+00
 0.109490168493390D+04 0.000000000000000D+00 0.000000000000000D+00 0.109490168493390D+04
 0.798193647890044D+03 0.000000000000000D+00 0.000000000000000D+00 -.798193647890044D+03
 0.831098825505209D+03 0.495803610368661D+02 -.744955699614874D+03 -.343049633678430D+03
 0.692109557735016D+03 0.287808956125148D+02 0.588691486472040D+03 0.362807984629942D+03
 0.429598135904547D+02 -.114817360689846D+02 0.363775052504380D+02 -.197583509515127D+02
 0.326927135993264D+03 -.668795205803963D+02 0.119886707892396D+03 0.296708037043855D+03
0.182957512073D-04 0.000000000000D+00 0.000000000000D+00 0.597158731415D-08 0.000000000000D+00  6 2 -1 25 4 -3 21 0 0.19866835D+00 0.72495626D-01 0.47640109D+06 0.47640109D+06 0.47640109D+06 0.10699975D+01  1  2  2  1  6  1        2 0.831212443393D-04 0.100000000000D+01
0.428626761095D-05 0.000000000000D+00 -.702605020179D-07 0.597158731415D-08 0.000000000000D+00  6 2 -1 25 4 -3 21 2 0.19866835D+00 0.72495626D-01 0.47640109D+06 0.47640109D+06 0.47640109D+06 0.10699975D+01  1  2  3  1  6  1        2 0.222949565798D-04 0.100000000000D+01
-.538952106452D-05 0.000000000000D+00 0.000000000000D+00 0.597158731415D-08 0.000000000000D+00  6 2 -1 25 4 -3 21 2 0.19866835D+00 0.72495626D-01 0.47640109D+06 0.47640109D+06 0.47640109D+06 0.10699975D+01  1  2 15  1  6  1        2 -.280335128428D-04 0.100000000000D+01
-.230677240131D-04 0.000000000000D+00 0.000000000000D+00 0.597158731415D-08 0.000000000000D+00  6 2 -1 25 4 -3 21 2 0.19866835D+00 0.72495626D-01 0.47640109D+06 0.47640109D+06 0.47640109D+06 0.10699975D+01  1  2  4  1  6  1        2 -.119986419876D-03 0.100000000000D+01
-.988867152188D-04 0.000000000000D+00 -.108240886609D-04 0.597158731415D-08 0.000000000000D+00  6 2 -1 25 4 -3 21 2 0.28099414D+00 0.72495626D-01 0.47640109D+06 0.47640109D+06 0.47640109D+06 0.10699975D+01  1  2  5  1  6  1        2 -.259539179482D-03 0.100000000000D+01
0.973493772243D-04 0.000000000000D+00 0.102046290218D-04 0.597158731415D-08 0.000000000000D+00  6 2 -1 25 4 -3 21 2 0.19866835D+00 0.72495626D-01 0.47640109D+06 0.47640109D+06 0.47640109D+06 0.10699975D+01  1  2  6  1  6  1        2 0.506361323016D-03 0.100000000000D+01
-.394075799136D-05 0.000000000000D+00 -.464399161654D-06 0.597158731415D-08 0.000000000000D+00  6 21 -1 25 4 -3 -2 2 0.28099414D+00 0.72495626D-01 0.47640109D+06 0.47640109D+06 0.47640109D+06 0.10699975D+01  1  2  5  5  6  1        2 -.242270968745D-05 0.100000000000D+01
  </mgrwgt>
  </event>
  <event>
  7     66 0.16549492E-05 0.52282776E+02 0.75467711E-02 0.93775493E-01
        2 -1    0    0  503    0 0.00000000E+00 0.00000000E+00 0.18657381E+04 0.18657382E+04 0.32000000E+00 0.0000E+00 0.9000E+01
       -1 -1    0    0    0  501 0.00000000E+00 0.00000000E+00 -.22635537E+03 0.22635560E+03 0.32000000E+00 0.0000E+00 0.9000E+01
       24  2    1    2    0    0 0.20400849E+03 0.47668310E+03 0.32383101E+03 0.61626019E+03 0.77870814E+02 0.0000E+00 0.0000E+00
       25  1    1    2    0    0 -.19052656E+03 -.48677491E+03 0.82277451E+03 0.98276807E+03 0.12500000E+03 0.0000E+00 0.9000E+01
        4  1    3    3  502    0 0.11075104E+03 0.16331367E+03 0.11840815E+03 0.23013049E+03 0.15500000E+01 0.0000E+00 0.9000E+01
       -3  1    3    3    0  502 0.93257450E+02 0.31336943E+03 0.20542286E+03 0.38612971E+03 0.50000000E+00 0.0000E+00 0.9000E+01
       21  1    1    2  503  501 -.13481938E+02 0.10091815E+02 0.49277725E+03 0.49306550E+03 0.75000000E+00 0.0000E+00 0.9000E+01
#aMCatNLO 2  0  0  1  4 0.13727962D+03 0.00000000D+00  -5  6  0 0.00000000D+00 0.00000000D+00 0.00000000D+00 0.00000000D+00 0.00000000D+00
  <mgrwgt>
 0.2376482251D-02    1    2    0
 0.557203634146541D+03 0.000000000000000D+00 0.000000000000000D+00 0.557203634146541D+03
 0.557203634146541D+03 0.000000000000000D+00 0.000000000000000D+00 -.557203634146541D+03
 0.561493419682884D+03 -.197331365237953D+03 -.481681216634741D+03 0.169391257689944D+03
 0.208388948286296D+03 0.108198711196580D+03 0.165082471433321D+03 -.668339007445640D+02
 0.344524900323902D+03 0.891326540413723D+02 0.316598745201420D+03 -.102557356945380D+03
 0.000000000000000D+00 -.000000000000000D+00 0.000000000000000D+00 0.000000000000000D+00
 0.757357766088055D+03 0.000000000000000D+00 0.000000000000000D+00 0.757357766088055D+03
 0.557621602289916D+03 0.000000000000000D+00 0.000000000000000D+00 -.557621602289916D+03
 0.563532236492116D+03 -.190526555021533D+03 -.486774912270191D+03 0.169391257689944D+03
 0.208226764851606D+03 0.110718645604761D+03 0.163196191215601D+03 -.668339007445640D+02
 0.342775505525004D+03 0.932898470776371D+02 0.313486905877312D+03 -.102557356945380D+03
 0.200444861509246D+03 -.134819376608652D+02 0.100918151772778D+02 0.199736163798139D+03
0.234385880857D-03 0.000000000000D+00 0.000000000000D+00 0.340809167876D-04 0.790491429924D-06  6 2 -1 25 4 -3 21 2 0.28703630D+00 0.34823879D-01 0.29084166D+06 0.29084166D+06 0.29084166D+06 0.10855494D+01  1  2  1  1  6  1        2 0.237648225094D-02 0.100000000000D+01
  </mgrwgt>
  </event>
  <event>
  7     66 0.16549492E-05 0.10470912E+03 0.75467711E-02 0.94887278E-01
        2 -1    0    0  501    0 0.00000000E+00 0.00000000E+00 0.12158560E+04 0.12158560E+04 0.32000000E+00 0.0000E+00 0.9000E+01
       21 -1    0    0  503  501 0.00000000E+00 0.00000000E+00 -.65072094E+03 0.65072137E+03 0.75000000E+00 0.0000E+00 0.9000E+01
       24  2    1    2    0    0 -.74878652E+02 0.34955463E+03 0.46159417E+03 0.58967478E+03 0.82776275E+02 0.0000E+00 0.0000E+00
       25  1    1    2    0    0 0.14842124E+03 -.45280833E+03 0.59320755E+03 0.77109302E+03 0.12500000E+03 0.0000E+00 0.9000E+01
        4  1    3    3  502    0 -.51413911E+02 0.27248243E+03 0.40649987E+03 0.49207175E+03 0.15500000E+01 0.0000E+00 0.9000E+01
        1  1    1    2  503    0 -.73542585E+02 0.10325370E+03 -.48966666E+03 0.50580963E+03 0.32000000E+00 0.0000E+00 0.9000E+01
       -3  1    3    3    0  502 -.23464741E+02 0.77072200E+02 0.55094305E+02 0.97603025E+02 0.50000000E+00 0.0000E+00 0.9000E+01
#aMCatNLO 2  0  0  2  1 0.60728210D+02 0.00000000D+00  -5  6  0 0.00000000D+00 0.00000000D+00 0.00000000D+00 0.00000000D+00 0.00000000D+00
  <mgrwgt>
 0.6664257177D-02    1    2    0
 0.425150703305367D+03 0.000000000000000D+00 0.000000000000000D+00 0.425150703305367D+03
 0.425150703305367D+03 0.000000000000000D+00 0.000000000000000D+00 -.425150703305367D+03
 0.430309515146270D+03 0.108725618331726D+03 -.397075728785661D+03 -.713332693336042D+01
 0.320727354728748D+03 -.772475278718548D+02 0.308744627847161D+03 0.396939577833403D+02
 0.000000000000000D+00 -.000000000000000D+00 0.000000000000000D+00 -.000000000000000D+00
 0.992645367357144D+02 -.314780904598708D+02 0.883311009385003D+02 -.325606308499799D+02
 0.432722100690642D+03 0.000000000000000D+00 0.000000000000000D+00 0.432722100690642D+03
 0.182838671499519D+04 0.000000000000000D+00 0.000000000000000D+00 -.182838671499519D+04
 0.492686645778250D+03 0.148421237336185D+03 -.452808329078298D+03 -.713332693336042D+01
 0.280099464982937D+03 -.514075585061681D+02 0.272465342617473D+03 0.396939577833403D+02
 0.140140984501615D+04 -.735425848424043D+02 0.103253698728030D+03 -.139566461430455D+04
 0.869128599084958D+02 -.234710939876124D+02 0.770892877327961D+02 -.325606308499799D+02
0.303076737281D-03 0.000000000000D+00 0.000000000000D+00 0.479994150114D-04 0.724558663183D-08  6 2 21 25 4 1 -3 2 0.18705480D+00 0.10011095D+00 0.23875814D+06 0.23875814D+06 0.23875814D+06 0.10919655D+01  1  2  1  6  5  2       -1 0.666425717715D-02 0.100000000000D+01
  </mgrwgt>
  </event>
  <event>
  7     66 0.16549492E-05 0.21325016E+02 0.75467711E-02 0.92738676E-01
        2 -1    0    0  501    0 0.00000000E+00 0.00000000E+00 0.10925545E+04 0.10925545E+04 0.32000000E+00 0.0000E+00 0.9000E+01
       -1 -1    0    0    0  503 0.00000000E+00 0.00000000E+00 -.52884500E+03 0.52884510E+03 0.32000000E+00 0.0000E+00 0.9000E+01
       24  2    1    2    0    0 -.35868796E+03 0.44573729E+03 0.60884664E+03 0.83943749E+03 0.81377391E+02 0.0000E+00 0.0000E+00
       25  1    1    2    0    0 0.35709764E+03 -.46049547E+03 0.12684804E+03 0.60933589E+03 0.12500000E+03 0.0000E+00 0.9000E+01
        4  1    3    3  502    0 -.26911849E+02 0.58206525E+02 0.10066269E+03 0.11936342E+03 0.15500000E+01 0.0000E+00 0.9000E+01
       -3  1    3    3    0  502 -.33177611E+03 0.38753076E+03 0.50818395E+03 0.72007406E+03 0.50000000E+00 0.0000E+00 0.9000E+01
       21  1    1    2  501  503 0.15903156E+01 0.14758184E+02 -.17198523E+03 0.17262623E+03 0.75000000E+00 0.0000E+00 0.9000E+01
#aMCatNLO 2  0  0  2  4 0.27394774D+03 0.00000000D+00  -5  6  0 0.00000000D+00 0.00000000D+00 0.00000000D+00 0.00000000D+00 0.00000000D+00
  <mgrwgt>
 0.1120884887D-02    1    2    0
 0.623994652859495D+03 0.000000000000000D+00 0.000000000000000D+00 0.623994652859495D+03
 0.623994652859495D+03 0.000000000000000D+00 0.000000000000000D+00 -.623994652859495D+03
 0.627601542899172D+03 0.357900516835823D+03 -.453044747976830D+03 -.211934832032591D+03
 0.796871468820118D+02 -.266913257633664D+02 0.590064914857914D+02 0.464311153185708D+02
 0.540700615937806D+03 -.331209191072457D+03 0.394038256491038D+03 0.165503716714020D+03
 0.000000000000000D+00 0.000000000000000D+00 0.000000000000000D+00 -.000000000000000D+00
 0.624221437742968D+03 0.000000000000000D+00 0.000000000000000D+00 0.624221437742968D+03
 0.925618995138554D+03 0.000000000000000D+00 0.000000000000000D+00 -.925618995138554D+03
 0.632547372549037D+03 0.357097639936068D+03 -.460495473421942D+03 -.211934832032591D+03
 0.790290107529364D+02 -.267924483648469D+02 0.580680702406955D+02 0.464311153185708D+02
 0.536501194525376D+03 -.331895507141449D+03 0.387669219593614D+03 0.165503716714020D+03
 0.301762855054172D+03 0.159031557022796D+01 0.147581835876331D+02 -.301397557395587D+03
0.201851736424D-03 0.000000000000D+00 0.000000000000D+00 0.752260485350D-04 0.229425053691D-05  6 2 -1 25 4 -3 21 2 0.16808519D+00 0.81360720D-01 0.35112517D+06 0.35112517D+06 0.35112517D+06 0.10795316D+01  1  2  1  2  6  2       -1 0.112088488690D-02 0.100000000000D+01
  </mgrwgt>
  </event>
  <event>
  7     66 0.16549492E-05 0.73475735E+02 0.75467711E-02 0.95188684E-01
        2 -1    0    0  501    0 0.00000000E+00 0.00000000E+00 0.25738321E+04 0.25738322E+04 0.32000000E+00 0.0000E+00 0.9000E+01
       -1 -1    0    0    0  503 0.00000000E+00 0.00000000E+00 -.10652130E+03 0.10652178E+03 0.32000000E+00 0.0000E+00 0.9000E+01
       24  2    1    2    0    0 0.45199207E+03 -.75613474E+02 0.11490628E+04 0.12398570E+04 0.82980240E+02 0.0000E+00 0.0000E+00
       25  1    1    2    0    0 -.45392701E+03 0.64883719E+02 0.13369062E+04 0.14188738E+04 0.12500000E+03 0.0000E+00 0.9000E+01
        4  1    3    3  502    0 0.23216177E+03 -.80674708E+02 0.61570523E+03 0.66295009E+03 0.15500000E+01 0.0000E+00 0.9000E+01
       -3  1    3    3    0  502 0.21983030E+03 0.50612331E+01 0.53335757E+03 0.57690686E+03 0.50000000E+00 0.0000E+00 0.9000E+01
       21  1    1    2  501  503 0.19349364E+01 0.10729756E+02 -.18658181E+02 0.21623178E+02 0.75000000E+00 0.0000E+00 0.9000E+01
#aMCatNLO 2  0  0  2  4 0.27394774D+03 0.00000000D+00  -5  6  0 0.00000000D+00 0.00000000D+00 0.00000000D+00 0.00000000D+00 0.00000000D+00
  <mgrwgt>
 0.6766066115D-02    1    2    0
 0.471351355788266D+03 0.000000000000000D+00 0.000000000000000D+00 0.471351355788266D+03
 0.471351355788266D+03 0.000000000000000D+00 0.000000000000000D+00 -.471351355788266D+03
 0.475986582287341D+03 -.452949894457121D+03 0.703020914826879D+02 0.288484932366664D+02
 0.245571532059392D+03 0.232597941218154D+03 -.778820010716344D+02 -.117460209497044D+02
 0.221144597229800D+03 0.220351953238967D+03 0.757990958894644D+01 -.171024722869619D+02
 0.000000000000000D+00 0.000000000000000D+00 0.000000000000000D+00 -.000000000000000D+00
 0.471653271063951D+03 0.000000000000000D+00 0.000000000000000D+00 0.471653271063951D+03
 0.581289573257797D+03 0.000000000000000D+00 0.000000000000000D+00 -.581289573257797D+03
 0.476147941864428D+03 -.453927009575067D+03 0.648837187431625D+02 0.288484932366664D+02
 0.245996984305754D+03 0.232093475707596D+03 -.806794014190850D+02 -.117460209497044D+02
 0.220620831615202D+03 0.219898597470259D+03 0.506592685205225D+01 -.171024722869619D+02
 0.110177086536364D+03 0.193493639721200D+01 0.107297558238702D+02 -.109636302193846D+03
0.466844933168D-03 0.000000000000D+00 0.000000000000D+00 0.395067042444D-04 0.216881062139D-05  6 2 -1 25 4 -3 21 2 0.39597314D+00 0.16387886D-01 0.22650431D+06 0.22650431D+06 0.22650431D+06 0.10936984D+01  1  2  1  2  6  2       -1 0.676606611488D-02 0.100000000000D+01
  </mgrwgt>
  </event>
  <event>
  7     66 0.16549492E-05 0.28705311E+03 0.75467711E-02 0.90017345E-01
        2 -1    0    0  501    0 0.00000000E+00 0.00000000E+00 0.14457047E+04 0.14457047E+04 0.32000000E+00 0.0000E+00 0.9000E+01
       -1 -1    0    0    0  503 0.00000000E+00 0.00000000E+00 -.50693689E+03 0.50693699E+03 0.32000000E+00 0.0000E+00 0.9000E+01
       24  2    1    2    0    0 -.52777113E+03 -.36569553E+03 0.29443047E+03 0.71092924E+03 0.80346093E+02 0.0000E+00 0.0000E+00
       25  1    1    2    0    0 0.54453803E+03 0.39183428E+02 0.71397304E+03 0.90743568E+03 0.12500000E+03 0.0000E+00 0.9000E+01
        4  1    3    3  502    0 -.28296835E+03 -.15033206E+03 0.13043745E+03 0.34595830E+03 0.15500000E+01 0.0000E+00 0.9000E+01
       -3  1    3    3    0  502 -.24480278E+03 -.21536346E+03 0.16399302E+03 0.36497094E+03 0.50000000E+00 0.0000E+00 0.9000E+01
       21  1    1    2  501  503 -.16766899E+02 0.32651210E+03 -.69635720E+02 0.33427679E+03 0.75000000E+00 0.0000E+00 0.9000E+01
#aMCatNLO 2  0  0  2  4 0.27394774D+03 0.00000000D+00  -5  6  0 0.00000000D+00 0.00000000D+00 0.00000000D+00 0.00000000D+00 0.00000000D+00
  <mgrwgt>
 0.2546535317D-03    1    2    0
 0.611419677045035D+03 0.000000000000000D+00 0.000000000000000D+00 0.611419677045035D+03
 0.611419677045035D+03 0.000000000000000D+00 0.000000000000000D+00 -.611419677045035D+03
 0.615168945265325D+03 0.536408891773006D+03 0.197487125170983D+03 0.189926742291359D+03
 0.313936290702408D+03 -.287282514511437D+03 -.646839058406991D+02 -.108815181850533D+03
 0.293734118122337D+03 -.249126377261569D+03 -.132803219330284D+03 -.811115604408259D+02
 0.000000000000000D+00 -.000000000000000D+00 0.000000000000000D+00 -.000000000000000D+00
 0.696658151607387D+03 0.000000000000000D+00 0.000000000000000D+00 0.696658151607387D+03
 0.105199457893330D+04 0.000000000000000D+00 0.000000000000000D+00 -.105199457893330D+04
 0.591400181809174D+03 0.544538030435884D+03 0.391834278174313D+02 0.189926742291359D+03
 0.338295487562271D+03 -.282888168222548D+03 -.150257703241870D+03 -.108815181850533D+03
 0.336095532059752D+03 -.244882963067195D+03 -.215437823589111D+03 -.811115604408259D+02
 0.482861529109489D+03 -.167668991461411D+02 0.326512099013549D+03 -.355336427325912D+03
0.709468312190D-04 0.000000000000D+00 0.000000000000D+00 0.239084785343D-03 0.156548361751D-07  6 2 -1 25 4 -3 21 2 0.22241603D+00 0.77990271D-01 0.58790089D+06 0.58790089D+06 0.58790089D+06 0.10635748D+01  1  2  1  2  6  2       -1 0.254653531747D-03 0.100000000000D+01
  </mgrwgt>
  </event>
  <event>
  6     66 0.16549492E-05 0.17861920E+02 0.75467711E-02 0.95002785E-01
        2 -1    0    0  501    0 0.00000000E+00 0.00000000E+00 0.12771354E+04 0.12771354E+04 0.32000000E+00 0.0000E+00 0.9000E+01
       -1 -1    0    0    0  501 0.00000000E+00 0.00000000E+00 -.20808763E+03 0.20808788E+03 0.32000000E+00 0.0000E+00 0.9000E+01
       24  2    1    2    0    0 0.46686432E+03 -.84033403E+02 0.28028098E+03 0.55635197E+03 0.77111493E+02 0.0000E+00 0.0000E+00
       25  1    1    2    0    0 -.46686432E+03 0.84033403E+02 0.78876678E+03 0.92887132E+03 0.12500000E+03 0.0000E+00 0.9000E+01
        4  1    3    3  502    0 0.44696555E+03 -.69774708E+02 0.27968839E+03 0.53185967E+03 0.15500000E+01 0.0000E+00 0.9000E+01
       -3  1    3    3    0  502 0.19898773E+02 -.14258696E+02 0.59258442E+00 0.24492299E+02 0.50000000E+00 0.0000E+00 0.9000E+01
#aMCatNLO 1  0  0  4  2 0.98107872D-02 0.00000000D+00  -5  6  0 0.00000000D+00 0.00000000D+00 0.00000000D+00 0.00000000D+00 0.00000000D+00
  <mgrwgt>
 0.8198885090D-02    7    2    0
 0.515515553621496D+03 0.000000000000000D+00 0.000000000000000D+00 0.515515553621496D+03
 0.515515553621496D+03 -.000000000000000D+00 -.000000000000000D+00 -.515515553621496D+03
 0.520209310031912D+03 -.466864323435208D+03 0.840334032541347D+02 0.173115039452935D+03
 0.476160551433122D+03 0.446976314803021D+03 -.697718799562003D+02 -.148569611676086D+03
 0.346612457779580D+02 0.198880086321874D+02 -.142615232979344D+02 -.245454277768492D+02
 0.000000000000000D+00 0.000000000000000D+00 0.000000000000000D+00 -.000000000000000D+00
 0.515515553621496D+03 0.000000000000000D+00 0.000000000000000D+00 0.515515553621496D+03
 0.515515553621496D+03 -.000000000000000D+00 -.000000000000000D+00 -.515515553621496D+03
 0.520209296338446D+03 -.466864310182813D+03 0.840334011854692D+02 0.173115035047996D+03
 0.474434322622913D+03 0.445358820025374D+03 -.695111167609698D+02 -.148025850968376D+03
 0.346612465491614D+02 0.198880095151869D+02 -.142615234357684D+02 -.245454280703477D+02
 0.172624173247142D+01 0.161748064225256D+01 -.260760988730950D+00 -.543756009272756D+00
0.813083966949D-07 0.000000000000D+00 0.000000000000D+00 0.777049251247D-05 0.000000000000D+00  6 2 -1 25 4 -3 21 0 0.19648239D+00 0.32013503D-01 0.23397626D+06 0.23397626D+06 0.23397626D+06 0.10926300D+01  1  2  2  3  6  4        4 0.171410099719D-05 0.100000000000D+01
0.238655325905D-07 0.000000000000D+00 -.312245652301D-09 0.777049251247D-05 0.000000000000D+00  6 2 -1 25 4 -3 21 2 0.19648239D+00 0.32013503D-01 0.23397626D+06 0.23397626D+06 0.23397626D+06 0.10926300D+01  1  2  3  3  6  4        4 0.600645659536D-06 0.100000000000D+01
-.256217368909D-07 0.000000000000D+00 0.000000000000D+00 0.777049251247D-05 0.000000000000D+00  6 2 -1 25 4 -3 21 2 0.19648239D+00 0.32013503D-01 0.23397626D+06 0.23397626D+06 0.23397626D+06 0.10926300D+01  1  2 15  3  6  4        4 -.644845657433D-06 0.100000000000D+01
-.869043326620D+00 0.000000000000D+00 0.000000000000D+00 0.777049251247D-05 0.000000000000D+00  6 2 -1 25 4 -3 21 2 0.19648239D+00 0.32013503D-01 0.23397626D+06 0.23397626D+06 0.23397626D+06 0.10926300D+01  1  2  4  3  6  4        4 -.218720072600D+02 0.100000000000D+01
-.851489934478D+00 0.000000000000D+00 0.000000000000D+00 0.777049251247D-05 0.000000000000D+00  6 2 -1 25 4 -3 21 2 0.19648239D+00 0.32013503D-01 0.23397626D+06 0.23397626D+06 0.23397626D+06 0.10926300D+01  1  2  5  3  6  4        4 -.214302250052D+02 0.100000000000D+01
0.854582466686D+00 0.000000000000D+00 -.000000000000D+00 0.777049251247D-05 0.000000000000D+00  6 2 -1 25 4 -3 21 2 0.19648239D+00 0.32013503D-01 0.23397626D+06 0.23397626D+06 0.23397626D+06 0.10926300D+01  1  2  6  3  6  4        4 0.215080575883D+02 0.100000000000D+01
0.866276494483D+00 0.000000000000D+00 0.000000000000D+00 0.777049251247D-05 0.519190696232D+00  6 2 -1 25 4 -3 21 2 0.19648239D+00 0.32013503D-01 0.23397626D+06 0.23397626D+06 0.23397626D+06 0.10926300D+01  1  2 11  3  6  4        4 0.218023718922D+02 0.100000000000D+01
  </mgrwgt>
  </event>
  <event>
  6     66 0.16549492E-05 0.31717948E+02 0.75467711E-02 0.92412537E-01
        2 -1    0    0  501    0 0.00000000E+00 0.00000000E+00 0.28633298E+04 0.28633298E+04 0.32000000E+00 0.0000E+00 0.9000E+01
       -1 -1    0    0    0  501 0.00000000E+00 0.00000000E+00 -.15653791E+03 0.15653823E+03 0.32000000E+00 0.0000E+00 0.9000E+01
       25  1    1    2    0    0 -.31882083E+03 -.50239833E+03 0.18855547E+04 0.19811593E+04 0.12500000E+03 0.0000E+00 0.9000E+01
        4  1    1    2  502    0 0.20607344E+03 0.29797321E+03 0.42188565E+03 0.55609730E+03 0.15500000E+01 0.0000E+00 0.9000E+01
       -3  1    1    2    0  503 0.56337069E+02 0.18167529E+03 0.20815977E+03 0.28197609E+03 0.50000000E+00 0.0000E+00 0.9000E+01
       21  1    1    2  503  502 0.56410320E+02 0.22749831E+02 0.19119177E+03 0.20063532E+03 0.75000000E+00 0.0000E+00 0.9000E+01
#aMCatNLO 2  0  0  5  4 0.81333342D+02 0.00000000D+00  -5  6  0 0.00000000D+00 0.00000000D+00 0.00000000D+00 0.00000000D+00 0.00000000D+00
  <mgrwgt>
 0.6142697236D+00    1    2    0
 0.669492474253776D+03 0.000000000000000D+00 0.000000000000000D+00 0.669492474253776D+03
 0.669492474253776D+03 -.000000000000000D+00 -.000000000000000D+00 -.669492474253776D+03
 0.674195636609151D+03 -.327150177307938D+03 -.517500476098987D+03 0.253141808375316D+03
 0.390687661787632D+03 0.201119540436631D+03 0.288952071565168D+03 -.169394450516667D+03
 0.274101650110768D+03 0.126030636871306D+03 0.228548404533819D+03 -.837473578586488D+02
 0.000000000000000D+00 0.000000000000000D+00 0.000000000000000D+00 0.000000000000000D+00
 0.669492474253776D+03 0.000000000000000D+00 0.000000000000000D+00 0.669492474253776D+03
 0.669492474253776D+03 -.000000000000000D+00 -.000000000000000D+00 -.669492474253776D+03
 0.656445367957492D+03 -.318798637439304D+03 -.502355498974687D+03 0.247592210155294D+03
 0.401350326900808D+03 0.206090630924075D+03 0.297966822485285D+03 -.172697740132071D+03
 0.214947678126479D+03 0.560939988060795D+02 0.181501219760962D+03 -.100564779397118D+03
 0.662415755227734D+02 0.566140077091489D+02 0.228874567284406D+02 0.256703093738950D+02
0.124773915733D+00 0.000000000000D+00 0.000000000000D+00 0.471987219984D-06 0.341658095426D-06  6 2 -1 25 4 -3 21 2 0.44051230D+00 0.24082781D-01 0.37289012D+06 0.37289012D+06 0.37289012D+06 0.10776317D+01  1  2  1  4  6  5       -3 0.614269723583D+00 0.100000000000D+01
  </mgrwgt>
  </event>
  <event>
  7     66 0.16549492E-05 0.20807997E+02 0.75467711E-02 0.93410036E-01
        2 -1    0    0  501    0 0.00000000E+00 0.00000000E+00 0.29632532E+04 0.29632532E+04 0.32000000E+00 0.0000E+00 0.9000E+01
       21 -1    0    0  503  501 0.00000000E+00 0.00000000E+00 -.11164978E+03 0.11165230E+03 0.75000000E+00 0.0000E+00 0.9000E+01
       24  2    1    2    0    0 0.45555173E+03 0.28420187E+03 0.16017420E+04 0.16912338E+04 0.79977784E+02 0.0000E+00 0.0000E+00
       25  1    1    2    0    0 -.42014156E+03 -.30236513E+03 0.12274801E+04 0.13380119E+04 0.12500000E+03 0.0000E+00 0.9000E+01
        4  1    3    3  502    0 0.95887222E+02 0.25043003E+02 0.31963458E+03 0.33464933E+03 0.15500000E+01 0.0000E+00 0.9000E+01
        1  1    1    2  503    0 -.35410173E+02 0.18163266E+02 0.22381372E+02 0.45659750E+02 0.32000000E+00 0.0000E+00 0.9000E+01
       -3  1    3    3    0  502 0.35966451E+03 0.25915886E+03 0.12821074E+04 0.13565845E+04 0.50000000E+00 0.0000E+00 0.9000E+01
#aMCatNLO 2  0  0  2  1 0.28442586D+02 0.00000000D+00  -5  6  0 0.00000000D+00 0.00000000D+00 0.00000000D+00 0.00000000D+00 0.00000000D+00
  <mgrwgt>
 0.1713925293D-03    1    2    0
 0.540890178055460D+03 0.000000000000000D+00 0.000000000000000D+00 0.540890178055460D+03
 0.540890178055460D+03 0.000000000000000D+00 0.000000000000000D+00 -.540890178055460D+03
 0.545155625341958D+03 -.437832354686420D+03 -.293290831021441D+03 -.620723245132492D+02
 0.982670853405105D+02 0.924969966821422D+02 0.266181771161608D+02 0.198039974024351D+02
 0.000000000000000D+00 -.000000000000000D+00 0.000000000000000D+00 -.000000000000000D+00
 0.438357645428451D+03 0.345335358004278D+03 0.266672653905281D+03 0.422683271108141D+02
 0.547541930560555D+03 0.000000000000000D+00 0.000000000000000D+00 0.547541930560555D+03
 0.604246010601231D+03 0.000000000000000D+00 0.000000000000000D+00 -.604246010601231D+03
 0.536117130364495D+03 -.420141559568329D+03 -.302365133445103D+03 -.620723245132492D+02
 0.100914361571596D+03 0.957558212017195D+02 0.249465982504914D+02 0.198039974024351D+02
 0.692758056967202D+02 -.354101727265648D+02 0.181632659272815D+02 -.567040800406763D+02
 0.445480643528975D+03 0.359795911093174D+03 0.259255269267330D+03 0.422683271108141D+02
0.185519184165D-05 0.000000000000D+00 0.000000000000D+00 0.158022079037D-03 0.112035877759D-07  6 2 21 25 4 1 -3 2 0.45588500D+00 0.17177073D-01 0.31065647D+06 0.31065647D+06 0.31065647D+06 0.10834321D+01  1  2  1  6  5  2       -1 0.171392529262D-03 0.100000000000D+01
  </mgrwgt>
  </event>
  <event>
  7     66 0.16549492E-05 0.66054157E+02 0.75467711E-02 0.93408315E-01
        2 -1    0    0  501    0 0.00000000E+00 0.00000000E+00 0.64033508E+03 0.64033516E+03 0.32000000E+00 0.0000E+00 0.9000E+01
       -1 -1    0    0    0  503 0.00000000E+00 0.00000000E+00 -.79705627E+03 0.79705633E+03 0.32000000E+00 0.0000E+00 0.9000E+01
       24  2    1    2    0    0 0.25722012E+03 0.45689987E+03 0.12627780E+03 0.54553062E+03 0.82084687E+02 0.0000E+00 0.0000E+00
       25  1    1    2    0    0 -.26114165E+03 -.48180745E+03 0.44064283E+02 0.56382625E+03 0.12500000E+03 0.0000E+00 0.9000E+01
        4  1    3    3  502    0 0.15968849E+03 0.22403933E+03 0.95340723E+02 0.29118086E+03 0.15500000E+01 0.0000E+00 0.9000E+01
       -3  1    3    3    0  502 0.97531625E+02 0.23286054E+03 0.30937077E+02 0.25434977E+03 0.50000000E+00 0.0000E+00 0.9000E+01
       21  1    1    2  501  503 0.39215286E+01 0.24907583E+02 -.32706327E+03 0.32803462E+03 0.75000000E+00 0.0000E+00 0.9000E+01
#aMCatNLO 2  0  0  2  1 0.28442586D+02 0.00000000D+00  -5  6  0 0.00000000D+00 0.00000000D+00 0.00000000D+00 0.00000000D+00 0.00000000D+00
  <mgrwgt>
 0.1195633974D-02    1    2    0
 0.547955400779761D+03 0.000000000000000D+00 0.000000000000000D+00 0.547955400779761D+03
 0.547955400779761D+03 0.000000000000000D+00 0.000000000000000D+00 -.547955400779761D+03
 0.552010066789658D+03 -.259145642014270D+03 -.469129823480437D+03 -.430216083305655D+02
 0.285516020976597D+03 0.160670906652682D+03 0.230387687765400D+03 0.512422805486460D+02
 0.258384713793268D+03 0.984747353615871D+02 0.238742135715037D+03 -.822067221808047D+01
 0.000000000000000D+00 0.000000000000000D+00 0.000000000000000D+00 -.000000000000000D+00
 0.548516078691440D+03 0.000000000000000D+00 0.000000000000000D+00 0.548516078691440D+03
 0.930478669576436D+03 0.000000000000000D+00 0.000000000000000D+00 -.930478669576436D+03
 0.563745723790246D+03 -.261141648143662D+03 -.481807453152452D+03 -.430216083305655D+02
 0.279780454495027D+03 0.159659632286471D+03 0.223964580279487D+03 0.512422805486460D+02
 0.252674647762529D+03 0.975604872557194D+02 0.232935290363284D+03 -.822067221808047D+01
 0.382793922220073D+03 0.392152860147096D+01 0.249075825096814D+02 -.381962590884996D+03
0.264210739301D-03 0.000000000000D+00 0.000000000000D+00 0.945660844392D-04 0.106665855027D-05  6 2 -1 25 4 -3 21 2 0.98513035D-01 0.12262397D+00 0.31075324D+06 0.31075324D+06 0.31075324D+06 0.10834221D+01  1  2  1  2  6  2       -1 0.119563397359D-02 0.100000000000D+01
  </mgrwgt>
  </event>
  <event>
  7     66 0.16549492E-05 0.38989540E+03 0.75467711E-02 0.89529123E-01
        2 -1    0    0  501    0 0.00000000E+00 0.00000000E+00 0.34173221E+04 0.34173221E+04 0.32000000E+00 0.0000E+00 0.9000E+01
       21 -1    0    0  503  501 0.00000000E+00 0.00000000E+00 -.37056389E+03 0.37056465E+03 0.75000000E+00 0.0000E+00 0.9000E+01
       24  2    1    2    0    0 -.42693594E+03 -.22434815E+03 0.24500189E+04 0.24982283E+04 0.77105172E+02 0.0000E+00 0.0000E+00
       25  1    1    2    0    0 0.28546840E+03 0.62617365E+03 0.25838608E+03 0.74563665E+03 0.12500000E+03 0.0000E+00 0.9000E+01
        4  1    3    3  502    0 -.19275554E+03 -.11914765E+03 0.13296089E+04 0.13487821E+04 0.15500000E+01 0.0000E+00 0.9000E+01
        1  1    1    2  503    0 0.14146754E+03 -.40182551E+03 0.33835319E+03 0.54402186E+03 0.32000000E+00 0.0000E+00 0.9000E+01
       -3  1    3    3    0  502 -.23418039E+03 -.10520049E+03 0.11204100E+04 0.11494462E+04 0.50000000E+00 0.0000E+00 0.9000E+01
#aMCatNLO 2  0  0  2  1 0.28442586D+02 0.00000000D+00  -5  6  0 0.00000000D+00 0.00000000D+00 0.00000000D+00 0.00000000D+00 0.00000000D+00
  <mgrwgt>
 0.2392160310D-03    1    2    0
 0.866851337663805D+03 0.000000000000000D+00 0.000000000000000D+00 0.866851337663805D+03
 0.866851337663805D+03 0.000000000000000D+00 0.000000000000000D+00 -.866851337663805D+03
 0.869642990636056D+03 0.359136604825843D+03 0.416925902733689D+03 -.661700553019482D+03
 0.458270306677430D+03 -.156818996998581D+03 -.220938696876245D+03 0.369601905278114D+03
 0.000000000000000D+00 0.000000000000000D+00 -.000000000000000D+00 -.000000000000000D+00
 0.405789378014124D+03 -.202317607827262D+03 -.195987205857444D+03 0.292098647741368D+03
 0.102496280327821D+04 0.000000000000000D+00 0.000000000000000D+00 0.102496280327821D+04
 0.123549606933607D+04 0.000000000000000D+00 0.000000000000000D+00 -.123549606933607D+04
 0.962838652090424D+03 0.285468396643138D+03 0.626173652121368D+03 -.661700553019482D+03
 0.433490631410652D+03 -.192668977104538D+03 -.119110135576639D+03 0.369601905278114D+03
 0.475185288811505D+03 0.141467543031920D+03 -.401825505480174D+03 -.210533266057856D+03
 0.388944300301697D+03 -.234266962570520D+03 -.105238011064556D+03 0.292098647741368D+03
0.650473514980D-04 0.000000000000D+00 0.000000000000D+00 0.131862987062D-04 0.293076538904D-10  6 2 21 25 4 1 -3 2 0.52574190D+00 0.57009886D-01 0.64703516D+06 0.64703516D+06 0.64703516D+06 0.10606866D+01  1  2  1  6  5  2       -1 0.239216031021D-03 0.100000000000D+01
  </mgrwgt>
  </event>
  <event>
  7     66 0.16549492E-05 0.32964817E+02 0.75467711E-02 0.88039523E-01
        2 -1    0    0  503    0 0.00000000E+00 0.00000000E+00 0.30131706E+04 0.30131706E+04 0.32000000E+00 0.0000E+00 0.9000E+01
       -1 -1    0    0    0  501 0.00000000E+00 0.00000000E+00 -.35730514E+03 0.35730528E+03 0.32000000E+00 0.0000E+00 0.9000E+01
       24  2    1    2    0    0 -.81132599E+03 0.33467589E+03 0.94537118E+03 0.12924456E+04 0.80193682E+02 0.0000E+00 0.0000E+00
       25  1    1    2    0    0 0.85384507E+03 -.36648019E+03 0.10196983E+04 0.13851963E+04 0.12500000E+03 0.0000E+00 0.9000E+01
        4  1    3    3  502    0 -.64795335E+03 0.26584043E+03 0.79935075E+03 0.10627694E+04 0.15500000E+01 0.0000E+00 0.9000E+01
       -3  1    3    3    0  502 -.16337264E+03 0.68835469E+02 0.14602043E+03 0.22967620E+03 0.50000000E+00 0.0000E+00 0.9000E+01
       21  1    1    2  503  501 -.42519084E+02 0.31804292E+02 0.69079599E+03 0.69283407E+03 0.75000000E+00 0.0000E+00 0.9000E+01
#aMCatNLO 2  0  0  1  2 0.10718214D+02 0.00000000D+00  -5  6  0 0.00000000D+00 0.00000000D+00 0.00000000D+00 0.00000000D+00 0.00000000D+00
  <mgrwgt>
 0.4057967019D-03    1    2    0
 0.909044607029612D+03 0.000000000000000D+00 0.000000000000000D+00 0.909044607029612D+03
 0.909044607029612D+03 0.000000000000000D+00 0.000000000000000D+00 -.909044607029612D+03
 0.911573078470620D+03 0.832227216544838D+03 -.350310021392057D+03 0.460720595712190D+01
 0.721013108571867D+03 -.664541006461122D+03 0.278259431720985D+03 0.285804500038298D+02
 0.185503027016736D+03 -.167686210083716D+03 0.720505896710717D+02 -.331876559609517D+02
 0.000000000000000D+00 -.000000000000000D+00 0.000000000000000D+00 0.000000000000000D+00
 0.118046234310134D+04 0.000000000000000D+00 0.000000000000000D+00 0.118046234310134D+04
 0.912032829557904D+03 0.000000000000000D+00 0.000000000000000D+00 -.912032829557904D+03
 0.937552858043324D+03 0.853845072710273D+03 -.366480186486068D+03 0.460720595712190D+01
 0.700911462610836D+03 -.647917497888268D+03 0.265825040632078D+03 0.285804500038298D+02
 0.180400098628096D+03 -.163408491089852D+03 0.688508541456234D+02 -.331876559609517D+02
 0.273630753376993D+03 -.425190837321532D+02 0.318042917083659D+02 0.268429513543440D+03
0.482387179607D-03 0.000000000000D+00 0.000000000000D+00 0.220038772246D-03 0.476395891790D-06  6 2 -1 25 4 -3 21 2 0.46356446D+00 0.54970003D-01 0.87262599D+06 0.87262599D+06 0.87262599D+06 0.10518257D+01  1  2  1  1  6  1        2 0.405796701874D-03 0.100000000000D+01
  </mgrwgt>
  </event>
  <event>
  7     66 0.16549492E-05 0.47225275E+02 0.75467711E-02 0.94845935E-01
        2 -1    0    0  501    0 0.00000000E+00 0.00000000E+00 0.11257770E+04 0.11257771E+04 0.32000000E+00 0.0000E+00 0.9000E+01
       -1 -1    0    0    0  503 0.00000000E+00 0.00000000E+00 -.44083917E+03 0.44083929E+03 0.32000000E+00 0.0000E+00 0.9000E+01
       24  2    1    2    0    0 -.47551900E+03 0.34946429E+02 0.87211223E+03 0.99718433E+03 0.80357185E+02 0.0000E+00 0.0000E+00
       25  1    1    2    0    0 0.46814193E+03 -.43795106E+02 -.11976665E+03 0.50104284E+03 0.12500000E+03 0.0000E+00 0.9000E+01
        4  1    3    3  502    0 -.13843387E+03 0.44890583E+02 0.28901490E+03 0.32359097E+03 0.15500000E+01 0.0000E+00 0.9000E+01
       -3  1    3    3    0  502 -.33708513E+03 -.99441541E+01 0.58309733E+03 0.67359336E+03 0.50000000E+00 0.0000E+00 0.9000E+01
       21  1    1    2  501  503 0.73770623E+01 0.88486767E+01 -.67407714E+02 0.68389199E+02 0.75000000E+00 0.0000E+00 0.9000E+01
#aMCatNLO 2  0  0  2  1 0.51932607D+01 0.00000000D+00  -5  6  0 0.00000000D+00 0.00000000D+00 0.00000000D+00 0.00000000D+00 0.00000000D+00
  <mgrwgt>
 0.7527163884D-02    1    2    0
 0.647790103865399D+03 0.000000000000000D+00 0.000000000000000D+00 0.647790103865399D+03
 0.647790103865399D+03 0.000000000000000D+00 0.000000000000000D+00 -.647790103865399D+03
 0.651328179985017D+03 0.471843726450971D+03 -.393548597605887D+02 -.429439274944293D+03
 0.205736874422721D+03 -.137140967921653D+03 0.463027720178146D+02 0.146205573485448D+03
 0.438515153323060D+03 -.334702758529318D+03 -.694791225722591D+01 0.283233701458845D+03
 0.000000000000000D+00 0.000000000000000D+00 0.000000000000000D+00 -.000000000000000D+00
 0.648097039930266D+03 0.000000000000000D+00 0.000000000000000D+00 0.648097039930266D+03
 0.765757122282712D+03 0.000000000000000D+00 0.000000000000000D+00 -.765757122282712D+03
 0.648936030479293D+03 0.468141933054951D+03 -.437951059493684D+02 -.429439274944293D+03
 0.206209648636432D+03 -.138313761040392D+03 0.448960240936052D+02 0.146205573485448D+03
 0.440485747946436D+03 -.337205234337872D+03 -.994959481557467D+01 0.283233701458845D+03
 0.118222735150817D+03 0.737706232331256D+01 0.884867667133786D+01 -.117660082352445D+03
0.948478695753D-03 0.000000000000D+00 0.000000000000D+00 0.151458837329D-03 0.734248475374D-05  6 2 -1 25 4 -3 21 2 0.17319616D+00 0.67821299D-01 0.24049627D+06 0.24049627D+06 0.24049627D+06 0.10917276D+01  1  2  1  2  6  2       -1 0.752716388356D-02 0.100000000000D+01
  </mgrwgt>
  </event>
  <event>
  6     66 -.16549492E-05 0.17711266E+02 0.75467711E-02 0.94966559E-01
        2 -1    0    0  501    0 0.00000000E+00 0.00000000E+00 0.84233186E+03 0.84233192E+03 0.32000000E+00 0.0000E+00 0.9000E+01
       -1 -1    0    0    0  501 0.00000000E+00 0.00000000E+00 -.33748550E+03 0.33748565E+03 0.32000000E+00 0.0000E+00 0.9000E+01
       24  2    1    2    0    0 -.21758712E+03 -.40727971E+03 0.52135733E+03 0.70115429E+03 0.81135482E+02 0.0000E+00 0.0000E+00
       25  1    1    2    0    0 0.21758712E+03 0.40727971E+03 -.16510962E+02 0.47866327E+03 0.12500000E+03 0.0000E+00 0.9000E+01
        4  1    3    3  502    0 -.11827326E+02 -.18835707E+02 0.59551049E+02 0.63587730E+02 0.15500000E+01 0.0000E+00 0.9000E+01
       -3  1    3    3    0  502 -.20575979E+03 -.38844401E+03 0.46180628E+03 0.63756656E+03 0.50000000E+00 0.0000E+00 0.9000E+01
#aMCatNLO 1  0  0  2  1 0.29850078D+02 0.00000000D+00  -5  6  0 0.00000000D+00 0.00000000D+00 0.00000000D+00 0.00000000D+00 0.00000000D+00
  <mgrwgt>
 -.3846201031D-03    7    4    0
 0.533174371110999D+03 0.000000000000000D+00 0.000000000000000D+00 0.533174371110999D+03
 0.533174371110999D+03 0.000000000000000D+00 0.000000000000000D+00 -.533174371110999D+03
 0.537414088083219D+03 0.217587115801609D+03 0.407279712119413D+03 -.244883615628697D+03
 0.419843671154281D+02 -.117526493034830D+02 -.186945947071984D+02 0.357081845683307D+02
 0.486950287023350D+03 -.205834466498126D+03 -.388585117412214D+03 0.209175431060366D+03
 0.000000000000000D+00 -.000000000000000D+00 0.000000000000000D+00 -.000000000000000D+00
 0.536222930521052D+03 0.000000000000000D+00 0.000000000000000D+00 0.536222930521052D+03
 0.611826905521107D+03 0.000000000000000D+00 0.000000000000000D+00 -.611826905521107D+03
 0.537427901107581D+03 0.230744140906817D+03 0.399991131305047D+03 -.244883615628697D+03
 0.419666195490947D+02 -.107250143113074D+02 -.192638723841998D+02 0.357081845683307D+02
 0.487371933264540D+03 -.193907893065188D+03 -.395192066445855D+03 0.209175431060366D+03
 0.812833821209434D+02 -.261112335303209D+02 0.144648075250069D+02 -.756039750000544D+02
 0.533174371110999D+03 0.000000000000000D+00 0.000000000000000D+00 0.533174371110999D+03
 0.533174371110999D+03 0.000000000000000D+00 0.000000000000000D+00 -.533174371110999D+03
 0.537414088083219D+03 0.217587115801609D+03 0.407279712119413D+03 -.244883615628697D+03
 0.419843671154281D+02 -.117526493034830D+02 -.186945947071984D+02 0.357081845683307D+02
 0.000000000000000D+00 -.000000000000000D+00 0.000000000000000D+00 -.000000000000000D+00
 0.486950287023350D+03 -.205834466498126D+03 -.388585117412214D+03 0.209175431060366D+03
 0.536222930521052D+03 0.000000000000000D+00 0.000000000000000D+00 0.536222930521052D+03
 0.611826905521107D+03 0.000000000000000D+00 0.000000000000000D+00 -.611826905521107D+03
 0.537427901107581D+03 0.230744140906817D+03 0.399991131305047D+03 -.244883615628697D+03
 0.419666195490947D+02 -.107250143113074D+02 -.192638723841998D+02 0.357081845683307D+02
 0.812833821209434D+02 -.261112335303209D+02 0.144648075250069D+02 -.756039750000544D+02
 0.487371933264540D+03 -.193907893065188D+03 -.395192066445855D+03 0.209175431060366D+03
0.246588320050D-05 0.000000000000D+00 0.000000000000D+00 0.595249736367D-04 0.000000000000D+00  6 2 -1 25 4 -3 21 0 0.12958953D+00 0.51920862D-01 0.22099149D+06 0.22099149D+06 0.22099149D+06 0.10945118D+01  1  2  2  2  6  2       -1 0.409548864889D-04 0.100000000000D+01
0.620032278090D-06 0.000000000000D+00 -.946964077189D-08 0.595249736367D-04 0.000000000000D+00  6 2 -1 25 4 -3 21 2 0.12958953D+00 0.51920862D-01 0.22099149D+06 0.22099149D+06 0.22099149D+06 0.10945118D+01  1  2  3  2  6  2       -1 0.123363986478D-04 0.100000000000D+01
-.787844679990D-06 0.000000000000D+00 0.000000000000D+00 0.595249736367D-04 0.000000000000D+00  6 2 -1 25 4 -3 21 2 0.12958953D+00 0.51920862D-01 0.22099149D+06 0.22099149D+06 0.22099149D+06 0.10945118D+01  1  2 15  2  6  2       -1 -.156752581895D-04 0.100000000000D+01
-.251409435599D-04 0.000000000000D+00 0.000000000000D+00 0.595249736367D-04 0.000000000000D+00  6 2 -1 25 4 -3 21 2 0.12958953D+00 0.51920862D-01 0.22099149D+06 0.22099149D+06 0.22099149D+06 0.10945118D+01  1  2  4  2  6  2       -1 -.500213800306D-03 0.100000000000D+01
-.435401733486D-04 0.000000000000D+00 -.279609054892D-05 0.595249736367D-04 0.000000000000D+00  6 2 -1 25 4 -3 21 2 0.12958953D+00 0.59761743D-01 0.22099149D+06 0.22099149D+06 0.22099149D+06 0.10945118D+01  1  2  5  2  6  2       -1 -.667442564110D-03 0.100000000000D+01
0.435296178566D-04 0.000000000000D+00 0.276866189475D-05 0.595249736367D-04 0.000000000000D+00  6 2 -1 25 4 -3 21 2 0.12958953D+00 0.51920862D-01 0.22099149D+06 0.22099149D+06 0.22099149D+06 0.10945118D+01  1  2  6  2  6  2       -1 0.866081876444D-03 0.100000000000D+01
-.925182620625D-06 0.000000000000D+00 -.605235836852D-07 0.595249736367D-04 0.000000000000D+00  6 2 21 25 4 1 -3 2 0.12958953D+00 0.59761743D-01 0.22099149D+06 0.22099149D+06 0.22099149D+06 0.10945118D+01  3  4  5  6  5  2       -1 -.120661642071D-03 0.100000000000D+01
  </mgrwgt>
  </event>
  <event>
  7     66 0.16549492E-05 0.60295773E+02 0.75467711E-02 0.92621576E-01
        2 -1    0    0  501    0 0.00000000E+00 0.00000000E+00 0.16347635E+04 0.16347635E+04 0.32000000E+00 0.0000E+00 0.9000E+01
       -1 -1    0    0    0  503 0.00000000E+00 0.00000000E+00 -.25687932E+03 0.25687952E+03 0.32000000E+00 0.0000E+00 0.9000E+01
       24  2    1    2    0    0 -.51414219E+03 -.28989833E+03 0.90151911E+03 0.10805431E+04 0.80333442E+02 0.0000E+00 0.0000E+00
       25  1    1    2    0    0 0.50459959E+03 0.27828929E+03 0.50656030E+03 0.77736350E+03 0.12500000E+03 0.0000E+00 0.9000E+01
        4  1    3    3  502    0 -.31532032E+03 -.14392444E+03 0.57395031E+03 0.67049423E+03 0.15500000E+01 0.0000E+00 0.9000E+01
       -3  1    3    3    0  502 -.19882187E+03 -.14597389E+03 0.32756879E+03 0.41004887E+03 0.50000000E+00 0.0000E+00 0.9000E+01
       21  1    1    2  501  503 0.95425997E+01 0.11609035E+02 -.30195249E+02 0.33736426E+02 0.75000000E+00 0.0000E+00 0.9000E+01
#aMCatNLO 2  0  0  2  1 0.29850078D+02 0.00000000D+00  -5  6  0 0.00000000D+00 0.00000000D+00 0.00000000D+00 0.00000000D+00 0.00000000D+00
  <mgrwgt>
 0.1044464959D-02    1    2    0
 0.605991647039529D+03 0.000000000000000D+00 0.000000000000000D+00 0.605991647039529D+03
 0.605991647039529D+03 0.000000000000000D+00 0.000000000000000D+00 -.605991647039529D+03
 0.609775337067265D+03 0.509374181586373D+03 0.284097813066274D+03 -.126599121006702D+03
 0.357079519245934D+03 -.312432038072142D+03 -.140437126814587D+03 0.100843532579232D+03
 0.245128437765859D+03 -.196942143514230D+03 -.143660686251688D+03 0.257555884274699D+02
 0.000000000000000D+00 0.000000000000000D+00 0.000000000000000D+00 -.000000000000000D+00
 0.606693712483260D+03 0.000000000000000D+00 0.000000000000000D+00 0.606693712483260D+03
 0.692169542947140D+03 0.000000000000000D+00 0.000000000000000D+00 -.692169542947140D+03
 0.603090387414882D+03 0.504599591323443D+03 0.278289292623302D+03 -.126599121006702D+03
 0.360912096597014D+03 -.315258497513341D+03 -.143875651701822D+03 0.100843532579232D+03
 0.248073972334210D+03 -.198883693495720D+03 -.146022675896348D+03 0.257555884274699D+02
 0.867867990842939D+02 0.954259968561817D+01 0.116090349748685D+02 -.854758304638798D+02
0.980748907161D-04 0.000000000000D+00 0.000000000000D+00 0.317433988224D-03 0.879591825736D-05  6 2 -1 25 4 -3 21 2 0.25150142D+00 0.39519808D-01 0.35877187D+06 0.35877187D+06 0.35877187D+06 0.10788499D+01  1  2  1  2  6  2       -1 0.104446495898D-02 0.100000000000D+01
  </mgrwgt>
  </event>
  <event>
  7     66 0.16549492E-05 0.65583395E+02 0.75467711E-02 0.95116370E-01
        2 -1    0    0  503    0 0.00000000E+00 0.00000000E+00 0.42073578E+03 0.42073590E+03 0.32000000E+00 0.0000E+00 0.9000E+01
       -1 -1    0    0    0  501 0.00000000E+00 0.00000000E+00 -.64154862E+03 0.64154870E+03 0.32000000E+00 0.0000E+00 0.9000E+01
       24  2    1    2    0    0 -.35125706E+03 0.31147728E+03 -.30398022E+03 0.56497978E+03 0.79990992E+02 0.0000E+00 0.0000E+00
       25  1    1    2    0    0 0.34030449E+03 -.31008764E+03 0.73655528E+02 0.48271278E+03 0.12500000E+03 0.0000E+00 0.9000E+01
        4  1    3    3  502    0 -.18998355E+03 0.17964008E+03 -.12264942E+03 0.28880718E+03 0.15500000E+01 0.0000E+00 0.9000E+01
       -3  1    3    3    0  502 -.16127351E+03 0.13183720E+03 -.18133080E+03 0.27617259E+03 0.50000000E+00 0.0000E+00 0.9000E+01
       21  1    1    2  503  501 0.10952573E+02 -.13896327E+01 0.95118481E+01 0.14592042E+02 0.75000000E+00 0.0000E+00 0.9000E+01
#aMCatNLO 2  0  0  1  1 0.32740283D+02 0.00000000D+00  -5  6  0 0.00000000D+00 0.00000000D+00 0.00000000D+00 0.00000000D+00 0.00000000D+00
  <mgrwgt>
 0.1252279704D-01    1    2    0
 0.511001061785271D+03 0.000000000000000D+00 0.000000000000000D+00 0.511001061785271D+03
 0.511001061785271D+03 0.000000000000000D+00 0.000000000000000D+00 -.511001061785271D+03
 0.515514966940419D+03 0.345807027619570D+03 -.310785791033077D+03 0.184283403703218D+03
 0.266065858249048D+03 -.187066981491833D+03 0.179234276045515D+03 -.605975218286730D+02
 0.240421298381076D+03 -.158740046127737D+03 0.131551514987561D+03 -.123685881874545D+03
 0.000000000000000D+00 0.000000000000000D+00 -.000000000000000D+00 0.000000000000000D+00
 0.526092586816518D+03 0.000000000000000D+00 0.000000000000000D+00 0.526092586816518D+03
 0.513054052916606D+03 0.000000000000000D+00 0.000000000000000D+00 -.513054052916606D+03
 0.511416527353306D+03 0.340304488282815D+03 -.310087643778727D+03 0.184283403703218D+03
 0.268329846063034D+03 -.189930398770113D+03 0.179597578657009D+03 -.605975218286730D+02
 0.242315381328213D+03 -.161326662259539D+03 0.131879697820969D+03 -.123685881874545D+03
 0.170848849885723D+02 0.109525727468370D+02 -.138963269925072D+01 0.130385338999122D+02
0.997857571811D-03 0.000000000000D+00 0.000000000000D+00 0.286228130679D-03 0.149729443949D-04  6 2 -1 25 4 -3 21 2 0.64727562D-01 0.98698225D-01 0.22937858D+06 0.22937858D+06 0.22937858D+06 0.10932829D+01  1  2  1  1  6  1        2 0.125227970396D-01 0.100000000000D+01
  </mgrwgt>
  </event>
  <event>
  7     66 0.16549492E-05 0.16237418E+03 0.75467711E-02 0.93604221E-01
        2 -1    0    0  501    0 0.00000000E+00 0.00000000E+00 0.20792510E+03 0.20792535E+03 0.32000000E+00 0.0000E+00 0.9000E+01
       21 -1    0    0  503  501 0.00000000E+00 0.00000000E+00 -.19124587E+04 0.19124589E+04 0.75000000E+00 0.0000E+00 0.9000E+01
       24  2    1    2    0    0 -.24390082E+03 0.28505467E+03 -.41293333E+03 0.56381048E+03 0.81391329E+02 0.0000E+00 0.0000E+00
       25  1    1    2    0    0 0.43568482E+03 -.24651923E+03 -.42586583E+03 0.66901397E+03 0.12500000E+03 0.0000E+00 0.9000E+01
        4  1    3    3  502    0 -.12558408E+03 0.86048060E+02 -.15694902E+03 0.21865732E+03 0.15500000E+01 0.0000E+00 0.9000E+01
        1  1    1    2  503    0 -.19178401E+03 -.38535436E+02 -.86573447E+03 0.88755977E+03 0.32000000E+00 0.0000E+00 0.9000E+01
       -3  1    3    3    0  502 -.11831674E+03 0.19900661E+03 -.25598432E+03 0.34515316E+03 0.50000000E+00 0.0000E+00 0.9000E+01
#aMCatNLO 2  0  0  2  1 0.29850078D+02 0.00000000D+00  -5  6  0 0.00000000D+00 0.00000000D+00 0.00000000D+00 0.00000000D+00 0.00000000D+00
  <mgrwgt>
 0.1157719666D-02    1    2    0
 0.441023247410300D+03 0.000000000000000D+00 0.000000000000000D+00 0.441023247410300D+03
 0.441023247410300D+03 0.000000000000000D+00 0.000000000000000D+00 -.441023247410300D+03
 0.446125275489463D+03 0.332180051619086D+03 -.267316593781392D+03 0.400126658197734D+02
 0.179821102752787D+03 -.161248477293329D+03 0.788053343355894D+02 -.111479525504438D+02
 0.000000000000000D+00 -.000000000000000D+00 -.000000000000000D+00 -.000000000000000D+00
 0.256100116578351D+03 -.170931574325757D+03 0.188511259445802D+03 -.288647132693296D+02
 0.476760931619557D+03 0.000000000000000D+00 0.000000000000000D+00 0.476760931619557D+03
 0.834062675142044D+03 0.000000000000000D+00 0.000000000000000D+00 -.834062675142044D+03
 0.517512327096987D+03 0.435684821417201D+03 -.246519231821769D+03 0.400126658197734D+02
 0.152572784974829D+03 -.125545892899357D+03 0.859791058630626D+02 -.111479525504438D+02
 0.407345824195481D+03 -.191784005526371D+03 -.385354355048354D+02 -.357301743522487D+03
 0.233392670494304D+03 -.118354922991473D+03 0.199075561463542D+03 -.288647132693296D+02
0.220660586894D-03 0.000000000000D+00 0.000000000000D+00 0.152148873730D-03 0.206566720508D-08  6 2 21 25 4 1 -3 2 0.31988504D-01 0.29422441D+00 0.29994583D+06 0.29994583D+06 0.29994583D+06 0.10845577D+01  1  2  1  6  5  2       -1 0.115771966633D-02 0.100000000000D+01
  </mgrwgt>
  </event>
  <event>
  7     66 0.16549492E-05 0.36777831E+02 0.75467711E-02 0.91114568E-01
        2 -1    0    0  501    0 0.00000000E+00 0.00000000E+00 0.85988509E+03 0.85988514E+03 0.32000000E+00 0.0000E+00 0.9000E+01
       21 -1    0    0  503  501 0.00000000E+00 0.00000000E+00 -.63723994E+03 0.63724038E+03 0.75000000E+00 0.0000E+00 0.9000E+01
       24  2    1    2    0    0 0.32743086E+03 0.55885901E+03 0.21761310E+03 0.68795914E+03 0.79987280E+02 0.0000E+00 0.0000E+00
       25  1    1    2    0    0 -.28731939E+03 -.59837788E+03 0.11542462E+03 0.68524183E+03 0.12500000E+03 0.0000E+00 0.9000E+01
        4  1    3    3  502    0 0.26740997E+03 0.44863992E+03 0.14126731E+03 0.54105889E+03 0.15500000E+01 0.0000E+00 0.9000E+01
        1  1    1    2  503    0 -.40111466E+02 0.39518873E+02 -.11039258E+03 0.12392455E+03 0.32000000E+00 0.0000E+00 0.9000E+01
       -3  1    3    3    0  502 0.60020895E+02 0.11021909E+03 0.76345790E+02 0.14690026E+03 0.50000000E+00 0.0000E+00 0.9000E+01
#aMCatNLO 2  0  0  2  1 0.29850078D+02 0.00000000D+00  -5  6  0 0.00000000D+00 0.00000000D+00 0.00000000D+00 0.00000000D+00 0.00000000D+00
  <mgrwgt>
 0.5829757442D-04    1    2    0
 0.665506598192567D+03 0.000000000000000D+00 0.000000000000000D+00 0.665506598192567D+03
 0.665506598192567D+03 0.000000000000000D+00 0.000000000000000D+00 -.665506598192567D+03
 0.668972767846301D+03 -.307598618674912D+03 -.578398256671937D+03 -.523269585213153D+02
 0.528093424663128D+03 0.251576626122836D+03 0.464203567252162D+03 0.103399473619762D+02
 0.000000000000000D+00 -.000000000000000D+00 0.000000000000000D+00 -.000000000000000D+00
 0.133947003875705D+03 0.560219925520762D+02 0.114194689419775D+03 0.419870111593392D+02
 0.671384479609983D+03 0.000000000000000D+00 0.000000000000000D+00 0.671384479609983D+03
 0.816154151868786D+03 0.000000000000000D+00 0.000000000000000D+00 -.816154151868786D+03
 0.677474453374213D+03 -.287319394745580D+03 -.598377882102632D+03 -.523269585213153D+02
 0.522364723280165D+03 0.267397874571939D+03 0.448616056657054D+03 0.103399473619762D+02
 0.155334893298492D+03 -.401114664854705D+02 0.395188730420995D+02 -.144769672258803D+03
 0.132364561525898D+03 0.600329866591119D+02 0.110242952403478D+03 0.419870111593392D+02
0.166355917971D-05 0.000000000000D+00 0.000000000000D+00 0.110834203905D-03 0.638383600225D-08  6 2 21 25 4 1 -3 2 0.13229002D+00 0.98036929D-01 0.47578986D+06 0.47578986D+06 0.47578986D+06 0.10700371D+01  1  2  1  6  5  2       -1 0.582975744161D-04 0.100000000000D+01
  </mgrwgt>
  </event>
  <event>
  7     66 0.16549492E-05 0.56283889E+02 0.75467711E-02 0.94339718E-01
        2 -1    0    0  501    0 0.00000000E+00 0.00000000E+00 0.88299404E+03 0.88299409E+03 0.32000000E+00 0.0000E+00 0.9000E+01
       -1 -1    0    0    0  503 0.00000000E+00 0.00000000E+00 -.31081052E+03 0.31081069E+03 0.32000000E+00 0.0000E+00 0.9000E+01
       24  2    1    2    0    0 -.41512414E+03 0.28064563E+03 0.37482682E+03 0.63083125E+03 0.79767850E+02 0.0000E+00 0.0000E+00
       25  1    1    2    0    0 0.39463730E+03 -.28225552E+03 0.20456565E+03 0.54118285E+03 0.12500000E+03 0.0000E+00 0.9000E+01
        4  1    3    3  502    0 -.26014774E+03 0.14358715E+03 0.25620260E+03 0.39234716E+03 0.15500000E+01 0.0000E+00 0.9000E+01
       -3  1    3    3    0  502 -.15497639E+03 0.13705848E+03 0.11862422E+03 0.23848409E+03 0.50000000E+00 0.0000E+00 0.9000E+01
       21  1    1    2  501  503 0.20486839E+02 0.16098904E+01 -.72089507E+01 0.21790682E+02 0.75000000E+00 0.0000E+00 0.9000E+01
#aMCatNLO 2  0  0  2  1 0.29850078D+02 0.00000000D+00  -5  6  0 0.00000000D+00 0.00000000D+00 0.00000000D+00 0.00000000D+00 0.00000000D+00
  <mgrwgt>
 0.2513576488D-02    1    2    0
 0.509288505680741D+03 0.000000000000000D+00 0.000000000000000D+00 0.509288505680741D+03
 0.509288505680741D+03 0.000000000000000D+00 0.000000000000000D+00 -.509288505680741D+03
 0.513835088855152D+03 0.404894745186224D+03 -.281449471781775D+03 -.724426579656277D+02
 0.300644562701674D+03 -.254003421027523D+03 0.144020060362481D+03 0.716075233588133D+02
 0.204097359804656D+03 -.150891324158701D+03 0.137429411419294D+03 0.835134606814403D+00
 0.000000000000000D+00 0.000000000000000D+00 0.000000000000000D+00 -.000000000000000D+00
 0.513628410608324D+03 0.000000000000000D+00 0.000000000000000D+00 0.513628410608324D+03
 0.534313998331368D+03 0.000000000000000D+00 0.000000000000000D+00 -.534313998331368D+03
 0.506240765132722D+03 0.394637295913030D+03 -.282255519456201D+03 -.724426579656277D+02
 0.305586936274995D+03 -.260099427343381D+03 0.143541025898521D+03 0.716075233588133D+02
 0.206956589014033D+03 -.155024707977238D+03 0.137104603143307D+03 0.835134606814403D+00
 0.291581185179422D+02 0.204868394075891D+02 0.160989041437322D+01 -.206855877230434D+02
0.117549441827D-03 0.000000000000D+00 0.000000000000D+00 0.244163465201D-03 0.365904055411D-05  6 2 -1 25 4 -3 21 2 0.13584399D+00 0.47816575D-01 0.26297117D+06 0.26297117D+06 0.26297117D+06 0.10888103D+01  1  2  1  2  6  2       -1 0.251357648821D-02 0.100000000000D+01
  </mgrwgt>
  </event>
  <event>
  7     66 0.16549492E-05 0.37524367E+02 0.75467711E-02 0.93384576E-01
        2 -1    0    0  501    0 0.00000000E+00 0.00000000E+00 0.18141054E+04 0.18141054E+04 0.32000000E+00 0.0000E+00 0.9000E+01
       -1 -1    0    0    0  503 0.00000000E+00 0.00000000E+00 -.27935587E+03 0.27935605E+03 0.32000000E+00 0.0000E+00 0.9000E+01
       24  2    1    2    0    0 0.73158189E+02 -.53009013E+03 0.52032983E+03 0.75090828E+03 0.82294952E+02 0.0000E+00 0.0000E+00
       25  1    1    2    0    0 -.12185571E+02 0.49684841E+03 0.11110552E+04 0.12235504E+04 0.12500000E+03 0.0000E+00 0.9000E+01
        4  1    3    3  502    0 0.49519138E+02 -.29737450E+03 0.34766042E+03 0.46016726E+03 0.15500000E+01 0.0000E+00 0.9000E+01
       -3  1    3    3    0  502 0.23639051E+02 -.23271563E+03 0.17266941E+03 0.29074102E+03 0.50000000E+00 0.0000E+00 0.9000E+01
       21  1    1    2  501  503 -.60972618E+02 0.33241712E+02 -.96635546E+02 0.11900278E+03 0.75000000E+00 0.0000E+00 0.9000E+01
#aMCatNLO 2  0  0  2  1 0.29884105D+02 0.00000000D+00  -5  6  0 0.00000000D+00 0.00000000D+00 0.00000000D+00 0.00000000D+00 0.00000000D+00
  <mgrwgt>
 0.1130643043D-02    1    2    0
 0.555033146386062D+03 0.000000000000000D+00 0.000000000000000D+00 0.555033146386062D+03
 0.555033146386062D+03 0.000000000000000D+00 0.000000000000000D+00 -.555033146386062D+03
 0.559020539484990D+03 -.424052376302600D+02 0.513323899541893D+03 0.177705749897730D+03
 0.295856477977376D+03 0.329755129506574D+02 -.288287034962111D+03 -.577430219123808D+02
 0.255189275309758D+03 0.942972467960257D+01 -.225036864579783D+03 -.119962727985350D+03
 0.000000000000000D+00 -.000000000000000D+00 0.000000000000000D+00 -.000000000000000D+00
 0.559567442827666D+03 0.000000000000000D+00 0.000000000000000D+00 0.559567442827666D+03
 0.905664706346194D+03 0.000000000000000D+00 0.000000000000000D+00 -.905664706346194D+03
 0.542412360409293D+03 -.121855707359059D+02 0.496848414553077D+03 0.177705749897730D+03
 0.306879065610207D+03 0.495125778543410D+02 -.297302890945309D+03 -.577430219123808D+02
 0.262944990354590D+03 0.236456110185981D+02 -.232787235316814D+03 -.119962727985350D+03
 0.352995732799769D+03 -.609726181370331D+02 0.332417117090454D+02 -.346097263518529D+03
0.152043851962D-03 0.000000000000D+00 0.000000000000D+00 0.765081263382D-04 0.112565742023D-06  6 2 -1 25 4 -3 21 2 0.27909295D+00 0.42977812D-01 0.31209222D+06 0.31209222D+06 0.31209222D+06 0.10832844D+01  1  2  1  2  6  2       -1 0.113064304278D-02 0.100000000000D+01
  </mgrwgt>
  </event>
  <event>
  7     66 0.16549492E-05 0.16072426E+02 0.75467711E-02 0.94760640E-01
        2 -1    0    0  501    0 0.00000000E+00 0.00000000E+00 0.18388508E+04 0.18388508E+04 0.32000000E+00 0.0000E+00 0.9000E+01
       -1 -1    0    0    0  503 0.00000000E+00 0.00000000E+00 -.20218187E+03 0.20218212E+03 0.32000000E+00 0.0000E+00 0.9000E+01
       24  2    1    2    0    0 0.43028460E+03 -.15830588E+03 0.13082986E+04 0.13886045E+04 0.79822899E+02 0.0000E+00 0.0000E+00
       25  1    1    2    0    0 -.45817594E+03 0.15095441E+03 0.35603684E+03 0.61245380E+03 0.12500000E+03 0.0000E+00 0.9000E+01
        4  1    3    3  502    0 0.37145998E+03 -.15369027E+03 0.10675957E+04 0.11407744E+04 0.15500000E+01 0.0000E+00 0.9000E+01
       -3  1    3    3    0  502 0.58824616E+02 -.46156158E+01 0.24070289E+03 0.24783013E+03 0.50000000E+00 0.0000E+00 0.9000E+01
       21  1    1    2  501  503 0.27891342E+02 0.73514751E+01 -.27666524E+02 0.39974619E+02 0.75000000E+00 0.0000E+00 0.9000E+01
#aMCatNLO 2  0  0  2  1 0.29884105D+02 0.00000000D+00  -5  6  0 0.00000000D+00 0.00000000D+00 0.00000000D+00 0.00000000D+00 0.00000000D+00
  <mgrwgt>
 0.1322101589D-02    1    2    0
 0.555290456269042D+03 0.000000000000000D+00 0.000000000000000D+00 0.555290456269042D+03
 0.555290456269042D+03 0.000000000000000D+00 0.000000000000000D+00 -.555290456269042D+03
 0.559456431331715D+03 -.443998501958375D+03 0.154691232175359D+03 -.276228983825386D+03
 0.463841079146019D+03 0.382993129358956D+03 -.150652699868539D+03 0.213935910004602D+03
 0.872834020603503D+02 0.610053725994190D+02 -.403853230682014D+01 0.622930738207836D+02
 0.000000000000000D+00 0.000000000000000D+00 0.000000000000000D+00 -.000000000000000D+00
 0.557341721102930D+03 0.000000000000000D+00 0.000000000000000D+00 0.557341721102930D+03
 0.667061006264769D+03 0.000000000000000D+00 0.000000000000000D+00 -.667061006264769D+03
 0.569771774280430D+03 -.458175938142166D+03 0.150954406921462D+03 -.276228983825386D+03
 0.455376173261007D+03 0.371452376240790D+03 -.153694559986397D+03 0.213935910004602D+03
 0.858074675905170D+02 0.588322204001771D+02 -.461132204915547D+01 0.622930738207836D+02
 0.113447312235744D+03 0.278913415011994D+02 0.735147511409093D+01 -.109719285161839D+03
0.102140548714D-03 0.000000000000D+00 0.000000000000D+00 0.481075591182D-04 0.376571018054D-06  6 2 -1 25 4 -3 21 2 0.28289952D+00 0.31104856D-01 0.24412733D+06 0.24412733D+06 0.24412733D+06 0.10912366D+01  1  2  1  2  6  2       -1 0.132210158899D-02 0.100000000000D+01
  </mgrwgt>
  </event>
  <event>
  7     66 0.16549492E-05 0.42256999E+02 0.75467711E-02 0.89476452E-01
        2 -1    0    0  501    0 0.00000000E+00 0.00000000E+00 0.79280672E+03 0.79280679E+03 0.32000000E+00 0.0000E+00 0.9000E+01
       -1 -1    0    0    0  503 0.00000000E+00 0.00000000E+00 -.92309427E+03 0.92309432E+03 0.32000000E+00 0.0000E+00 0.9000E+01
       24  2    1    2    0    0 -.69779209E+03 0.38560055E+03 0.11418243E+03 0.80924796E+03 0.79013027E+02 0.0000E+00 0.0000E+00
       25  1    1    2    0    0 0.70113373E+03 -.37165605E+03 -.15765094E+03 0.81865472E+03 0.12500000E+03 0.0000E+00 0.9000E+01
        4  1    3    3  502    0 -.51553280E+03 0.25417995E+03 0.58558183E+02 0.57776551E+03 0.15500000E+01 0.0000E+00 0.9000E+01
       -3  1    3    3    0  502 -.18225928E+03 0.13142060E+03 0.55624249E+02 0.23148246E+03 0.50000000E+00 0.0000E+00 0.9000E+01
       21  1    1    2  501  503 -.33416447E+01 -.13944496E+02 -.86819040E+02 0.87998430E+02 0.75000000E+00 0.0000E+00 0.9000E+01
#aMCatNLO 2  0  0  2  1 0.29884105D+02 0.00000000D+00  -5  6  0 0.00000000D+00 0.00000000D+00 0.00000000D+00 0.00000000D+00 0.00000000D+00
  <mgrwgt>
 0.1649124893D-02    1    2    0
 0.813629524260152D+03 0.000000000000000D+00 0.000000000000000D+00 0.813629524260152D+03
 0.813629524260152D+03 0.000000000000000D+00 0.000000000000000D+00 -.813629524260152D+03
 0.816512267976430D+03 0.699458846596902D+03 -.378645252909673D+03 -.135839530779206D+03
 0.578372541398244D+03 -.516672109092556D+03 0.249178677052621D+03 0.739913186233345D+02
 0.232374239145629D+03 -.182786737504346D+03 0.129466575857052D+03 0.618482121558711D+02
 0.000000000000000D+00 -.000000000000000D+00 -.000000000000000D+00 -.000000000000000D+00
 0.814265130682451D+03 0.000000000000000D+00 0.000000000000000D+00 0.814265130682451D+03
 0.898764382589272D+03 0.000000000000000D+00 0.000000000000000D+00 -.898764382589272D+03
 0.814735606050403D+03 0.701133732053240D+03 -.371656049891695D+03 -.135839530779206D+03
 0.579469279136993D+03 -.515483293795486D+03 0.254139536573283D+03 0.739913186233345D+02
 0.233117340601362D+03 -.182308793539250D+03 0.131461009202108D+03 0.618482121558711D+02
 0.857072874829644D+02 -.334164471850399D+01 -.139444958836966D+02 -.844992519068209D+02
0.756821082974D-03 0.000000000000D+00 0.000000000000D+00 0.685538996407D-04 0.200876079242D-05  6 2 -1 25 4 -3 21 2 0.12197003D+00 0.14201423D+00 0.65380170D+06 0.65380170D+06 0.65380170D+06 0.10603746D+01  1  2  1  2  6  2       -1 0.164912489344D-02 0.100000000000D+01
  </mgrwgt>
  </event>
  <event>
  7     66 0.16549492E-05 0.49711157E+02 0.75467711E-02 0.91263534E-01
        2 -1    0    0  501    0 0.00000000E+00 0.00000000E+00 0.68820709E+03 0.68820716E+03 0.32000000E+00 0.0000E+00 0.9000E+01
       -1 -1    0    0    0  503 0.00000000E+00 0.00000000E+00 -.70161555E+03 0.70161563E+03 0.32000000E+00 0.0000E+00 0.9000E+01
       24  2    1    2    0    0 -.49017015E+03 -.45791557E+03 0.12646305E+03 0.68713388E+03 0.78782165E+02 0.0000E+00 0.0000E+00
       25  1    1    2    0    0 0.48686976E+03 0.43788049E+03 -.14385555E+03 0.68198307E+03 0.12500000E+03 0.0000E+00 0.9000E+01
        4  1    3    3  502    0 -.19777484E+03 -.14719104E+03 0.19791753E+02 0.24733420E+03 0.15500000E+01 0.0000E+00 0.9000E+01
       -3  1    3    3    0  502 -.29239531E+03 -.31072452E+03 0.10667130E+03 0.43979968E+03 0.50000000E+00 0.0000E+00 0.9000E+01
       21  1    1    2  501  503 0.33003913E+01 0.20035073E+02 0.39840298E+01 0.20705838E+02 0.75000000E+00 0.0000E+00 0.9000E+01
#aMCatNLO 2  0  0  2  1 0.29884105D+02 0.00000000D+00  -5  6  0 0.00000000D+00 0.00000000D+00 0.00000000D+00 0.00000000D+00 0.00000000D+00
  <mgrwgt>
 0.1744173251D-02    1    2    0
 0.684427940955774D+03 0.000000000000000D+00 0.000000000000000D+00 0.684427940955774D+03
 0.684427940955774D+03 0.000000000000000D+00 0.000000000000000D+00 -.684427940955774D+03
 0.687868175480935D+03 0.488518923998636D+03 0.447891791174299D+03 -.135202925757410D+03
 0.244842686856827D+03 -.197076140825881D+03 -.143474194362927D+03 0.228930464630025D+02
 0.436145019573785D+03 -.291442783172755D+03 -.304417596811372D+03 0.112309879294408D+03
 0.000000000000000D+00 0.000000000000000D+00 0.000000000000000D+00 0.000000000000000D+00
 0.696999200567241D+03 0.000000000000000D+00 0.000000000000000D+00 0.696999200567241D+03
 0.692751834124425D+03 0.000000000000000D+00 0.000000000000000D+00 -.692751834124425D+03
 0.680210494436811D+03 0.486869756029997D+03 0.437880493139279D+03 -.135202925757410D+03
 0.247444725114322D+03 -.197669574996765D+03 -.147076645090726D+03 0.228930464630025D+02
 0.441351253105647D+03 -.292500572302374D+03 -.310838921040440D+03 0.112309879294408D+03
 0.207445620348856D+02 0.330039126914156D+01 0.200350729918868D+02 0.424736644281607D+01
0.321755923824D-03 0.000000000000D+00 0.000000000000D+00 0.615981726587D-04 0.913966421350D-06  6 2 -1 25 4 -3 21 2 0.10587699D+00 0.10793981D+00 0.46250146D+06 0.46250146D+06 0.46250146D+06 0.10709115D+01  1  2  1  2  6  2       -1 0.174417325064D-02 0.100000000000D+01
  </mgrwgt>
  </event>
  <event>
  7     66 0.16549492E-05 0.46735608E+02 0.75467711E-02 0.92220354E-01
        2 -1    0    0  503    0 0.00000000E+00 0.00000000E+00 0.34199660E+04 0.34199661E+04 0.32000000E+00 0.0000E+00 0.9000E+01
       -1 -1    0    0    0  501 0.00000000E+00 0.00000000E+00 -.22969010E+03 0.22969033E+03 0.32000000E+00 0.0000E+00 0.9000E+01
       24  2    1    2    0    0 0.52712544E+03 -.28838447E+03 0.54195732E+03 0.81306552E+03 0.79567347E+02 0.0000E+00 0.0000E+00
       25  1    1    2    0    0 -.53865989E+03 0.29356802E+03 0.94709211E+03 0.11353172E+04 0.12500000E+03 0.0000E+00 0.9000E+01
        4  1    3    3  502    0 0.14608706E+03 -.11491834E+03 0.19406799E+03 0.26872372E+03 0.15500000E+01 0.0000E+00 0.9000E+01
       -3  1    3    3    0  502 0.38103839E+03 -.17346613E+03 0.34788933E+03 0.54434180E+03 0.50000000E+00 0.0000E+00 0.9000E+01
       21  1    1    2  503  501 0.11534448E+02 -.51835440E+01 0.17012265E+04 0.17012737E+04 0.75000000E+00 0.0000E+00 0.9000E+01
#aMCatNLO 2  0  0  1  1 0.32740283D+02 0.00000000D+00  -5  6  0 0.00000000D+00 0.00000000D+00 0.00000000D+00 0.00000000D+00 0.00000000D+00
  <mgrwgt>
 0.2667759369D-02    1    2    0
 0.628244989744865D+03 0.000000000000000D+00 0.000000000000000D+00 0.628244989744865D+03
 0.628244989744865D+03 0.000000000000000D+00 0.000000000000000D+00 -.628244989744865D+03
 0.631943402607539D+03 -.532830757987125D+03 0.290948423065036D+03 0.123157876556999D+03
 0.188367529051119D+03 0.147668947415640D+03 -.115630342164039D+03 -.174880513782502D+02
 0.436179047831072D+03 0.385161810571485D+03 -.175318080900996D+03 -.105669825178748D+03
 0.000000000000000D+00 0.000000000000000D+00 -.000000000000000D+00 0.000000000000000D+00
 0.125016847228327D+04 0.000000000000000D+00 0.000000000000000D+00 0.125016847228327D+04
 0.628341091025565D+03 0.000000000000000D+00 0.000000000000000D+00 -.628341091025565D+03
 0.638067020978817D+03 -.538659892534581D+03 0.293568017463393D+03 0.123157876556999D+03
 0.186544459704522D+03 0.145948164353293D+03 -.114857027766470D+03 -.174880513782502D+02
 0.431942131852862D+03 0.381177280156700D+03 -.173527445692685D+03 -.105669825178748D+03
 0.621955950772635D+03 0.115344480245875D+02 -.518354400423728D+01 0.621827381257706D+03
0.240973787281D-02 0.000000000000D+00 0.000000000000D+00 0.162613458821D-03 0.784541108762D-05  6 2 -1 25 4 -3 21 2 0.52614845D+00 0.35336944D-01 0.38642028D+06 0.38642028D+06 0.38642028D+06 0.10765106D+01  1  2  1  1  6  1        2 0.266775936942D-02 0.100000000000D+01
  </mgrwgt>
  </event>
  <event>
  7     66 0.16549492E-05 0.44557473E+02 0.75467711E-02 0.93088353E-01
        2 -1    0    0  501    0 0.00000000E+00 0.00000000E+00 0.32771377E+04 0.32771377E+04 0.32000000E+00 0.0000E+00 0.9000E+01
       -1 -1    0    0    0  503 0.00000000E+00 0.00000000E+00 -.12081921E+03 0.12081963E+03 0.32000000E+00 0.0000E+00 0.9000E+01
       24  2    1    2    0    0 -.43770269E+03 -.27022206E+03 0.18449591E+04 0.19170324E+04 0.80842365E+02 0.0000E+00 0.0000E+00
       25  1    1    2    0    0 0.42309904E+03 0.33970381E+03 0.12926869E+04 0.14075070E+04 0.12500000E+03 0.0000E+00 0.9000E+01
        4  1    3    3  502    0 -.24175547E+03 -.10461206E+03 0.98530530E+03 0.10199109E+04 0.15500000E+01 0.0000E+00 0.9000E+01
       -3  1    3    3    0  502 -.19594722E+03 -.16561000E+03 0.85965382E+03 0.89712147E+03 0.50000000E+00 0.0000E+00 0.9000E+01
       21  1    1    2  501  503 0.14603644E+02 -.69481741E+02 0.18672522E+02 0.73418011E+02 0.75000000E+00 0.0000E+00 0.9000E+01
#aMCatNLO 2  0  0  2  4 0.32335954D+03 0.00000000D+00  -5  6  0 0.00000000D+00 0.00000000D+00 0.00000000D+00 0.00000000D+00 0.00000000D+00
  <mgrwgt>
 0.9053943132D-03    1    2    0
 0.548338083210191D+03 0.000000000000000D+00 0.000000000000000D+00 0.548338083210191D+03
 0.548338083210191D+03 0.000000000000000D+00 0.000000000000000D+00 -.548338083210191D+03
 0.552482201740078D+03 0.430546135695663D+03 0.304271763599396D+03 -.107982878981852D+03
 0.276140292090779D+03 -.238045782853563D+03 -.121906387327466D+03 0.687495375284889D+02
 0.268053672589524D+03 -.192500352842100D+03 -.182365376271930D+03 0.392333414533631D+02
 0.000000000000000D+00 0.000000000000000D+00 -.000000000000000D+00 -.000000000000000D+00
 0.557315757658573D+03 0.000000000000000D+00 0.000000000000000D+00 0.557315757658573D+03
 0.710442441285563D+03 0.000000000000000D+00 0.000000000000000D+00 -.710442441285563D+03
 0.567183196648999D+03 0.423099043268254D+03 0.339703806268425D+03 -.107982878981852D+03
 0.272164694722327D+03 -.241692656215088D+03 -.104555162830973D+03 0.687495375284889D+02
 0.259624170519780D+03 -.196010031425706D+03 -.165666901996088D+03 0.392333414533631D+02
 0.168786137053030D+03 0.146036443725402D+02 -.694817414413638D+02 -.153126683626989D+03
0.219241200594D-03 0.000000000000D+00 0.000000000000D+00 0.262221789629D-03 0.337427479681D-06  6 2 -1 25 4 -3 21 2 0.50417432D+00 0.18587577D-01 0.32935554D+06 0.32935554D+06 0.32935554D+06 0.10815649D+01  1  2  1  2  6  2       -1 0.905394313163D-03 0.100000000000D+01
  </mgrwgt>
  </event>
  <event>
  7     66 0.16549492E-05 0.69748768E+02 0.75467711E-02 0.93237015E-01
        4 -1    0    0  503    0 0.00000000E+00 0.00000000E+00 0.61752288E+03 0.61752483E+03 0.15500000E+01 0.0000E+00 0.9000E+01
       -3 -1    0    0    0  501 0.00000000E+00 0.00000000E+00 -.53439440E+03 0.53439463E+03 0.50000000E+00 0.0000E+00 0.9000E+01
       24  2    1    2    0    0 0.36583549E+03 -.41163114E+03 0.31534972E+02 0.55729196E+03 0.79398206E+02 0.0000E+00 0.0000E+00
       25  1    1    2    0    0 -.37638999E+03 0.39814486E+03 0.24425490E+02 0.56250365E+03 0.12500000E+03 0.0000E+00 0.9000E+01
        2  1    3    3  502    0 0.20526411E+03 -.19095088E+03 0.45507413E+02 0.28401870E+03 0.32000000E+00 0.0000E+00 0.9000E+01
       -1  1    3    3    0  502 0.16057138E+03 -.22068027E+03 -.13972441E+02 0.27327327E+03 0.32000000E+00 0.0000E+00 0.9000E+01
       21  1    1    2  503  501 0.10554503E+02 0.13486285E+02 0.27168024E+02 0.32123846E+02 0.75000000E+00 0.0000E+00 0.9000E+01
#aMCatNLO 2  0  0  1  1 0.10656028D+03 0.00000000D+00  -5  6  0 0.00000000D+00 0.00000000D+00 0.00000000D+00 0.00000000D+00 0.00000000D+00
  <mgrwgt>
 0.1200517013D-03    1    2    0
 0.559132668620969D+03 0.000000000000000D+00 0.000000000000000D+00 0.559132668620969D+03
 0.559132668620969D+03 0.000000000000000D+00 0.000000000000000D+00 -.559132668620969D+03
 0.563300250551768D+03 -.371079919434723D+03 0.404929935542322D+03 -.368957527294943D+01
 0.281764676919881D+03 0.207925621797012D+03 -.187550506878186D+03 0.313540480612330D+02
 0.273200409770290D+03 0.163154297637711D+03 -.217379428664136D+03 -.276644727882836D+02
 0.000000000000000D+00 0.000000000000000D+00 0.000000000000000D+00 0.000000000000000D+00
 0.587393123556620D+03 0.000000000000000D+00 0.000000000000000D+00 0.587393123556620D+03
 0.561798678026443D+03 0.000000000000000D+00 0.000000000000000D+00 -.561798678026443D+03
 0.561985200734582D+03 -.376389988705578D+03 0.398144859669453D+03 -.368957527294943D+01
 0.282097114697232D+03 0.205264834554759D+03 -.190950395354093D+03 0.313540480612330D+02
 0.274314144636719D+03 0.160570650788478D+03 -.220680749043694D+03 -.276644727882836D+02
 0.307953415145300D+02 0.105545033623412D+02 0.134862847283341D+02 0.255944455301763D+02
0.312936591128D-03 0.000000000000D+00 0.000000000000D+00 0.177969318454D-03 0.379696042137D-05  6 4 -3 25 2 -1 21 2 0.95002919D-01 0.82214025D-01 0.32056166D+06 0.32056166D+06 0.32056166D+06 0.10824282D+01  1  2  1  1  6  1        4 0.120051701326D-03 0.100000000000D+01
  </mgrwgt>
  </event>
  <event>
  7     66 0.16549492E-05 0.67389787E+02 0.75467711E-02 0.94954916E-01
        2 -1    0    0  501    0 0.00000000E+00 0.00000000E+00 0.18811334E+04 0.18811334E+04 0.32000000E+00 0.0000E+00 0.9000E+01
       -1 -1    0    0    0  503 0.00000000E+00 0.00000000E+00 -.30222234E+03 0.30222251E+03 0.32000000E+00 0.0000E+00 0.9000E+01
       24  2    1    2    0    0 -.12097868E+03 0.45555410E+03 0.15027283E+04 0.15769137E+04 0.79367478E+02 0.0000E+00 0.0000E+00
       25  1    1    2    0    0 0.10891612E+03 -.45328022E+03 0.17008226E+03 0.51174081E+03 0.12500000E+03 0.0000E+00 0.9000E+01
        4  1    3    3  502    0 -.31537968E+02 0.25521828E+03 0.87110233E+03 0.90826906E+03 0.15500000E+01 0.0000E+00 0.9000E+01
       -3  1    3    3    0  502 -.89440713E+02 0.20033582E+03 0.63162598E+03 0.66864468E+03 0.50000000E+00 0.0000E+00 0.9000E+01
       21  1    1    2  501  503 0.12062563E+02 -.22738761E+01 -.93899501E+02 0.94701398E+02 0.75000000E+00 0.0000E+00 0.9000E+01
#aMCatNLO 2  0  0  2  1 0.76236240D+02 0.00000000D+00  -5  6  0 0.00000000D+00 0.00000000D+00 0.00000000D+00 0.00000000D+00 0.00000000D+00
  <mgrwgt>
 0.6974036449D-02    1    2    0
 0.625306317102523D+03 0.000000000000000D+00 0.000000000000000D+00 0.625306317102523D+03
 0.625306317102523D+03 0.000000000000000D+00 0.000000000000000D+00 -.625306317102523D+03
 0.629034811100349D+03 0.114974029889823D+03 -.454422182451360D+03 -.400426330456788D+03
 0.350866960263314D+03 -.281173277489548D+02 0.254513361591415D+03 0.239874943368651D+03
 0.270710862841383D+03 -.868567021408684D+02 0.199908820859945D+03 0.160551387088137D+03
 0.000000000000000D+00 0.000000000000000D+00 -.000000000000000D+00 -.000000000000000D+00
 0.625469255104112D+03 0.000000000000000D+00 0.000000000000000D+00 0.625469255104112D+03
 0.908949328929311D+03 0.000000000000000D+00 0.000000000000000D+00 -.908949328929311D+03
 0.627129913897021D+03 0.108916118572206D+03 -.453280224471090D+03 -.400426330456788D+03
 0.351617820176608D+03 -.315050924403168D+02 0.255151978553887D+03 0.239874943368651D+03
 0.271925139528922D+03 -.894735888553973D+02 0.200402122017793D+03 0.160551387088137D+03
 0.283745710430872D+03 0.120625627235078D+02 -.227387610058944D+01 -.283480073825200D+03
0.113878869764D-02 0.000000000000D+00 0.000000000000D+00 0.952264228129D-04 0.429194114185D-05  6 2 -1 25 4 -3 21 2 0.28940493D+00 0.46495723D-01 0.23594485D+06 0.23594485D+06 0.23594485D+06 0.10923546D+01  1  2  1  2  6  2       -1 0.697403644938D-02 0.100000000000D+01
  </mgrwgt>
  </event>
  <event>
  7     66 0.16549492E-05 0.29530970E+02 0.75467711E-02 0.93816146E-01
        2 -1    0    0  501    0 0.00000000E+00 0.00000000E+00 0.11843439E+04 0.11843439E+04 0.32000000E+00 0.0000E+00 0.9000E+01
       -1 -1    0    0    0  503 0.00000000E+00 0.00000000E+00 -.29210558E+03 0.29210575E+03 0.32000000E+00 0.0000E+00 0.9000E+01
       24  2    1    2    0    0 -.32060623E+03 -.40653232E+03 0.70208299E+03 0.87605347E+03 0.80574637E+02 0.0000E+00 0.0000E+00
       25  1    1    2    0    0 0.32615297E+03 0.41491678E+03 0.20720013E+03 0.58059331E+03 0.12500000E+03 0.0000E+00 0.9000E+01
        4  1    3    3  502    0 -.28418197E+02 -.75658672E+02 0.13598637E+03 0.15819774E+03 0.15500000E+01 0.0000E+00 0.9000E+01
       -3  1    3    3    0  502 -.29218803E+03 -.33087365E+03 0.56609661E+03 0.71785573E+03 0.50000000E+00 0.0000E+00 0.9000E+01
       21  1    1    2  501  503 -.55467422E+01 -.83844565E+01 -.17044830E+02 0.19802884E+02 0.75000000E+00 0.0000E+00 0.9000E+01
#aMCatNLO 2  0  0  2  5 0.82860520D+02 0.00000000D+00  -5  6  0 0.00000000D+00 0.00000000D+00 0.00000000D+00 0.00000000D+00 0.00000000D+00
  <mgrwgt>
 0.2057505724D-02    1    2    0
 0.568973410875303D+03 0.000000000000000D+00 0.000000000000000D+00 0.568973410875303D+03
 0.568973410875303D+03 0.000000000000000D+00 0.000000000000000D+00 -.568973410875303D+03
 0.572986220480709D+03 0.323348823047817D+03 0.410678032130006D+03 -.198688956462570D+03
 0.943682585980371D+02 -.287693906609410D+02 -.762318161176989D+02 0.476067285498752D+02
 0.470592342671859D+03 -.294579432386876D+03 -.334446216012307D+03 0.151082227912695D+03
 0.000000000000000D+00 -.000000000000000D+00 -.000000000000000D+00 -.000000000000000D+00
 0.569655308358885D+03 0.000000000000000D+00 0.000000000000000D+00 0.569655308358885D+03
 0.607295716108889D+03 0.000000000000000D+00 0.000000000000000D+00 -.607295716108889D+03
 0.577610591859055D+03 0.326152969634901D+03 0.414916780578851D+03 -.198688956462570D+03
 0.936700289457786D+02 -.283111181222010D+02 -.755390912716871D+02 0.476067285498752D+02
 0.466710607013587D+03 -.292295109295385D+03 -.330993232846121D+03 0.151082227912695D+03
 0.389597966493534D+02 -.554674221731511D+01 -.838445646104242D+01 -.376404077500033D+02
0.132955869471D-03 0.000000000000D+00 0.000000000000D+00 0.160220703221D-03 0.999313997672D-05  6 2 -1 25 4 -3 21 2 0.18220561D+00 0.44939052D-01 0.28872648D+06 0.28872648D+06 0.28872648D+06 0.10857847D+01  1  2  1  2  6  2       -1 0.205750572430D-02 0.100000000000D+01
  </mgrwgt>
  </event>
  <event>
  7     66 0.16549492E-05 0.36597231E+02 0.75467711E-02 0.93931818E-01
        2 -1    0    0  503    0 0.00000000E+00 0.00000000E+00 0.29127299E+04 0.29127299E+04 0.32000000E+00 0.0000E+00 0.9000E+01
       -1 -1    0    0    0  501 0.00000000E+00 0.00000000E+00 -.13209575E+03 0.13209614E+03 0.32000000E+00 0.0000E+00 0.9000E+01
       24  2    1    2    0    0 -.51831559E+03 -.46821347E+02 0.72952705E+03 0.89976561E+03 0.80778465E+02 0.0000E+00 0.0000E+00
       25  1    1    2    0    0 0.50457479E+03 0.51761184E+02 0.14079962E+04 0.15017833E+04 0.12500000E+03 0.0000E+00 0.9000E+01
        4  1    3    3  502    0 -.11092651E+03 -.43551070E+02 0.17155062E+03 0.20888610E+03 0.15500000E+01 0.0000E+00 0.9000E+01
       -3  1    3    3    0  502 -.40738908E+03 -.32702768E+01 0.55797643E+03 0.69087951E+03 0.50000000E+00 0.0000E+00 0.9000E+01
       21  1    1    2  503  501 0.13740794E+02 -.49398371E+01 0.64311087E+03 0.64327705E+03 0.75000000E+00 0.0000E+00 0.9000E+01
#aMCatNLO 2  0  0  1  1 0.10656028D+03 0.00000000D+00  -5  6  0 0.00000000D+00 0.00000000D+00 0.00000000D+00 0.00000000D+00 0.00000000D+00
  <mgrwgt>
 0.2720701095D-02    1    2    0
 0.547315859145962D+03 0.000000000000000D+00 0.000000000000000D+00 0.547315859145962D+03
 0.547315859145962D+03 0.000000000000000D+00 0.000000000000000D+00 -.547315859145962D+03
 0.551472435064674D+03 0.511458469158985D+03 0.492864922408965D+02 0.156454219004463D+03
 0.121943326029773D+03 -.109242603237902D+03 -.441044844851435D+02 -.314805153914196D+02
 0.421215957197478D+03 -.402215865921082D+03 -.518200775575301D+01 -.124973703613043D+03
 0.000000000000000D+00 0.000000000000000D+00 -.000000000000000D+00 0.000000000000000D+00
 0.702488299223333D+03 0.000000000000000D+00 0.000000000000000D+00 0.702488299223333D+03
 0.547708166775636D+03 0.000000000000000D+00 0.000000000000000D+00 -.547708166775636D+03
 0.545323633974689D+03 0.504574794182731D+03 0.517611843229854D+02 0.156454219004463D+03
 0.123126451406057D+03 -.110780702016692D+03 -.435515355323715D+02 -.314805153914196D+02
 0.426279018136322D+03 -.407534885672234D+03 -.326981171104473D+01 -.124973703613043D+03
 0.155467362481902D+03 0.137407935061944D+02 -.493983707956915D+01 0.154780132447697D+03
0.434837526274D-03 0.000000000000D+00 0.000000000000D+00 0.171845061070D-03 0.522750412933D-05  6 2 -1 25 4 -3 21 2 0.44811158D+00 0.20322421D-01 0.28280170D+06 0.28280170D+06 0.28280170D+06 0.10864539D+01  1  2  1  1  6  1        2 0.272070109468D-02 0.100000000000D+01
  </mgrwgt>
  </event>
  <event>
  7     66 0.16549492E-05 0.18517788E+02 0.75467711E-02 0.94125034E-01
        2 -1    0    0  503    0 0.00000000E+00 0.00000000E+00 0.17461236E+04 0.17461236E+04 0.32000000E+00 0.0000E+00 0.9000E+01
       -1 -1    0    0    0  501 0.00000000E+00 0.00000000E+00 -.19672295E+03 0.19672321E+03 0.32000000E+00 0.0000E+00 0.9000E+01
       24  2    1    2    0    0 0.46943568E+03 0.17811859E+03 0.84732663E+03 0.98773485E+03 0.74576328E+02 0.0000E+00 0.0000E+00
       25  1    1    2    0    0 -.44582402E+03 -.20399148E+03 0.38416679E+03 0.63528002E+03 0.12500000E+03 0.0000E+00 0.9000E+01
        4  1    3    3  502    0 0.40012143E+03 0.13282262E+03 0.66340131E+03 0.78602971E+03 0.15500000E+01 0.0000E+00 0.9000E+01
       -3  1    3    3    0  502 0.69314254E+02 0.45295973E+02 0.18392532E+03 0.20170514E+03 0.50000000E+00 0.0000E+00 0.9000E+01
       21  1    1    2  503  501 -.23611660E+02 0.25872894E+02 0.31790719E+03 0.31983192E+03 0.75000000E+00 0.0000E+00 0.9000E+01
#aMCatNLO 2  0  0  1  1 0.10656028D+03 0.00000000D+00  -5  6  0 0.00000000D+00 0.00000000D+00 0.00000000D+00 0.00000000D+00 0.00000000D+00
  <mgrwgt>
 0.3577736697D-03    1    2    0
 0.528293083484552D+03 0.000000000000000D+00 0.000000000000000D+00 0.528293083484552D+03
 0.528293083484552D+03 0.000000000000000D+00 0.000000000000000D+00 -.528293083484552D+03
 0.533055293988472D+03 -.457674274299232D+03 -.191006361561483D+03 -.150245715202970D+03
 0.428483289253358D+03 0.390475847218621D+03 0.143365231659152D+03 0.102824862069417D+03
 0.950475837272735D+02 0.671984270806109D+02 0.476411299023315D+02 0.474208531335536D+02
 0.000000000000000D+00 -.000000000000000D+00 0.000000000000000D+00 0.000000000000000D+00
 0.646675174571552D+03 0.000000000000000D+00 0.000000000000000D+00 0.646675174571552D+03
 0.531180684571765D+03 0.000000000000000D+00 0.000000000000000D+00 -.531180684571765D+03
 0.527797650976296D+03 -.445824023997296D+03 -.203991482827354D+03 -.150245715202970D+03
 0.433934070998415D+03 0.400109474228119D+03 0.132809014553083D+03 0.102824862069417D+03
 0.954348899652704D+02 0.693262102027698D+02 0.453095739296960D+02 0.474208531335536D+02
 0.120689247203335D+03 -.236116604335934D+02 0.258728943445748D+02 0.115494489999787D+03
0.237653723462D-04 0.000000000000D+00 0.000000000000D+00 0.340025798569D-05 0.178387971611D-07  6 2 -1 25 4 -3 21 2 0.26863383D+00 0.30265026D-01 0.27320662D+06 0.27320662D+06 0.27320662D+06 0.10875707D+01  1  2  1  1  6  1        2 0.357773669707D-03 0.100000000000D+01
  </mgrwgt>
  </event>
  <event>
  7     66 0.16549492E-05 0.39682472E+02 0.75467711E-02 0.92409979E-01
        2 -1    0    0  501    0 0.00000000E+00 0.00000000E+00 0.45312044E+03 0.45312055E+03 0.32000000E+00 0.0000E+00 0.9000E+01
       -1 -1    0    0    0  503 0.00000000E+00 0.00000000E+00 -.97142339E+03 0.97142344E+03 0.32000000E+00 0.0000E+00 0.9000E+01
       24  2    1    2    0    0 0.53666982E+03 0.22866810E+03 -.17563230E+03 0.61472721E+03 0.82092873E+02 0.0000E+00 0.0000E+00
       25  1    1    2    0    0 -.54101462E+03 -.25375581E+03 -.16785906E+03 0.63315914E+03 0.12500000E+03 0.0000E+00 0.9000E+01
        4  1    3    3  502    0 0.14571266E+03 0.87428799E+02 -.81714067E+02 0.18856183E+03 0.15500000E+01 0.0000E+00 0.9000E+01
       -3  1    3    3    0  502 0.39095716E+03 0.14123930E+03 -.93918237E+02 0.42616537E+03 0.50000000E+00 0.0000E+00 0.9000E+01
       21  1    1    2  501  503 0.43448041E+01 0.25087709E+02 -.17481159E+03 0.17665764E+03 0.75000000E+00 0.0000E+00 0.9000E+01
#aMCatNLO 2  0  0  2  5 0.54447761D+03 0.00000000D+00  -5  6  0 0.00000000D+00 0.00000000D+00 0.00000000D+00 0.00000000D+00 0.00000000D+00
  <mgrwgt>
 0.5258453076D-03    1    2    0
 0.599705290643168D+03 0.000000000000000D+00 0.000000000000000D+00 0.599705290643168D+03
 0.599705290643168D+03 0.000000000000000D+00 0.000000000000000D+00 -.599705290643168D+03
 0.603409510285619D+03 -.538816136053260D+03 -.241061332892050D+03 0.668149804115852D+01
 0.174994211592320D+03 0.146208135356446D+03 0.910165264575160D+02 -.310184970302734D+02
 0.421006859408398D+03 0.392608000696814D+03 0.150044806434534D+03 0.243369989891149D+02
 0.000000000000000D+00 0.000000000000000D+00 0.000000000000000D+00 -.000000000000000D+00
 0.601063748070976D+03 0.000000000000000D+00 0.000000000000000D+00 0.601063748070976D+03
 0.732318945070470D+03 0.000000000000000D+00 0.000000000000000D+00 -.732318945070470D+03
 0.610539493666110D+03 -.541014622803658D+03 -.253755805495385D+03 0.668149804115852D+01
 0.172600239211193D+03 0.145578634617852D+03 0.873816717655704D+02 -.310184970302734D+02
 0.416541063411542D+03 0.391091184088251D+03 0.141286424389153D+03 0.243369989891149D+02
 0.133701896852601D+03 0.434480409755490D+01 0.250877093406614D+02 -.131255196999494D+03
0.134817427862D-03 0.000000000000D+00 0.000000000000D+00 0.497691978353D-04 0.484428096216D-06  6 2 -1 25 4 -3 21 2 0.69710727D-01 0.14944950D+00 0.37306670D+06 0.37306670D+06 0.37306670D+06 0.10776168D+01  1  2  1  2  6  2       -1 0.525845307580D-03 0.100000000000D+01
  </mgrwgt>
  </event>
  <event>
  7     66 0.16549492E-05 0.62185063E+02 0.75467711E-02 0.94578649E-01
        2 -1    0    0  501    0 0.00000000E+00 0.00000000E+00 0.51450545E+03 0.51450555E+03 0.32000000E+00 0.0000E+00 0.9000E+01
       -1 -1    0    0    0  503 0.00000000E+00 0.00000000E+00 -.51816225E+03 0.51816235E+03 0.32000000E+00 0.0000E+00 0.9000E+01
       24  2    1    2    0    0 0.17898703E+02 0.47098243E+03 0.19158856E+02 0.47848630E+03 0.80232597E+02 0.0000E+00 0.0000E+00
       25  1    1    2    0    0 -.45474697E+02 -.47930043E+03 0.25344473E+02 0.49806043E+03 0.12500000E+03 0.0000E+00 0.9000E+01
        4  1    3    3  502    0 -.31040114E+02 0.22473059E+03 0.15371677E+02 0.22738957E+03 0.15500000E+01 0.0000E+00 0.9000E+01
       -3  1    3    3    0  502 0.48938816E+02 0.24625183E+03 0.37871792E+01 0.25109673E+03 0.50000000E+00 0.0000E+00 0.9000E+01
       21  1    1    2  501  503 0.27575995E+02 0.83180015E+01 -.48160131E+02 0.56121166E+02 0.75000000E+00 0.0000E+00 0.9000E+01
#aMCatNLO 2  0  0  2  5 0.54447761D+03 0.00000000D+00  -5  6  0 0.00000000D+00 0.00000000D+00 0.00000000D+00 0.00000000D+00 0.00000000D+00
  <mgrwgt>
 0.1445307302D-02    1    2    0
 0.487553418529082D+03 0.000000000000000D+00 0.000000000000000D+00 0.487553418529082D+03
 0.487553418529082D+03 0.000000000000000D+00 0.000000000000000D+00 -.487553418529082D+03
 0.492264558913599D+03 -.314835908434194D+02 -.475080161011627D+03 0.264954395530471D+01
 0.227976745013830D+03 -.246298949881049D+02 0.226586829097404D+03 0.501731198547598D+01
 0.254865533130734D+03 0.561134858315243D+02 0.248493331914223D+03 -.766685594078069D+01
 0.000000000000000D+00 0.000000000000000D+00 0.000000000000000D+00 -.000000000000000D+00
 0.491566748480371D+03 0.000000000000000D+00 0.000000000000000D+00 0.491566748480371D+03
 0.542336941811510D+03 0.000000000000000D+00 0.000000000000000D+00 -.542336941811510D+03
 0.497422222938074D+03 -.454746971297878D+02 -.479300427404814D+03 0.264954395530471D+01
 0.226839848936602D+03 -.310595931748977D+02 0.224647379948733D+03 0.501731198547598D+01
 0.251270074343115D+03 0.489582957154826D+02 0.246335045945584D+03 -.766685594078069D+01
 0.583715440740909D+02 0.275759945892030D+02 0.831800151049699D+01 -.507701933311382D+02
0.924509746717D-04 0.000000000000D+00 0.000000000000D+00 0.292467951264D-03 0.224907656117D-05  6 2 -1 25 4 -3 21 2 0.79154314D-01 0.79716896D-01 0.25208222D+06 0.25208222D+06 0.25208222D+06 0.10901882D+01  1  2  1  2  6  2       -1 0.144530730167D-02 0.100000000000D+01
  </mgrwgt>
  </event>
  <event>
  7     66 0.16549492E-05 0.49814478E+02 0.75467711E-02 0.94804275E-01
        2 -1    0    0  501    0 0.00000000E+00 0.00000000E+00 0.51642741E+03 0.51642751E+03 0.32000000E+00 0.0000E+00 0.9000E+01
       -1 -1    0    0    0  503 0.00000000E+00 0.00000000E+00 -.60657039E+03 0.60657048E+03 0.32000000E+00 0.0000E+00 0.9000E+01
       24  2    1    2    0    0 -.18963582E+03 -.36962333E+03 -.16815321E+03 0.45553738E+03 0.81582178E+02 0.0000E+00 0.0000E+00
       25  1    1    2    0    0 0.27921350E+03 0.36666565E+03 0.19862846E+03 0.51718676E+03 0.12500000E+03 0.0000E+00 0.9000E+01
        4  1    3    3  502    0 -.79531110E+02 -.19764335E+03 -.12435200E+03 0.24668586E+03 0.15500000E+01 0.0000E+00 0.9000E+01
       -3  1    3    3    0  502 -.11010471E+03 -.17197997E+03 -.43801203E+02 0.20885151E+03 0.50000000E+00 0.0000E+00 0.9000E+01
       21  1    1    2  501  503 -.89577685E+02 0.29576793E+01 -.12061824E+03 0.15027385E+03 0.75000000E+00 0.0000E+00 0.9000E+01
#aMCatNLO 2  0  0  2  5 0.54447761D+03 0.00000000D+00  -5  6  0 0.00000000D+00 0.00000000D+00 0.00000000D+00 0.00000000D+00 0.00000000D+00
  <mgrwgt>
 0.3597061138D-03    1    2    0
 0.484053351465749D+03 0.000000000000000D+00 0.000000000000000D+00 0.484053351465749D+03
 0.484053351465749D+03 0.000000000000000D+00 0.000000000000000D+00 -.484053351465749D+03
 0.488685768788424D+03 0.233052441871566D+03 0.368189796124976D+03 0.182514695253510D+03
 0.258461987612641D+03 -.102997288866397D+03 -.196812656063124D+03 -.132132266839812D+03
 0.220958946530433D+03 -.130055153005169D+03 -.171377140061852D+03 -.503824284136982D+02
 0.000000000000000D+00 -.000000000000000D+00 0.000000000000000D+00 -.000000000000000D+00
 0.500492730722003D+03 0.000000000000000D+00 0.000000000000000D+00 0.500492730722003D+03
 0.625880346767604D+03 0.000000000000000D+00 0.000000000000000D+00 -.625880346767604D+03
 0.511214722659394D+03 0.279213504172848D+03 0.366665648469772D+03 0.182514695253510D+03
 0.250638327566961D+03 -.794943387552516D+02 -.197588677335522D+03 -.132132266839812D+03
 0.210393573680063D+03 -.110141480865234D+03 -.172034650422001D+03 -.503824284136982D+02
 0.154126453583189D+03 -.895776845523630D+02 0.295767928775172D+01 -.125387616045601D+03
0.320612740444D-04 0.000000000000D+00 0.000000000000D+00 0.743913755972D-04 0.605041298753D-07  6 2 -1 25 4 -3 21 2 0.79450243D-01 0.93318370D-01 0.24226212D+06 0.24226212D+06 0.24226212D+06 0.10914878D+01  1  2  1  2  6  2       -1 0.359706113782D-03 0.100000000000D+01
  </mgrwgt>
  </event>
  <event>
  7     66 0.16549492E-05 0.33623063E+02 0.75467711E-02 0.93424613E-01
        2 -1    0    0  501    0 0.00000000E+00 0.00000000E+00 0.44747722E+04 0.44747722E+04 0.32000000E+00 0.0000E+00 0.9000E+01
       -1 -1    0    0    0  503 0.00000000E+00 0.00000000E+00 -.99936902E+02 0.99937415E+02 0.32000000E+00 0.0000E+00 0.9000E+01
       24  2    1    2    0    0 -.54061154E+03 0.83772776E+02 0.28729259E+04 0.29257187E+04 0.82754480E+02 0.0000E+00 0.0000E+00
       25  1    1    2    0    0 0.48453119E+03 -.89594697E+02 0.15088446E+04 0.15921793E+04 0.12500000E+03 0.0000E+00 0.9000E+01
        4  1    3    3  502    0 -.12806079E+03 0.27358896E+01 0.84646514E+03 0.85610320E+03 0.15500000E+01 0.0000E+00 0.9000E+01
       -3  1    3    3    0  502 -.41255075E+03 0.81036887E+02 0.20264607E+04 0.20696155E+04 0.50000000E+00 0.0000E+00 0.9000E+01
       21  1    1    2  501  503 0.56080354E+02 0.58219207E+01 -.69352154E+01 0.56811624E+02 0.75000000E+00 0.0000E+00 0.9000E+01
#aMCatNLO 2  0  0  2  5 0.54447761D+03 0.00000000D+00  -5  6  0 0.00000000D+00 0.00000000D+00 0.00000000D+00 0.00000000D+00 0.00000000D+00
  <mgrwgt>
 0.6822992679D-03    1    2    0
 0.549615916557869D+03 0.000000000000000D+00 0.000000000000000D+00 0.549615916557869D+03
 0.549615916557869D+03 0.000000000000000D+00 0.000000000000000D+00 -.549615916557869D+03
 0.553608112036583D+03 0.512120708065462D+03 -.867305212924638D+02 -.145145233333986D+03
 0.137781147998510D+03 -.120734837995766D+03 0.345353966319197D+01 0.662934137129636D+02
 0.407842573080645D+03 -.391385870069696D+03 0.832769816292718D+02 0.788518196210221D+02
 0.000000000000000D+00 0.000000000000000D+00 0.000000000000000D+00 -.000000000000000D+00
 0.553422149145871D+03 0.000000000000000D+00 0.000000000000000D+00 0.553422149145871D+03
 0.808054398693087D+03 0.000000000000000D+00 0.000000000000000D+00 -.808054398693087D+03
 0.528667967727887D+03 0.484531187404657D+03 -.895946972436978D+02 -.145145233333986D+03
 0.144103601429251D+03 -.127920680188634D+03 0.270754930506974D+01 0.662934137129636D+02
 0.427905278893684D+03 -.412690861522789D+03 0.810652272131146D+02 0.788518196210221D+02
 0.260799699788137D+03 0.560803543067651D+02 0.582192072551344D+01 -.254632249547216D+03
0.110919960465D-02 0.000000000000D+00 0.000000000000D+00 0.409382194829D-04 0.856289097782D-07  6 2 -1 25 4 -3 21 2 0.68842586D+00 0.15374933D-01 0.30983771D+06 0.30983771D+06 0.30983771D+06 0.10835166D+01  1  2  1  2  6  2       -1 0.682299267870D-03 0.100000000000D+01
  </mgrwgt>
  </event>
  <event>
  7     66 0.16549492E-05 0.85098413E+02 0.75467711E-02 0.92868207E-01
        2 -1    0    0  503    0 0.00000000E+00 0.00000000E+00 0.38835159E+03 0.38835172E+03 0.32000000E+00 0.0000E+00 0.9000E+01
       -1 -1    0    0    0  501 0.00000000E+00 0.00000000E+00 -.90084370E+03 0.90084376E+03 0.32000000E+00 0.0000E+00 0.9000E+01
       24  2    1    2    0    0 -.55744252E+03 -.14675752E+03 -.25112301E+03 0.63400824E+03 0.81386417E+02 0.0000E+00 0.0000E+00
       25  1    1    2    0    0 0.44521123E+03 0.10047032E+03 -.16843949E+03 0.50229890E+03 0.12500000E+03 0.0000E+00 0.9000E+01
        4  1    3    3  502    0 -.24696161E+03 -.69383752E+02 -.68215755E+02 0.26544290E+03 0.15500000E+01 0.0000E+00 0.9000E+01
       -3  1    3    3    0  502 -.31048091E+03 -.77373764E+02 -.18290725E+03 0.36856534E+03 0.50000000E+00 0.0000E+00 0.9000E+01
       21  1    1    2  503  501 0.11223129E+03 0.46287192E+02 -.92929614E+02 0.15288833E+03 0.75000000E+00 0.0000E+00 0.9000E+01
#aMCatNLO 2  0  0  1  2 0.23444185D+02 0.00000000D+00  -5  6  0 0.00000000D+00 0.00000000D+00 0.00000000D+00 0.00000000D+00 0.00000000D+00
  <mgrwgt>
 0.3402345147D-03    1    2    0
 0.524505210007530D+03 0.000000000000000D+00 0.000000000000000D+00 0.524505210007530D+03
 0.524505210007530D+03 0.000000000000000D+00 0.000000000000000D+00 -.524505210007530D+03
 0.528795563621527D+03 0.498653281418632D+03 0.122511257524251D+03 0.183206117819691D+02
 0.230669254291369D+03 -.220782235078003D+03 -.586038403101687D+02 0.320795799566927D+02
 0.289545602102164D+03 -.277871046340629D+03 -.639074172140820D+02 -.504001917386618D+02
 0.000000000000000D+00 0.000000000000000D+00 0.000000000000000D+00 -.000000000000000D+00
 0.572174826806284D+03 0.000000000000000D+00 0.000000000000000D+00 0.572174826806284D+03
 0.611426555923520D+03 0.000000000000000D+00 0.000000000000000D+00 -.611426555923520D+03
 0.473569393932377D+03 0.445211230928383D+03 0.100470323522160D+03 0.183206117819691D+02
 0.258415707566556D+03 -.246858269588843D+03 -.693582958450392D+02 0.320795799566927D+02
 0.324026843373914D+03 -.310584250611634D+03 -.773992194507067D+02 -.504001917386618D+02
 0.127589437856957D+03 0.112231289272095D+03 0.462871917735864D+02 -.392517291172366D+02
0.589764634639D-04 0.000000000000D+00 0.000000000000D+00 0.199885132817D-03 0.847923564816D-07  6 2 -1 25 4 -3 21 2 0.59746300D-01 0.13859109D+00 0.34287847D+06 0.34287847D+06 0.34287847D+06 0.10802853D+01  1  2  1  1  6  1        2 0.340234514676D-03 0.100000000000D+01
  </mgrwgt>
  </event>
  <event>
  7     66 0.16549492E-05 0.17037615E+03 0.75467711E-02 0.95389066E-01
        2 -1    0    0  503    0 0.00000000E+00 0.00000000E+00 0.14519558E+04 0.14519558E+04 0.32000000E+00 0.0000E+00 0.9000E+01
       -1 -1    0    0    0  501 0.00000000E+00 0.00000000E+00 -.46338097E+03 0.46338108E+03 0.32000000E+00 0.0000E+00 0.9000E+01
       24  2    1    2    0    0 -.69544547E+02 0.23683789E+03 -.78351189E+02 0.27180070E+03 0.82511100E+02 0.0000E+00 0.0000E+00
       25  1    1    2    0    0 0.18678311E+03 -.40965123E+03 -.83200707E+02 0.47460448E+03 0.12500000E+03 0.0000E+00 0.9000E+01
        4  1    3    3  502    0 -.76832946E-01 0.14075181E+03 -.31044887E+02 0.14414321E+03 0.15500000E+01 0.0000E+00 0.9000E+01
       -3  1    3    3    0  502 -.69467714E+02 0.96086079E+02 -.47306302E+02 0.12765749E+03 0.50000000E+00 0.0000E+00 0.9000E+01
       21  1    1    2  503  501 -.11723856E+03 0.17281334E+03 0.11501267E+04 0.11689317E+04 0.75000000E+00 0.0000E+00 0.9000E+01
#aMCatNLO 2  0  0  1  2 0.11377652D+02 0.00000000D+00  -5  6  0 0.00000000D+00 0.00000000D+00 0.00000000D+00 0.00000000D+00 0.00000000D+00
  <mgrwgt>
 0.1542878423D+00    1    2    0
 0.349074617482505D+03 0.000000000000000D+00 0.000000000000000D+00 0.349074617482505D+03
 0.349074617482505D+03 0.000000000000000D+00 0.000000000000000D+00 -.349074617482505D+03
 0.355389113548187D+03 0.119155152603523D+03 -.309965490184358D+03 0.199966630058010D+02
 0.181725707699566D+03 -.265464384394272D+02 0.179776228819321D+03 0.164306399451542D+00
 0.161034413717257D+03 -.926087141640959D+02 0.130189261365037D+03 -.201609694052525D+02
 0.000000000000000D+00 -.000000000000000D+00 0.000000000000000D+00 0.000000000000000D+00
 0.180909964849755D+04 0.000000000000000D+00 0.000000000000000D+00 0.180909964849755D+04
 0.371902379870219D+03 0.000000000000000D+00 0.000000000000000D+00 -.371902379870219D+03
 0.467682507687607D+03 0.186783107636457D+03 -.409651232351703D+03 0.199966630058010D+02
 0.140723165347560D+03 -.523189433501052D-01 0.140723059700861D+03 0.164306399451542D+00
 0.120306673797345D+03 -.694922296146871D+02 0.961148328615349D+02 -.201609694052525D+02
 0.145228968153526D+04 -.117238559078419D+03 0.172813339789308D+03 0.143719726862733D+04
0.324805964512D-01 0.000000000000D+00 0.000000000000D+00 0.608798878421D-04 0.230191492470D-07  6 2 -1 25 4 -3 21 2 0.22337776D+00 0.71289373D-01 0.21874877D+06 0.21874877D+06 0.21874877D+06 0.10948490D+01  1  2  1  1  6  1        2 0.154287842307D+00 0.100000000000D+01
  </mgrwgt>
  </event>
  <event>
  7     66 0.16549492E-05 0.34984827E+02 0.75467711E-02 0.91039298E-01
        2 -1    0    0  503    0 0.00000000E+00 0.00000000E+00 0.85473453E+03 0.85473459E+03 0.32000000E+00 0.0000E+00 0.9000E+01
       -1 -1    0    0    0  501 0.00000000E+00 0.00000000E+00 -.79355304E+03 0.79355311E+03 0.32000000E+00 0.0000E+00 0.9000E+01
       24  2    1    2    0    0 0.48455735E+03 0.43805138E+03 -.22798980E+03 0.69650250E+03 0.80321524E+02 0.0000E+00 0.0000E+00
       25  1    1    2    0    0 -.53025767E+03 -.40128635E+03 0.20664673E+02 0.67694606E+03 0.12500000E+03 0.0000E+00 0.9000E+01
        4  1    3    3  502    0 0.11450135E+03 0.12471354E+03 -.26331543E+02 0.17134695E+03 0.15500000E+01 0.0000E+00 0.9000E+01
       -3  1    3    3    0  502 0.37005600E+03 0.31333784E+03 -.20165826E+03 0.52515555E+03 0.50000000E+00 0.0000E+00 0.9000E+01
       21  1    1    2  503  501 0.45700320E+02 -.36765026E+02 0.26850662E+03 0.27483914E+03 0.75000000E+00 0.0000E+00 0.9000E+01
#aMCatNLO 2  0  0  1  2 0.27897037D+01 0.00000000D+00  -5  6  0 0.00000000D+00 0.00000000D+00 0.00000000D+00 0.00000000D+00 0.00000000D+00
  <mgrwgt>
 0.1095507085D-02    1    2    0
 0.678221396916935D+03 0.000000000000000D+00 0.000000000000000D+00 0.678221396916935D+03
 0.678221396916935D+03 0.000000000000000D+00 0.000000000000000D+00 -.678221396916935D+03
 0.681602834308119D+03 -.507197463357922D+03 -.419837846825243D+03 0.124275256078165D+03
 0.169766451269837D+03 0.120074231231218D+03 0.120011023675588D+03 -.425637549496891D+00
 0.505073508255914D+03 0.387123232126704D+03 0.299826823149655D+03 -.123849618528669D+03
 0.000000000000000D+00 0.000000000000000D+00 -.000000000000000D+00 0.000000000000000D+00
 0.995161553704289D+03 0.000000000000000D+00 0.000000000000000D+00 0.995161553704289D+03
 0.681574176390057D+03 0.000000000000000D+00 0.000000000000000D+00 -.681574176390057D+03
 0.687948599982958D+03 -.530257672964466D+03 -.401286353128945D+03 0.124275256078165D+03
 0.169132407858097D+03 0.114367925844481D+03 0.124601636259663D+03 -.425637549496891D+00
 0.500629285018229D+03 0.370189426915662D+03 0.313449742714872D+03 -.123849618528669D+03
 0.319025437235063D+03 0.457003202043222D+02 -.367650258455903D+02 0.313587377314232D+03
0.360476305016D-03 0.000000000000D+00 0.000000000000D+00 0.267644448155D-03 0.509367785729D-06  6 2 -1 25 4 -3 21 2 0.13149754D+00 0.12208501D+00 0.48266613D+06 0.48266613D+06 0.48266613D+06 0.10695950D+01  1  2  1  1  6  1        2 0.109550708527D-02 0.100000000000D+01
  </mgrwgt>
  </event>
  <event>
  7     66 0.16549492E-05 0.60492592E+02 0.75467711E-02 0.95094978E-01
        2 -1    0    0  501    0 0.00000000E+00 0.00000000E+00 0.92360412E+03 0.92360418E+03 0.32000000E+00 0.0000E+00 0.9000E+01
       21 -1    0    0  503  501 0.00000000E+00 0.00000000E+00 -.31948572E+03 0.31948660E+03 0.75000000E+00 0.0000E+00 0.9000E+01
       24  2    1    2    0    0 -.39733144E+03 0.25222388E+03 0.47376678E+03 0.67206005E+03 0.75634567E+02 0.0000E+00 0.0000E+00
       25  1    1    2    0    0 0.38734279E+03 -.24789349E+03 0.18804389E+03 0.51231936E+03 0.12500000E+03 0.0000E+00 0.9000E+01
        4  1    3    3  502    0 -.21533940E+03 0.15937187E+03 0.31359143E+03 0.41244689E+03 0.15500000E+01 0.0000E+00 0.9000E+01
        1  1    1    2  503    0 0.99886478E+01 -.43303965E+01 -.57692266E+02 0.58711373E+02 0.32000000E+00 0.0000E+00 0.9000E+01
       -3  1    3    3    0  502 -.18199204E+03 0.92852016E+02 0.16017534E+03 0.25961315E+03 0.50000000E+00 0.0000E+00 0.9000E+01
#aMCatNLO 2  0  0  2  1 0.35671400D+02 0.00000000D+00  -5  6  0 0.00000000D+00 0.00000000D+00 0.00000000D+00 0.00000000D+00 0.00000000D+00
  <mgrwgt>
 0.9682790806D-03    1    2    0
 0.491081125771911D+03 0.000000000000000D+00 0.000000000000000D+00 0.491081125771911D+03
 0.491081125771911D+03 0.000000000000000D+00 0.000000000000000D+00 -.491081125771911D+03
 0.496123272543650D+03 0.392362497256300D+03 -.250069689754419D+03 -.118448818366200D+03
 0.283092529157646D+03 -.212378752388325D+03 0.158085358185218D+03 0.100228065562009D+03
 0.000000000000000D+00 0.000000000000000D+00 -.000000000000000D+00 -.000000000000000D+00
 0.202946449842526D+03 -.179983744867976D+03 0.919843315692012D+02 0.182207528041909D+02
 0.491382157295404D+03 0.000000000000000D+00 0.000000000000000D+00 0.491382157295404D+03
 0.600507415562491D+03 0.000000000000000D+00 0.000000000000000D+00 -.600507415562491D+03
 0.491060832967399D+03 0.387342791254364D+03 -.247893487541657D+03 -.118448818366200D+03
 0.285966830068358D+03 -.215272347073468D+03 0.159339823517295D+03 0.100228065562009D+03
 0.109666984145289D+03 0.998864782941760D+01 -.433039654125194D+01 -.109125258267087D+03
 0.205194925676849D+03 -.182059092010313D+03 0.928840605656132D+02 0.182207528041909D+02
0.548675254112D-05 0.000000000000D+00 0.000000000000D+00 0.159880667712D-04 0.252739129736D-07  6 2 21 25 4 1 -3 2 0.14209295D+00 0.49151698D-01 0.23023666D+06 0.23023666D+06 0.23023666D+06 0.10931600D+01  1  2  1  6  5  2       -1 0.968279080580D-03 0.100000000000D+01
  </mgrwgt>
  </event>
  <event>
  7     66 0.16549492E-05 0.56659496E+02 0.75467711E-02 0.94800887E-01
        2 -1    0    0  503    0 0.00000000E+00 0.00000000E+00 0.12163397E+04 0.12163398E+04 0.32000000E+00 0.0000E+00 0.9000E+01
       -1 -1    0    0    0  501 0.00000000E+00 0.00000000E+00 -.35163417E+03 0.35163431E+03 0.32000000E+00 0.0000E+00 0.9000E+01
       24  2    1    2    0    0 0.32696143E+03 0.35622034E+03 0.29867506E+03 0.57335655E+03 0.75724725E+02 0.0000E+00 0.0000E+00
       25  1    1    2    0    0 -.31628681E+03 -.35229185E+03 0.65579835E+02 0.49403706E+03 0.12500000E+03 0.0000E+00 0.9000E+01
        4  1    3    3  502    0 0.19023094E+03 0.21541712E+03 0.21989520E+03 0.36186827E+03 0.15500000E+01 0.0000E+00 0.9000E+01
       -3  1    3    3    0  502 0.13673049E+03 0.14080322E+03 0.78779852E+02 0.21148827E+03 0.50000000E+00 0.0000E+00 0.9000E+01
       21  1    1    2  503  501 -.10674614E+02 -.39284884E+01 0.50045069E+03 0.50058050E+03 0.75000000E+00 0.0000E+00 0.9000E+01
#aMCatNLO 2  0  0  1  2 0.17576248D+03 0.00000000D+00  -5  6  0 0.00000000D+00 0.00000000D+00 0.00000000D+00 0.00000000D+00 0.00000000D+00
  <mgrwgt>
 0.5578514025D-02    1    2    0
 0.501626877305855D+03 0.000000000000000D+00 0.000000000000000D+00 0.501626877305855D+03
 0.501626877305855D+03 0.000000000000000D+00 0.000000000000000D+00 -.501626877305855D+03
 0.506556221578843D+03 -.321650983217500D+03 -.354265982060207D+03 -.109592265102820D+03
 0.302229170472423D+03 0.186951165086207D+03 0.214178503771973D+03 0.102563647942912D+03
 0.194468362560445D+03 0.134699818131294D+03 0.140087478288234D+03 0.702861715990777D+01
 0.000000000000000D+00 -.000000000000000D+00 -.000000000000000D+00 0.000000000000000D+00
 0.852426395792543D+03 0.000000000000000D+00 0.000000000000000D+00 0.852426395792543D+03
 0.501751328888321D+03 0.000000000000000D+00 0.000000000000000D+00 -.501751328888321D+03
 0.501779196935853D+03 -.316286814299830D+03 -.352291852030796D+03 -.109592265102820D+03
 0.305076422685745D+03 0.190181925135423D+03 0.215367493255501D+03 0.102563647942912D+03
 0.196462613314350D+03 0.136779502878291D+03 0.140852847196963D+03 0.702861715990777D+01
 0.350859491744915D+03 -.106746137138841D+02 -.392848842166779D+01 0.350675066904221D+03
0.518043883984D-03 0.000000000000D+00 0.000000000000D+00 0.169968206383D-04 0.956374009609D-06  6 2 -1 25 4 -3 21 2 0.18712906D+00 0.54097535D-01 0.24240640D+06 0.24240640D+06 0.24240640D+06 0.10914683D+01  1  2  1  1  6  1        2 0.557851402496D-02 0.100000000000D+01
  </mgrwgt>
  </event>
  <event>
  7     66 0.16549492E-05 0.44676264E+02 0.75467711E-02 0.93300294E-01
        2 -1    0    0  503    0 0.00000000E+00 0.00000000E+00 0.41626879E+03 0.41626891E+03 0.32000000E+00 0.0000E+00 0.9000E+01
       -1 -1    0    0    0  501 0.00000000E+00 0.00000000E+00 -.83966926E+03 0.83966932E+03 0.32000000E+00 0.0000E+00 0.9000E+01
       24  2    1    2    0    0 0.48583163E+03 0.25562402E+03 -.19626617E+03 0.58876153E+03 0.82120184E+02 0.0000E+00 0.0000E+00
       25  1    1    2    0    0 -.48675483E+03 -.24149017E+03 -.27182330E+03 0.62029080E+03 0.12500000E+03 0.0000E+00 0.9000E+01
        4  1    3    3  502    0 0.33455537E+03 0.21438484E+03 -.12520984E+03 0.41661500E+03 0.15500000E+01 0.0000E+00 0.9000E+01
       -3  1    3    3    0  502 0.15127626E+03 0.41239184E+02 -.71056326E+02 0.17214653E+03 0.50000000E+00 0.0000E+00 0.9000E+01
       21  1    1    2  503  501 0.92320400E+00 -.14133853E+02 0.44688999E+02 0.46885896E+02 0.75000000E+00 0.0000E+00 0.9000E+01
#aMCatNLO 2  0  0  1  2 0.21026449D+01 0.00000000D+00  -5  6  0 0.00000000D+00 0.00000000D+00 0.00000000D+00 0.00000000D+00 0.00000000D+00
  <mgrwgt>
 0.1356128432D-02    1    2    0
 0.557337235262530D+03 0.000000000000000D+00 0.000000000000000D+00 0.557337235262530D+03
 0.557337235262530D+03 0.000000000000000D+00 0.000000000000000D+00 -.557337235262530D+03
 0.561321033228951D+03 -.486291069834181D+03 -.248590177704479D+03 -.343543489765219D+02
 0.396827022355970D+03 0.334843508931499D+03 0.209331333192387D+03 0.391395342619807D+02
 0.156526414940139D+03 0.151447560902683D+03 0.392588445120914D+02 -.478518528545883D+01
 0.000000000000000D+00 0.000000000000000D+00 -.000000000000000D+00 0.000000000000000D+00
 0.626266303521367D+03 0.000000000000000D+00 0.000000000000000D+00 0.626266303521367D+03
 0.558110328648941D+03 0.000000000000000D+00 0.000000000000000D+00 -.558110328648941D+03
 0.558617032912065D+03 -.486754832840765D+03 -.241490167236757D+03 -.343543489765219D+02
 0.399236011067046D+03 0.334513861608158D+03 0.214378090724029D+03 0.391395342619807D+02
 0.156911412459813D+03 0.151317767234973D+03 0.412459292650792D+02 -.478518528545883D+01
 0.696121757313839D+02 0.923203997634188D+00 -.141338527523507D+02 0.681559748724255D+02
0.209240541570D-03 0.000000000000D+00 0.000000000000D+00 0.693713546584D-04 0.217611515781D-05  6 2 -1 25 4 -3 21 2 0.64041134D-01 0.12917943D+00 0.31689857D+06 0.31689857D+06 0.31689857D+06 0.10827955D+01  1  2  1  1  6  1        2 0.135612843241D-02 0.100000000000D+01
  </mgrwgt>
  </event>
  <event>
  7     66 0.16549492E-05 0.82757791E+02 0.75467711E-02 0.92858602E-01
        2 -1    0    0  503    0 0.00000000E+00 0.00000000E+00 0.11475845E+04 0.11475846E+04 0.32000000E+00 0.0000E+00 0.9000E+01
       -1 -1    0    0    0  501 0.00000000E+00 0.00000000E+00 -.51475164E+03 0.51475174E+03 0.32000000E+00 0.0000E+00 0.9000E+01
       24  2    1    2    0    0 -.46734324E+03 0.12467157E+03 0.25734700E+03 0.55376432E+03 0.80465726E+02 0.0000E+00 0.0000E+00
       25  1    1    2    0    0 0.53824058E+03 -.19191245E+03 -.12540843E+03 0.59823539E+03 0.12500000E+03 0.0000E+00 0.9000E+01
        4  1    3    3  502    0 -.45604817E+02 0.36982723E+02 0.41764238E+02 0.72070627E+02 0.15500000E+01 0.0000E+00 0.9000E+01
       -3  1    3    3    0  502 -.42173843E+03 0.87688851E+02 0.21558276E+03 0.48169369E+03 0.50000000E+00 0.0000E+00 0.9000E+01
       21  1    1    2  503  501 -.70897335E+02 0.67240877E+02 0.50089430E+03 0.51033659E+03 0.75000000E+00 0.0000E+00 0.9000E+01
#aMCatNLO 2  0  0  1  2 0.21026449D+01 0.00000000D+00  -5  6  0 0.00000000D+00 0.00000000D+00 0.00000000D+00 0.00000000D+00 0.00000000D+00
  <mgrwgt>
 0.3367017033D-03    1    2    0
 0.570120114065999D+03 0.000000000000000D+00 0.000000000000000D+00 0.570120114065999D+03
 0.570120114065999D+03 0.000000000000000D+00 0.000000000000000D+00 -.570120114065999D+03
 0.574132543572522D+03 0.501288139289344D+03 -.156865795591457D+03 -.195208865501392D+03
 0.728175752095137D+02 -.498063554784353D+02 0.410832622922511D+02 0.336733095013694D+02
 0.493290109349963D+03 -.451481783810909D+03 0.115782533299206D+03 0.161535556000022D+03
 0.000000000000000D+00 -.000000000000000D+00 0.000000000000000D+00 0.000000000000000D+00
 0.102288192401328D+04 0.000000000000000D+00 0.000000000000000D+00 0.102288192401328D+04
 0.577506055300920D+03 0.000000000000000D+00 0.000000000000000D+00 -.577506055300920D+03
 0.616656153416606D+03 0.538240579430013D+03 -.191912451474801D+03 -.195208865501392D+03
 0.675649082241747D+02 -.454500197750496D+02 0.369516001414517D+02 0.336733095013694D+02
 0.460198243271237D+03 -.421893225098395D+03 0.877199742006996D+02 0.161535556000022D+03
 0.455968674402180D+03 -.708973345565688D+02 0.672408771326497D+02 0.445375868712358D+03
0.617163577782D-04 0.000000000000D+00 0.000000000000D+00 0.126888432330D-03 0.941763139791D-07  6 2 -1 25 4 -3 21 2 0.17655138D+00 0.79192530D-01 0.34348249D+06 0.34348249D+06 0.34348249D+06 0.10802294D+01  1  2  1  1  6  1        2 0.336701703268D-03 0.100000000000D+01
  </mgrwgt>
  </event>
  <event>
  6     66 -.16549492E-05 0.13119926E+02 0.75467711E-02 0.92302100E-01
        2 -1    0    0  501    0 0.00000000E+00 0.00000000E+00 0.21353759E+04 0.21353760E+04 0.32000000E+00 0.0000E+00 0.9000E+01
       -1 -1    0    0    0  501 0.00000000E+00 0.00000000E+00 -.17233187E+03 0.17233216E+03 0.32000000E+00 0.0000E+00 0.9000E+01
       24  2    1    2    0    0 -.19966904E+03 0.56172636E+03 0.88890409E+03 0.10728778E+04 0.74243409E+02 0.0000E+00 0.0000E+00
       25  1    1    2    0    0 0.19966904E+03 -.56172636E+03 0.10741400E+04 0.12348303E+04 0.12500000E+03 0.0000E+00 0.9000E+01
        4  1    3    3  502    0 -.29943171E+01 0.18693112E+02 0.10764547E+02 0.21832919E+02 0.15500000E+01 0.0000E+00 0.9000E+01
       -3  1    3    3    0  502 -.19667472E+03 0.54303324E+03 0.87813955E+03 0.10510449E+04 0.50000000E+00 0.0000E+00 0.9000E+01
#aMCatNLO 1  0  0  2  2 0.28023150D+02 0.00000000D+00  -5  6  0 0.00000000D+00 0.00000000D+00 0.00000000D+00 0.00000000D+00 0.00000000D+00
  <mgrwgt>
 -.6463404016D-04    7    4    0
 0.606624839156786D+03 0.000000000000000D+00 0.000000000000000D+00 0.606624839156786D+03
 0.606624839156786D+03 0.000000000000000D+00 0.000000000000000D+00 -.606624839156786D+03
 0.610792537100432D+03 0.199669036467783D+03 -.561726356749751D+03 0.451475291268562D+02
 0.238599342439851D+02 -.290868518055750D+01 0.184571495798073D+02 -.148381145040843D+02
 0.578597206969155D+03 -.196760351287226D+03 0.543269207169944D+03 -.303094146227719D+02
 0.000000000000000D+00 -.000000000000000D+00 0.000000000000000D+00 -.000000000000000D+00
 0.607465738677977D+03 0.000000000000000D+00 0.000000000000000D+00 0.607465738677977D+03
 0.895879554279370D+03 0.000000000000000D+00 0.000000000000000D+00 -.895879554279370D+03
 0.624644357002463D+03 0.202964036443643D+03 -.575606526421708D+03 0.451475291268562D+02
 0.234359920618378D+02 -.278254350810154D+01 0.179257784632001D+02 -.148381145040843D+02
 0.565492919781117D+03 -.193708979778072D+03 0.530415321103319D+03 -.303094146227719D+02
 0.289772024111929D+03 -.647251315746905D+01 0.272654268551893D+02 -.288413815601394D+03
 0.606624839156786D+03 0.000000000000000D+00 0.000000000000000D+00 0.606624839156786D+03
 0.606624839156786D+03 0.000000000000000D+00 0.000000000000000D+00 -.606624839156786D+03
 0.610792537100432D+03 0.199669036467783D+03 -.561726356749751D+03 0.451475291268562D+02
 0.238599342439851D+02 -.290868518055750D+01 0.184571495798073D+02 -.148381145040843D+02
 0.000000000000000D+00 -.000000000000000D+00 0.000000000000000D+00 -.000000000000000D+00
 0.578597206969155D+03 -.196760351287226D+03 0.543269207169944D+03 -.303094146227719D+02
 0.607465738677977D+03 0.000000000000000D+00 0.000000000000000D+00 0.607465738677977D+03
 0.895879554279370D+03 0.000000000000000D+00 0.000000000000000D+00 -.895879554279370D+03
 0.624644357002463D+03 0.202964036443643D+03 -.575606526421708D+03 0.451475291268562D+02
 0.234359920618378D+02 -.278254350810154D+01 0.179257784632001D+02 -.148381145040843D+02
 0.289772024111929D+03 -.647251315746905D+01 0.272654268551893D+02 -.288413815601394D+03
 0.565492919781117D+03 -.193708979778072D+03 0.530415321103319D+03 -.303094146227719D+02
0.181619927806D-06 0.000000000000D+00 0.000000000000D+00 0.503486361824D-06 0.000000000000D+00  6 2 -1 25 4 -3 21 0 0.32851940D+00 0.26512620D-01 0.36337351D+06 0.36337351D+06 0.36337351D+06 0.10784472D+01  1  2  2  2  6  2       -1 0.174574778986D-05 0.100000000000D+01
0.772580320442D-07 0.000000000000D+00 -.697468344401D-09 0.503486361824D-06 0.000000000000D+00  6 2 -1 25 4 -3 21 2 0.32851940D+00 0.26512620D-01 0.36337351D+06 0.36337351D+06 0.36337351D+06 0.10784472D+01  1  2  3  2  6  2       -1 0.863693017438D-06 0.100000000000D+01
-.539226784510D-07 0.000000000000D+00 0.000000000000D+00 0.503486361824D-06 0.000000000000D+00  6 2 -1 25 4 -3 21 2 0.32851940D+00 0.26512620D-01 0.36337351D+06 0.36337351D+06 0.36337351D+06 0.10784472D+01  1  2 15  2  6  2       -1 -.602819404370D-06 0.100000000000D+01
-.844937633209D-05 0.000000000000D+00 0.000000000000D+00 0.503486361824D-06 0.000000000000D+00  6 2 -1 25 4 -3 21 2 0.32851940D+00 0.26512620D-01 0.36337351D+06 0.36337351D+06 0.36337351D+06 0.10784472D+01  1  2  4  2  6  2       -1 -.944583643492D-04 0.100000000000D+01
-.133581363964D-04 0.000000000000D+00 -.915465926242D-07 0.503486361824D-06 0.000000000000D+00  6 2 -1 25 4 -3 21 2 0.32851940D+00 0.39176596D-01 0.36337351D+06 0.36337351D+06 0.36337351D+06 0.10784472D+01  1  2  5  2  6  2       -1 -.766314809328D-04 0.100000000000D+01
0.124400414917D-04 0.000000000000D+00 0.849855068841D-07 0.503486361824D-06 0.000000000000D+00  6 2 -1 25 4 -3 21 2 0.32851940D+00 0.26512620D-01 0.36337351D+06 0.36337351D+06 0.36337351D+06 0.10784472D+01  1  2  6  2  6  2       -1 0.139071326162D-03 0.100000000000D+01
-.621679210434D-06 0.000000000000D+00 -.428123994334D-08 0.503486361824D-06 0.000000000000D+00  6 2 21 25 4 1 -3 2 0.32851940D+00 0.39176596D-01 0.36337351D+06 0.36337351D+06 0.36337351D+06 0.10784472D+01  3  4  5  6  5  2       -1 -.346221424402D-04 0.100000000000D+01
  </mgrwgt>
  </event>
  <event>
  7     66 0.16549492E-05 0.41885676E+02 0.75467711E-02 0.89905888E-01
        2 -1    0    0  501    0 0.00000000E+00 0.00000000E+00 0.10922673E+04 0.10922673E+04 0.32000000E+00 0.0000E+00 0.9000E+01
       -1 -1    0    0    0  503 0.00000000E+00 0.00000000E+00 -.83569254E+03 0.83569260E+03 0.32000000E+00 0.0000E+00 0.9000E+01
       24  2    1    2    0    0 0.27868146E+03 -.71354325E+03 -.25291559E+03 0.81067631E+03 0.80140288E+02 0.0000E+00 0.0000E+00
       25  1    1    2    0    0 -.23077638E+03 0.66442688E+03 0.64686145E+03 0.96373001E+03 0.12500000E+03 0.0000E+00 0.9000E+01
        4  1    3    3  502    0 0.17408024E+03 -.50151050E+03 -.20718301E+03 0.56986306E+03 0.15500000E+01 0.0000E+00 0.9000E+01
       -3  1    3    3    0  502 0.10460122E+03 -.21203275E+03 -.45732583E+02 0.24081325E+03 0.50000000E+00 0.0000E+00 0.9000E+01
       21  1    1    2  501  503 -.47905079E+02 0.49116374E+02 -.13737113E+03 0.15355359E+03 0.75000000E+00 0.0000E+00 0.9000E+01
#aMCatNLO 2  0  0  2  2 0.28023150D+02 0.00000000D+00  -5  6  0 0.00000000D+00 0.00000000D+00 0.00000000D+00 0.00000000D+00 0.00000000D+00
  <mgrwgt>
 0.4024115199D-03    1    2    0
 0.864380871618570D+03 0.000000000000000D+00 0.000000000000000D+00 0.864380871618570D+03
 0.864380871618570D+03 0.000000000000000D+00 0.000000000000000D+00 -.864380871618570D+03
 0.867042468659442D+03 -.254434030595010D+03 0.688682722111981D+03 0.443978687324818D+03
 0.612979903446845D+03 0.156811267216590D+03 -.483778244289780D+03 -.342218057465600D+03
 0.248739371130854D+03 0.976227633784201D+02 -.204904477822201D+03 -.101760629859218D+03
 0.000000000000000D+00 -.000000000000000D+00 0.000000000000000D+00 -.000000000000000D+00
 0.871516570281364D+03 0.000000000000000D+00 0.000000000000000D+00 0.871516570281364D+03
 0.104736753340755D+04 0.000000000000000D+00 0.000000000000000D+00 -.104736753340755D+04
 0.841108130046992D+03 -.230776377267394D+03 0.664426877337015D+03 0.443978687324818D+03
 0.631552569567847D+03 0.174047872597778D+03 -.501450682835720D+03 -.342218057465600D+03
 0.257461978006329D+03 0.104633583174361D+03 -.212092568473487D+03 -.101760629859218D+03
 0.188761426067744D+03 -.479050785047446D+02 0.491163739721913D+02 -.175850963126184D+03
0.219403526901D-03 0.000000000000D+00 0.000000000000D+00 0.137593890071D-03 0.180620233125D-06  6 2 -1 25 4 -3 21 2 0.16804098D+00 0.12856798D+00 0.60084984D+06 0.60084984D+06 0.60084984D+06 0.10629161D+01  1  2  1  2  6  2       -1 0.402411519914D-03 0.100000000000D+01
  </mgrwgt>
  </event>
  <event>
  7     66 0.16549492E-05 0.13545216E+03 0.75467711E-02 0.88203189E-01
        2 -1    0    0  503    0 0.00000000E+00 0.00000000E+00 0.22040248E+04 0.22040248E+04 0.32000000E+00 0.0000E+00 0.9000E+01
       -1 -1    0    0    0  501 0.00000000E+00 0.00000000E+00 -.51784959E+03 0.51784969E+03 0.32000000E+00 0.0000E+00 0.9000E+01
       24  2    1    2    0    0 -.15550753E+03 -.83604769E+03 0.36025890E+03 0.92716510E+03 0.81794352E+02 0.0000E+00 0.0000E+00
       25  1    1    2    0    0 0.29366445E+03 0.76484302E+03 0.52996225E+03 0.98372183E+03 0.12500000E+03 0.0000E+00 0.9000E+01
        4  1    3    3  502    0 -.56329540E+02 -.15431918E+03 0.88395824E+02 0.18655737E+03 0.15500000E+01 0.0000E+00 0.9000E+01
       -3  1    3    3    0  502 -.99177985E+02 -.68172851E+03 0.27186308E+03 0.74060774E+03 0.50000000E+00 0.0000E+00 0.9000E+01
       21  1    1    2  503  501 -.13815692E+03 0.71204674E+02 0.79595407E+03 0.81098759E+03 0.75000000E+00 0.0000E+00 0.9000E+01
#aMCatNLO 2  0  0  1  2 0.40313375D+01 0.00000000D+00  -5  6  0 0.00000000D+00 0.00000000D+00 0.00000000D+00 0.00000000D+00 0.00000000D+00
  <mgrwgt>
 0.1208602509D-03    1    2    0
 0.841848818526042D+03 0.000000000000000D+00 0.000000000000000D+00 0.841848818526042D+03
 0.841848818526042D+03 0.000000000000000D+00 0.000000000000000D+00 -.841848818526042D+03
 0.844502110855098D+03 0.224997939005578D+03 0.800233040627138D+03 0.810050823751491D+02
 0.162852031141908D+03 -.696796964767827D+02 -.147182226433143D+03 0.170767916528363D+01
 0.676343495055077D+03 -.155318242528795D+03 -.653050814193994D+03 -.827127615404328D+02
 0.000000000000000D+00 -.000000000000000D+00 0.000000000000000D+00 0.000000000000000D+00
 0.133043356778874D+04 0.000000000000000D+00 0.000000000000000D+00 0.133043356778874D+04
 0.857880322156323D+03 0.000000000000000D+00 0.000000000000000D+00 -.857880322156323D+03
 0.832712721170466D+03 0.293664447304449D+03 0.764843019853022D+03 0.810050823751491D+02
 0.164051260668881D+03 -.562960158823626D+02 -.154080039442785D+03 0.170767916528363D+01
 0.694092361481975D+03 -.992115093189979D+02 -.681967654485626D+03 -.827127615404328D+02
 0.497457546623743D+03 -.138156922103089D+03 0.712046740753897D+02 0.472553245632418D+03
0.968791632069D-04 0.000000000000D+00 0.000000000000D+00 0.723198601558D-04 0.197156624060D-07  6 2 -1 25 4 -3 21 2 0.33908064D+00 0.79669152D-01 0.84399019D+06 0.84399019D+06 0.84399019D+06 0.10528029D+01  1  2  1  1  6  1        2 0.120860250941D-03 0.100000000000D+01
  </mgrwgt>
  </event>
  <event>
  7     66 0.16549492E-05 0.70666416E+02 0.75467711E-02 0.93267672E-01
        2 -1    0    0  503    0 0.00000000E+00 0.00000000E+00 0.28137367E+04 0.28137367E+04 0.32000000E+00 0.0000E+00 0.9000E+01
       -1 -1    0    0    0  501 0.00000000E+00 0.00000000E+00 -.11372412E+03 0.11372457E+03 0.32000000E+00 0.0000E+00 0.9000E+01
       24  2    1    2    0    0 -.46704657E+03 0.29795726E+03 0.13413694E+04 0.14534894E+04 0.80304191E+02 0.0000E+00 0.0000E+00
       25  1    1    2    0    0 0.45730071E+03 -.30053281E+03 0.13386336E+04 0.14515540E+04 0.12500000E+03 0.0000E+00 0.9000E+01
        4  1    3    3  502    0 -.26530696E+03 0.13064931E+03 0.77151121E+03 0.82624995E+03 0.15500000E+01 0.0000E+00 0.9000E+01
       -3  1    3    3    0  502 -.20173961E+03 0.16730794E+03 0.56985816E+03 0.62723950E+03 0.50000000E+00 0.0000E+00 0.9000E+01
       21  1    1    2  503  501 0.97458620E+01 0.25755564E+01 0.20009551E+02 0.22417849E+02 0.75000000E+00 0.0000E+00 0.9000E+01
#aMCatNLO 2  0  0  1  2 0.58756339D+01 0.00000000D+00  -5  6  0 0.00000000D+00 0.00000000D+00 0.00000000D+00 0.00000000D+00 0.00000000D+00
  <mgrwgt>
 0.7459573259D-02    1    2    0
 0.560526429169852D+03 0.000000000000000D+00 0.000000000000000D+00 0.560526429169852D+03
 0.560526429169852D+03 0.000000000000000D+00 0.000000000000000D+00 -.560526429169852D+03
 0.564619116222754D+03 0.462194740392460D+03 -.299239457259256D+03 -.123108768815268D+01
 0.294628315638104D+03 -.262672095800092D+03 0.131271189732720D+03 0.240226811553081D+02
 0.261805426478845D+03 -.199522644592367D+03 0.167968267526536D+03 -.227915934671554D+02
 0.000000000000000D+00 0.000000000000000D+00 0.000000000000000D+00 -.000000000000000D+00
 0.564793649401617D+03 0.000000000000000D+00 0.000000000000000D+00 0.564793649401617D+03
 0.566534121851520D+03 0.000000000000000D+00 0.000000000000000D+00 -.566534121851520D+03
 0.561311342430399D+03 0.457300706621042D+03 -.300532812331726D+03 -.123108768815268D+01
 0.296622175536855D+03 -.265242059023788D+03 0.130592020947487D+03 0.240226811553081D+02
 0.263164660832900D+03 -.201804509619237D+03 0.167365234967908D+03 -.227915934671554D+02
 0.102295924529816D+02 0.974586202198248D+01 0.257555641633143D+01 -.174047244990310D+01
0.824288035945D-03 0.000000000000D+00 0.000000000000D+00 0.333589906817D-03 0.205218915748D-04  6 2 -1 25 4 -3 21 2 0.43287209D+00 0.17495630D-01 0.31878112D+06 0.31878112D+06 0.31878112D+06 0.10826062D+01  1  2  1  1  6  1        2 0.745957325912D-02 0.100000000000D+01
  </mgrwgt>
  </event>
  <event>
  6     66 0.16549492E-05 0.12203222E+02 0.75467711E-02 0.92790917E-01
        2 -1    0    0  501    0 0.00000000E+00 0.00000000E+00 0.36427405E+04 0.36427405E+04 0.32000000E+00 0.0000E+00 0.9000E+01
       -1 -1    0    0    0  501 0.00000000E+00 0.00000000E+00 -.89847866E+02 0.89848436E+02 0.32000000E+00 0.0000E+00 0.9000E+01
       24  2    1    2    0    0 -.48334997E+03 -.28447411E+03 0.16271162E+04 0.17229142E+04 0.79834235E+02 0.0000E+00 0.0000E+00
       25  1    1    2    0    0 0.48334997E+03 0.28447411E+03 0.19257764E+04 0.20096747E+04 0.12500000E+03 0.0000E+00 0.9000E+01
        4  1    3    3  502    0 -.47101067E+03 -.28723189E+03 0.15615533E+04 0.16561414E+04 0.15500000E+01 0.0000E+00 0.9000E+01
       -3  1    3    3    0  502 -.12339308E+02 0.27577816E+01 0.65562937E+02 0.66772843E+02 0.50000000E+00 0.0000E+00 0.9000E+01
#aMCatNLO 1  0  0  1  2 0.39766148D+02 0.00000000D+00  -5  6  0 0.00000000D+00 0.00000000D+00 0.00000000D+00 0.00000000D+00 0.00000000D+00
  <mgrwgt>
 0.1434873113D-03    7    2    0
 0.572095751863025D+03 0.000000000000000D+00 0.000000000000000D+00 0.572095751863025D+03
 0.572095751863025D+03 0.000000000000000D+00 0.000000000000000D+00 -.572095751863025D+03
 0.576138560683712D+03 0.483349973928628D+03 0.284474108244109D+03 0.419276227398231D+02
 0.553825629309372D+03 -.471024502838884D+03 -.287244205396870D+03 -.484717636487896D+02
 0.142273137329664D+02 -.123254710897436D+02 0.277009715276187D+01 0.654414090896652D+01
 0.000000000000000D+00 0.000000000000000D+00 0.000000000000000D+00 0.000000000000000D+00
 0.853954565135153D+03 0.000000000000000D+00 0.000000000000000D+00 0.853954565135153D+03
 0.573845489852408D+03 0.000000000000000D+00 0.000000000000000D+00 -.573845489852408D+03
 0.558318369170182D+03 0.471140687864894D+03 0.269003583698121D+03 0.419276227398231D+02
 0.572138249508468D+03 -.483142384736515D+03 -.302598910689551D+03 -.484717636487896D+02
 0.144257087681336D+02 -.126338414994969D+02 0.237935751668148D+01 0.654414090896652D+01
 0.282917727540777D+03 0.246355383711175D+02 0.312159694747484D+02 0.280109075282745D+03
0.355931061498D-05 0.000000000000D+00 0.000000000000D+00 0.104821986577D-04 0.000000000000D+00  6 2 -1 25 4 -3 21 0 0.56042166D+00 0.13822794D-01 0.32429849D+06 0.32429849D+06 0.32429849D+06 0.10820583D+01  1  2  2  1  6  1        2 0.111597848664D-04 0.100000000000D+01
0.174824420041D-05 0.000000000000D+00 -.136686899495D-07 0.104821986577D-04 0.000000000000D+00  6 2 -1 25 4 -3 21 2 0.56042166D+00 0.13822794D-01 0.32429849D+06 0.32429849D+06 0.32429849D+06 0.10820583D+01  1  2  3  1  6  1        2 0.641790571893D-05 0.100000000000D+01
-.115349701519D-05 0.000000000000D+00 0.000000000000D+00 0.104821986577D-04 0.000000000000D+00  6 2 -1 25 4 -3 21 2 0.56042166D+00 0.13822794D-01 0.32429849D+06 0.32429849D+06 0.32429849D+06 0.10820583D+01  1  2 15  1  6  1        2 -.423455435390D-05 0.100000000000D+01
-.372183340794D-04 0.000000000000D+00 0.000000000000D+00 0.104821986577D-04 0.000000000000D+00  6 2 -1 25 4 -3 21 2 0.56042166D+00 0.13822794D-01 0.32429849D+06 0.32429849D+06 0.32429849D+06 0.10820583D+01  1  2  4  1  6  1        2 -.136630660111D-03 0.100000000000D+01
-.719861718488D-04 0.000000000000D+00 -.104492204761D-05 0.104821986577D-04 0.000000000000D+00  6 2 -1 25 4 -3 21 2 0.83669702D+00 0.13822794D-01 0.32429849D+06 0.32429849D+06 0.32429849D+06 0.10820583D+01  1  2  5  1  6  1        2 -.285372880464D-05 0.100000000000D+01
0.734472517220D-04 0.000000000000D+00 0.105975887838D-05 0.104821986577D-04 0.000000000000D+00  6 2 -1 25 4 -3 21 2 0.56042166D+00 0.13822794D-01 0.32429849D+06 0.32429849D+06 0.32429849D+06 0.10820583D+01  1  2  6  1  6  1        2 0.269629115175D-03 0.100000000000D+01
-.339562401327D-05 0.000000000000D+00 -.498085599047D-07 0.104821986577D-04 0.000000000000D+00  6 21 -1 25 4 -3 -2 2 0.83669702D+00 0.13822794D-01 0.32429849D+06 0.32429849D+06 0.32429849D+06 0.10820583D+01  1  2  5  5  6  1        2 -.551158095768D-09 0.100000000000D+01
  </mgrwgt>
  </event>
  <event>
  7     66 0.16549492E-05 0.60098660E+02 0.75467711E-02 0.94786370E-01
        2 -1    0    0  503    0 0.00000000E+00 0.00000000E+00 0.68808442E+03 0.68808450E+03 0.32000000E+00 0.0000E+00 0.9000E+01
       -1 -1    0    0    0  501 0.00000000E+00 0.00000000E+00 -.50745538E+03 0.50745548E+03 0.32000000E+00 0.0000E+00 0.9000E+01
       24  2    1    2    0    0 0.46407480E+03 -.13147946E+03 -.23581659E+03 0.54288092E+03 0.80361469E+02 0.0000E+00 0.0000E+00
       25  1    1    2    0    0 -.45479929E+03 0.12463727E+03 0.41593757E+03 0.64109742E+03 0.12500000E+03 0.0000E+00 0.9000E+01
        4  1    3    3  502    0 0.19401445E+03 -.22372853E+02 -.68465723E+02 0.20695920E+03 0.15500000E+01 0.0000E+00 0.9000E+01
       -3  1    3    3    0  502 0.27006035E+03 -.10910661E+03 -.16735086E+03 0.33592172E+03 0.50000000E+00 0.0000E+00 0.9000E+01
       21  1    1    2  503  501 -.92755113E+01 0.68421889E+01 0.50806381E+00 0.11561630E+02 0.75000000E+00 0.0000E+00 0.9000E+01
#aMCatNLO 2  0  0  1  2 0.39766148D+02 0.00000000D+00  -5  6  0 0.00000000D+00 0.00000000D+00 0.00000000D+00 0.00000000D+00 0.00000000D+00
  <mgrwgt>
 0.1375638468D-01    1    2    0
 0.585070146381064D+03 0.000000000000000D+00 0.000000000000000D+00 0.585070146381064D+03
 0.585070146381064D+03 0.000000000000000D+00 0.000000000000000D+00 -.585070146381064D+03
 0.588987212722687D+03 -.459450693124379D+03 0.128068435517092D+03 0.322155976450184D+03
 0.218150354387341D+03 0.192185688323931D+03 -.210527020785484D+02 -.101049601968394D+03
 0.363002725652101D+03 0.267265004800448D+03 -.107015733438543D+03 -.221106374481790D+03
 0.000000000000000D+00 -.000000000000000D+00 0.000000000000000D+00 -.000000000000000D+00
 0.590263438797591D+03 0.000000000000000D+00 0.000000000000000D+00 0.590263438797591D+03
 0.591528973706482D+03 0.000000000000000D+00 0.000000000000000D+00 -.591528973706482D+03
 0.584624937238071D+03 -.454799289873996D+03 0.124637273751300D+03 0.322155976450184D+03
 0.219807463827303D+03 0.193921456328074D+03 -.223331115570442D+02 -.101049601968394D+03
 0.365764657298925D+03 0.270153344848687D+03 -.109146351105224D+03 -.221106374481790D+03
 0.115953541397723D+02 -.927551130276554D+01 0.684218891096865D+01 -.126553490889062D+01
0.118142698375D-02 0.000000000000D+00 0.000000000000D+00 0.232905581487D-03 0.111379240391D-04  6 2 -1 25 4 -3 21 2 0.10585698D+00 0.78068471D-01 0.24302553D+06 0.24302553D+06 0.24302553D+06 0.10913847D+01  1  2  1  1  6  1        2 0.137563846784D-01 0.100000000000D+01
  </mgrwgt>
  </event>
  <event>
  7     66 0.16549492E-05 0.83106347E+02 0.75467711E-02 0.92489477E-01
        2 -1    0    0  501    0 0.00000000E+00 0.00000000E+00 0.22491319E+04 0.22491319E+04 0.32000000E+00 0.0000E+00 0.9000E+01
       21 -1    0    0  503  501 0.00000000E+00 0.00000000E+00 -.17829244E+03 0.17829401E+03 0.75000000E+00 0.0000E+00 0.9000E+01
       24  2    1    2    0    0 -.82791967E+02 -.12129641E+03 0.11016314E+03 0.20076859E+03 0.81269816E+02 0.0000E+00 0.0000E+00
       25  1    1    2    0    0 -.33912408E+03 0.40243501E+03 0.11434284E+04 0.12649160E+04 0.12500000E+03 0.0000E+00 0.9000E+01
        4  1    3    3  502    0 -.52223844E+02 -.15344554E+02 0.18941693E+02 0.57653928E+02 0.15500000E+01 0.0000E+00 0.9000E+01
        1  1    1    2  503    0 0.42191604E+03 -.28113860E+03 0.81724795E+03 0.96174133E+03 0.32000000E+00 0.0000E+00 0.9000E+01
       -3  1    3    3    0  502 -.30568123E+02 -.10595186E+03 0.91221443E+02 0.14311467E+03 0.50000000E+00 0.0000E+00 0.9000E+01
#aMCatNLO 2  0  0  2  1 0.10687657D+02 0.00000000D+00  -5  6  0 0.00000000D+00 0.00000000D+00 0.00000000D+00 0.00000000D+00 0.00000000D+00
  <mgrwgt>
 0.1594282072D-02    1    2    0
 0.282704632140707D+03 0.000000000000000D+00 0.000000000000000D+00 0.282704632140707D+03
 0.282704632140707D+03 0.000000000000000D+00 0.000000000000000D+00 -.282704632140707D+03
 0.290681348509088D+03 -.701858072003476D+02 0.223231280972415D+03 0.118795597705102D+03
 0.760475016300889D+02 -.253153238551090D+01 -.484123483253437D+02 -.585923064709444D+02
 0.000000000000000D+00 0.000000000000000D+00 -.000000000000000D+00 -.000000000000000D+00
 0.198680414142238D+03 0.727173395858585D+02 -.174818932647071D+03 -.602032912341572D+02
 0.628133072366868D+03 0.000000000000000D+00 0.000000000000000D+00 0.628133072366868D+03
 0.638407847073338D+03 0.000000000000000D+00 0.000000000000000D+00 -.638407847073338D+03
 0.553801835716266D+03 -.339124079615439D+03 0.402435010695610D+03 0.118795597705102D+03
 0.799607653710680D+02 -.522146931559060D+02 -.153065815836358D+02 -.585923064709444D+02
 0.507107119777942D+03 0.421916044621971D+03 -.281138597892147D+03 -.102747747064702D+02
 0.125671198574929D+03 -.305772718506265D+02 -.105989831219827D+03 -.602032912341572D+02
0.161925638266D-04 0.000000000000D+00 0.000000000000D+00 0.401785164145D-04 0.114510964398D-08  6 2 21 25 4 1 -3 2 0.34602039D+00 0.27429727D-01 0.36762260D+06 0.36762260D+06 0.36762260D+06 0.10780803D+01  1  2  1  6  5  2       -1 0.159428207173D-02 0.100000000000D+01
  </mgrwgt>
  </event>
  <event>
  7     66 0.16549492E-05 0.24982965E+02 0.75467711E-02 0.92988554E-01
        2 -1    0    0  503    0 0.00000000E+00 0.00000000E+00 0.19191041E+04 0.19191041E+04 0.32000000E+00 0.0000E+00 0.9000E+01
       -1 -1    0    0    0  501 0.00000000E+00 0.00000000E+00 -.23924076E+03 0.23924097E+03 0.32000000E+00 0.0000E+00 0.9000E+01
       24  2    1    2    0    0 -.53862685E+03 -.17681098E+03 0.88062486E+03 0.10507524E+04 0.84849620E+02 0.0000E+00 0.0000E+00
       25  1    1    2    0    0 0.53758182E+03 0.16092391E+03 0.38244039E+03 0.69048995E+03 0.12500000E+03 0.0000E+00 0.9000E+01
        4  1    3    3  502    0 -.47032392E+03 -.14539783E+03 0.80840790E+03 0.94650455E+03 0.15500000E+01 0.0000E+00 0.9000E+01
       -3  1    3    3    0  502 -.68302929E+02 -.31413147E+02 0.72216960E+02 0.10424785E+03 0.50000000E+00 0.0000E+00 0.9000E+01
       21  1    1    2  503  501 0.10450287E+01 0.15887073E+02 0.41679808E+03 0.41710274E+03 0.75000000E+00 0.0000E+00 0.9000E+01
#aMCatNLO 2  0  0  1  2 0.15656221D+03 0.00000000D+00  -5  6  0 0.00000000D+00 0.00000000D+00 0.00000000D+00 0.00000000D+00 0.00000000D+00
  <mgrwgt>
 0.6275232837D-03    1    2    0
 0.599236516037559D+03 0.000000000000000D+00 0.000000000000000D+00 0.599236516037559D+03
 0.599236516037559D+03 0.000000000000000D+00 0.000000000000000D+00 -.599236516037559D+03
 0.602751632177142D+03 0.538106221945212D+03 0.168896090332464D+03 -.172047477942767D+03
 0.520839555225411D+03 -.469862330073396D+03 -.138473217904138D+03 0.176998307869527D+03
 0.748818446725645D+02 -.682438918718164D+02 -.304228724283262D+02 -.495082992675970D+01
 0.000000000000000D+00 0.000000000000000D+00 0.000000000000000D+00 0.000000000000000D+00
 0.765632105470046D+03 0.000000000000000D+00 0.000000000000000D+00 0.765632105470046D+03
 0.599670368931756D+03 0.000000000000000D+00 0.000000000000000D+00 -.599670368931756D+03
 0.600096704481255D+03 0.537581823184643D+03 0.160923905757566D+03 -.172047477942767D+03
 0.523130831790666D+03 -.470317463742652D+03 -.145392398288209D+03 0.176998307869527D+03
 0.753512470332876D+02 -.683093881149303D+02 -.314185806151653D+02 -.495082992675970D+01
 0.166723691096594D+03 0.104502867293849D+01 0.158870731458080D+02 0.165961736538291D+03
0.739158400674D-04 0.000000000000D+00 0.000000000000D+00 0.872833951312D-05 0.221190695088D-06  6 2 -1 25 4 -3 21 2 0.29524639D+00 0.36806237D-01 0.33541046D+06 0.33541046D+06 0.33541046D+06 0.10809850D+01  1  2  1  1  6  1        2 0.627523283711D-03 0.100000000000D+01
  </mgrwgt>
  </event>
  <event>
  7     66 0.16549492E-05 0.55433671E+02 0.75467711E-02 0.93788563E-01
        2 -1    0    0  503    0 0.00000000E+00 0.00000000E+00 0.14214649E+04 0.14214649E+04 0.32000000E+00 0.0000E+00 0.9000E+01
       -1 -1    0    0    0  501 0.00000000E+00 0.00000000E+00 -.15772804E+04 0.15772804E+04 0.32000000E+00 0.0000E+00 0.9000E+01
       24  2    1    2    0    0 0.28767622E+03 -.44415873E+03 -.80027670E+03 0.96261508E+03 0.78424613E+02 0.0000E+00 0.0000E+00
       25  1    1    2    0    0 -.27192124E+03 0.41639620E+03 -.60112858E+03 0.79013134E+03 0.12500000E+03 0.0000E+00 0.9000E+01
        4  1    3    3  502    0 0.13240175E+03 -.25970782E+03 -.39289840E+03 0.48923402E+03 0.15500000E+01 0.0000E+00 0.9000E+01
       -3  1    3    3    0  502 0.15527447E+03 -.18445091E+03 -.40737830E+03 0.47338106E+03 0.50000000E+00 0.0000E+00 0.9000E+01
       21  1    1    2  503  501 -.15754979E+02 0.27762531E+02 0.12455897E+04 0.12459989E+04 0.75000000E+00 0.0000E+00 0.9000E+01
#aMCatNLO 2  0  0  1  2 0.15656221D+03 0.00000000D+00  -5  6  0 0.00000000D+00 0.00000000D+00 0.00000000D+00 0.00000000D+00 0.00000000D+00
  <mgrwgt>
 0.2109705636D-01    1    2    0
 0.526109366511849D+03 0.000000000000000D+00 0.000000000000000D+00 0.526109366511849D+03
 0.526109366511849D+03 0.000000000000000D+00 0.000000000000000D+00 -.526109366511849D+03
 0.530611557870504D+03 -.279749830302033D+03 0.430191301015700D+03 0.509813919206452D+02
 0.282746414687711D+03 0.128048731526625D+03 -.252073097830223D+03 -.286543599686314D+01
 0.238860760465482D+03 0.151701098775408D+03 -.178118203185477D+03 -.481159559237821D+02
 0.000000000000000D+00 -.000000000000000D+00 0.000000000000000D+00 0.000000000000000D+00
 0.425905155128665D+04 0.000000000000000D+00 0.000000000000000D+00 0.425905155128665D+04
 0.526419659613107D+03 0.000000000000000D+00 0.000000000000000D+00 -.526419659613107D+03
 0.515316461695496D+03 -.271921237380237D+03 0.416396198390186D+03 0.509813919206452D+02
 0.291444670544590D+03 0.132346453914322D+03 -.259646300573870D+03 -.286543599686314D+01
 0.245941693637287D+03 0.155329762497633D+03 -.184512428679334D+03 -.481159559237821D+02
 0.373276838502238D+04 -.157549790317184D+02 0.277625308630180D+02 0.373263189167354D+04
0.141362348358D+00 0.000000000000D+00 0.000000000000D+00 0.723333226977D-04 0.182155255811D-05  6 2 -1 25 4 -3 21 2 0.21868689D+00 0.24265851D+00 0.29015971D+06 0.29015971D+06 0.29015971D+06 0.10856251D+01  1  2  1  1  6  1        2 0.210970563621D-01 0.100000000000D+01
  </mgrwgt>
  </event>
  <event>
  6     66 0.16549492E-05 0.13791327E+02 0.75467711E-02 0.94384397E-01
        2 -1    0    0  501    0 0.00000000E+00 0.00000000E+00 0.66304221E+03 0.66304229E+03 0.32000000E+00 0.0000E+00 0.9000E+01
       -1 -1    0    0    0  503 0.00000000E+00 0.00000000E+00 -.63242551E+03 0.63242559E+03 0.32000000E+00 0.0000E+00 0.9000E+01
       25  1    1    2    0    0 0.92161358E+02 -.49311040E+03 -.37411138E+03 0.63815038E+03 0.12500000E+03 0.0000E+00 0.9000E+01
        4  1    1    2  502    0 -.65112811E+02 0.32360553E+03 0.28857914E+03 0.43845244E+03 0.15500000E+01 0.0000E+00 0.9000E+01
       -3  1    1    2    0  502 -.18116540E+02 0.16140704E+03 0.12409848E+03 0.20440432E+03 0.50000000E+00 0.0000E+00 0.9000E+01
       21  1    1    2  501  503 -.89320074E+01 0.80978250E+01 -.79495404E+01 0.14460748E+02 0.75000000E+00 0.0000E+00 0.9000E+01
#aMCatNLO 2  0  0  2  2 0.16768414D+03 0.00000000D+00  -5  6  0 0.00000000D+00 0.00000000D+00 0.00000000D+00 0.00000000D+00 0.00000000D+00
  <mgrwgt>
 0.6772160174D-03    1    2    0
 0.640184849323250D+03 0.000000000000000D+00 0.000000000000000D+00 0.640184849323250D+03
 0.640184849323250D+03 0.000000000000000D+00 0.000000000000000D+00 -.640184849323250D+03
 0.645975936883246D+03 0.876421580518664D+02 -.489013806240068D+03 -.393502554592471D+03
 0.432005062849396D+03 -.680722859668635D+02 0.325953823694356D+03 0.275224713697345D+03
 0.202388698913858D+03 -.195698720850030D+02 0.163059982545712D+03 0.118277840895126D+03
 0.000000000000000D+00 -.000000000000000D+00 0.000000000000000D+00 -.000000000000000D+00
 0.643362710468100D+03 0.000000000000000D+00 0.000000000000000D+00 0.643362710468100D+03
 0.651751286977986D+03 0.000000000000000D+00 0.000000000000000D+00 -.651751286977986D+03
 0.649708792646513D+03 0.921614812977758D+02 -.493111058623094D+03 -.393502554592471D+03
 0.429487807266891D+03 -.650674155185448D+02 0.323229585587200D+03 0.275224713697345D+03
 0.201229860582447D+03 -.181620583654771D+02 0.161783648058595D+03 0.118277840895126D+03
 0.146875369502352D+02 -.893200741375385D+01 0.809782497729838D+01 -.838857650988607D+01
0.891286383375D-04 0.000000000000D+00 0.000000000000D+00 0.142708979881D-06 0.622903428775D-08  6 2 -1 25 4 -3 21 2 0.10200499D+00 0.97294802D-01 0.26089550D+06 0.26089550D+06 0.26089550D+06 0.10890681D+01  1  2  1  2  6  2       -1 0.677216017389D-03 0.100000000000D+01
  </mgrwgt>
  </event>
  <event>
  7     66 0.16549492E-05 0.18113592E+02 0.75467711E-02 0.94983180E-01
        2 -1    0    0  503    0 0.00000000E+00 0.00000000E+00 0.19214961E+04 0.19214961E+04 0.32000000E+00 0.0000E+00 0.9000E+01
       -1 -1    0    0    0  501 0.00000000E+00 0.00000000E+00 -.13829060E+03 0.13829097E+03 0.32000000E+00 0.0000E+00 0.9000E+01
       24  2    1    2    0    0 -.22353337E+03 0.41672705E+03 0.58563618E+03 0.75692951E+03 0.79648858E+02 0.0000E+00 0.0000E+00
       25  1    1    2    0    0 0.22935354E+03 -.39875558E+03 0.10386269E+04 0.11427948E+04 0.12500000E+03 0.0000E+00 0.9000E+01
        4  1    3    3  502    0 -.30730677E+02 0.41533536E+02 0.10769426E+03 0.11945655E+03 0.15500000E+01 0.0000E+00 0.9000E+01
       -3  1    3    3    0  502 -.19280269E+03 0.37519352E+03 0.47794192E+03 0.63747297E+03 0.50000000E+00 0.0000E+00 0.9000E+01
       21  1    1    2  503  501 -.58201733E+01 -.17971479E+02 0.15894241E+03 0.16006280E+03 0.75000000E+00 0.0000E+00 0.9000E+01
#aMCatNLO 2  0  0  1  2 0.72554217D+02 0.00000000D+00  -5  6  0 0.00000000D+00 0.00000000D+00 0.00000000D+00 0.00000000D+00 0.00000000D+00
  <mgrwgt>
 0.1359577627D-02    1    2    0
 0.492535514424830D+03 0.000000000000000D+00 0.000000000000000D+00 0.492535514424830D+03
 0.492535514424830D+03 0.000000000000000D+00 0.000000000000000D+00 -.492535514424830D+03
 0.497246372474167D+03 0.226433641352890D+03 -.407771607294177D+03 0.118655287649192D+03
 0.520597708422274D+02 -.309680672132283D+02 0.404381901822227D+02 0.107680698367256D+02
 0.435764885533266D+03 -.195465574139662D+03 0.367333417111954D+03 -.129423357485918D+03
 0.000000000000000D+00 -.000000000000000D+00 -.000000000000000D+00 0.000000000000000D+00
 0.537217255520633D+03 0.000000000000000D+00 0.000000000000000D+00 0.537217255520633D+03
 0.494626737356477D+03 0.000000000000000D+00 0.000000000000000D+00 -.494626737356477D+03
 0.491236330021825D+03 0.229353538299299D+03 -.398755575654800D+03 0.118655287649192D+03
 0.526241191776581D+02 -.306588395757235D+02 0.413930205117461D+02 0.107680698367256D+02
 0.441391691295447D+03 -.192874525450861D+03 0.375334034046784D+03 -.129423357485918D+03
 0.465918523821810D+02 -.582017327271431D+01 -.179714789037303D+02 0.425905181641561D+02
0.618100055719D-04 0.000000000000D+00 0.000000000000D+00 0.110109157590D-03 0.197151611140D-05  6 2 -1 25 4 -3 21 2 0.29561301D+00 0.21275378D-01 0.23478027D+06 0.23478027D+06 0.23478027D+06 0.10925172D+01  1  2  1  1  6  1        2 0.135957762665D-02 0.100000000000D+01
  </mgrwgt>
  </event>
  <event>
  7     66 0.16549492E-05 0.27969620E+02 0.75467711E-02 0.94049033E-01
        2 -1    0    0  501    0 0.00000000E+00 0.00000000E+00 0.11771555E+04 0.11771555E+04 0.32000000E+00 0.0000E+00 0.9000E+01
       21 -1    0    0  503  501 0.00000000E+00 0.00000000E+00 -.30432723E+03 0.30432815E+03 0.75000000E+00 0.0000E+00 0.9000E+01
       24  2    1    2    0    0 0.39810774E+03 -.31304381E+03 0.60483612E+03 0.79218493E+03 0.72415737E+02 0.0000E+00 0.0000E+00
       25  1    1    2    0    0 -.40763482E+03 0.31649358E+03 0.33084477E+03 0.62563376E+03 0.12500000E+03 0.0000E+00 0.9000E+01
        4  1    3    3  502    0 0.31639053E+03 -.28238693E+03 0.49246018E+03 0.64989598E+03 0.15500000E+01 0.0000E+00 0.9000E+01
        1  1    1    2  503    0 0.95270848E+01 -.34497678E+01 -.62852671E+02 0.63664958E+02 0.32000000E+00 0.0000E+00 0.9000E+01
       -3  1    3    3    0  502 0.81717203E+02 -.30656882E+02 0.11237594E+03 0.14228896E+03 0.50000000E+00 0.0000E+00 0.9000E+01
#aMCatNLO 2  0  0  2  2 0.16768414D+03 0.00000000D+00  -5  6  0 0.00000000D+00 0.00000000D+00 0.00000000D+00 0.00000000D+00 0.00000000D+00
  <mgrwgt>
 0.3647482749D-03    1    2    0
 0.532590001942988D+03 0.000000000000000D+00 0.000000000000000D+00 0.532590001942988D+03
 0.532590001942988D+03 0.000000000000000D+00 0.000000000000000D+00 -.532590001942988D+03
 0.537462869053187D+03 -.402807024915094D+03 0.314745431541992D+03 -.109193175672193D+03
 0.436184511473212D+03 0.320252533909374D+03 -.283792884885936D+03 0.845981150018577D+02
 0.000000000000000D+00 0.000000000000000D+00 -.000000000000000D+00 -.000000000000000D+00
 0.915326233595781D+02 0.825544910057203D+02 -.309525466560561D+02 0.245950606703357D+02
 0.532797741015358D+03 0.000000000000000D+00 0.000000000000000D+00 0.532797741015358D+03
 0.672376965837410D+03 0.000000000000000D+00 0.000000000000000D+00 -.672376965837410D+03
 0.542109291401544D+03 -.407634820623338D+03 0.316493581650377D+03 -.109193175672193D+03
 0.432420760278156D+03 0.316368172162445D+03 -.282386353247221D+03 0.845981150018577D+02
 0.139946512087836D+03 0.952708483509134D+01 -.344976784303754D+01 -.139579224822052D+03
 0.906981430852321D+02 0.817395636258019D+02 -.306574605601185D+02 0.245950606703357D+02
0.271515835971D-05 0.000000000000D+00 0.000000000000D+00 0.256290363201D-05 0.518292541299D-08  6 2 21 25 4 1 -3 2 0.18110085D+00 0.46819632D-01 0.27693657D+06 0.27693657D+06 0.27693657D+06 0.10871315D+01  1  2  1  6  5  2       -1 0.364748274906D-03 0.100000000000D+01
  </mgrwgt>
  </event>
  <event>
  6     66 0.16549492E-05 0.52607568E+02 0.75467711E-02 0.94102613E-01
        2 -1    0    0  501    0 0.00000000E+00 0.00000000E+00 0.10415921E+04 0.10415922E+04 0.32000000E+00 0.0000E+00 0.9000E+01
       -1 -1    0    0    0  501 0.00000000E+00 0.00000000E+00 -.28584673E+03 0.28584691E+03 0.32000000E+00 0.0000E+00 0.9000E+01
       25  1    1    2    0    0 0.24072391E+03 0.43029008E+03 0.19303999E+03 0.54404686E+03 0.12500000E+03 0.0000E+00 0.9000E+01
        4  1    1    2  503    0 -.86889381E+02 -.17737521E+03 0.15380796E+03 0.25034181E+03 0.15500000E+01 0.0000E+00 0.9000E+01
       -3  1    1    2    0  502 -.16299035E+03 -.27372241E+03 0.38923077E+03 0.50298177E+03 0.50000000E+00 0.0000E+00 0.9000E+01
       21  1    1    2  502  503 0.91558211E+01 0.20807546E+02 0.19666674E+02 0.30068648E+02 0.75000000E+00 0.0000E+00 0.9000E+01
#aMCatNLO 2  0  0  4  5 0.32171192D+00 0.00000000D+00  -5  6  0 0.00000000D+00 0.00000000D+00 0.00000000D+00 0.00000000D+00 0.00000000D+00
  <mgrwgt>
 0.3649540299D-02    1    2    0
 0.545651770538411D+03 0.000000000000000D+00 0.000000000000000D+00 0.545651770538411D+03
 0.545651770538411D+03 -.000000000000000D+00 -.000000000000000D+00 -.545651770538411D+03
 0.549938463393979D+03 0.250844502643535D+03 0.450674550222347D+03 -.144141592871503D+03
 0.212446677681575D+03 -.940242119440227D+02 -.189425701661241D+03 0.202717038354203D+02
 0.328918400001269D+03 -.156820290699512D+03 -.261248848561106D+03 0.123869889036082D+03
 0.000000000000000D+00 0.000000000000000D+00 0.000000000000000D+00 0.000000000000000D+00
 0.545651770538411D+03 0.000000000000000D+00 0.000000000000000D+00 0.545651770538411D+03
 0.545651770538411D+03 -.000000000000000D+00 -.000000000000000D+00 -.545651770538411D+03
 0.527938582223697D+03 0.240657277549500D+03 0.430150876356647D+03 -.141945218068234D+03
 0.197621211398851D+03 -.867049764311290D+02 -.177065465875698D+03 0.135724371816088D+02
 0.342642536027415D+03 -.163167343406034D+03 -.274035926352617D+03 0.125238319252450D+03
 0.231012114268608D+02 0.921504228766278D+01 0.209505158716676D+02 0.313446163417478D+01
0.185737193043D-03 0.000000000000D+00 0.000000000000D+00 0.765532416470D-04 0.771882686531D-06  6 2 -1 25 4 -3 21 2 0.16024496D+00 0.43976437D-01 0.27430109D+06 0.27430109D+06 0.27430109D+06 0.10874412D+01  1  2  1  3  6  4        4 0.364954029915D-02 0.100000000000D+01
  </mgrwgt>
  </event>
  <event>
  7     66 0.16549492E-05 0.46595765E+02 0.75467711E-02 0.92062505E-01
        2 -1    0    0  503    0 0.00000000E+00 0.00000000E+00 0.27285016E+04 0.27285016E+04 0.32000000E+00 0.0000E+00 0.9000E+01
       -1 -1    0    0    0  501 0.00000000E+00 0.00000000E+00 -.22888393E+03 0.22888415E+03 0.32000000E+00 0.0000E+00 0.9000E+01
       24  2    1    2    0    0 -.57065421E+03 0.21457282E+03 0.36957741E+03 0.71770614E+03 0.82625157E+02 0.0000E+00 0.0000E+00
       25  1    1    2    0    0 0.58528544E+03 -.21463201E+03 0.17942759E+04 0.19035958E+04 0.12500000E+03 0.0000E+00 0.9000E+01
        4  1    3    3  502    0 -.39348247E+03 0.16926362E+03 0.22050847E+03 0.48177278E+03 0.15500000E+01 0.0000E+00 0.9000E+01
       -3  1    3    3    0  502 -.17717174E+03 0.45309196E+02 0.14906894E+03 0.23593336E+03 0.50000000E+00 0.0000E+00 0.9000E+01
       21  1    1    2  503  501 -.14631227E+02 0.59196784E-01 0.33576442E+03 0.33608389E+03 0.75000000E+00 0.0000E+00 0.9000E+01
#aMCatNLO 2  0  0  1  2 0.72554217D+02 0.00000000D+00  -5  6  0 0.00000000D+00 0.00000000D+00 0.00000000D+00 0.00000000D+00 0.00000000D+00
  <mgrwgt>
 0.1316266540D-02    1    2    0
 0.739720989220043D+03 0.000000000000000D+00 0.000000000000000D+00 0.739720989220043D+03
 0.739720989220043D+03 0.000000000000000D+00 0.000000000000000D+00 -.739720989220043D+03
 0.742694435876467D+03 0.577912113614792D+03 -.214602182340376D+03 0.394884182202700D+03
 0.534941557404264D+03 -.398705386864251D+03 0.169275198391367D+03 -.313914624592564D+03
 0.201805985159355D+03 -.179206726750541D+03 0.453269839490090D+02 -.809695576101353D+02
 0.000000000000000D+00 -.000000000000000D+00 0.000000000000000D+00 0.000000000000000D+00
 0.843619472093745D+03 0.000000000000000D+00 0.000000000000000D+00 0.843619472093745D+03
 0.740272452238327D+03 0.000000000000000D+00 0.000000000000000D+00 -.740272452238327D+03
 0.748454715810569D+03 0.585285436975976D+03 -.214632014222078D+03 0.394884182202700D+03
 0.531017870387758D+03 -.393434510009229D+03 0.169253872841530D+03 -.313914624592564D+03
 0.200041740828276D+03 -.177219700018634D+03 0.453189445963995D+02 -.809695576101353D+02
 0.104377597305469D+03 -.146312269481129D+02 0.591967841484928D-01 0.103347019855418D+03
0.423502391227D-03 0.000000000000D+00 0.000000000000D+00 0.230576413945D-04 0.671285699415D-06  6 2 -1 25 4 -3 21 2 0.41976873D+00 0.35212867D-01 0.39794477D+06 0.39794477D+06 0.39794477D+06 0.10755889D+01  1  2  1  1  6  1        2 0.131626654046D-02 0.100000000000D+01
  </mgrwgt>
  </event>
  <event>
  7     66 0.16549492E-05 0.19440830E+02 0.75467711E-02 0.93097170E-01
        2 -1    0    0  503    0 0.00000000E+00 0.00000000E+00 0.49186253E+03 0.49186264E+03 0.32000000E+00 0.0000E+00 0.9000E+01
       -1 -1    0    0    0  501 0.00000000E+00 0.00000000E+00 -.74137728E+03 0.74137735E+03 0.32000000E+00 0.0000E+00 0.9000E+01
       24  2    1    2    0    0 0.39047503E+03 -.38383584E+03 -.92279925E+02 0.56105431E+03 0.80409310E+02 0.0000E+00 0.0000E+00
       25  1    1    2    0    0 -.39342595E+03 0.40467527E+03 -.21026382E+03 0.61512757E+03 0.12500000E+03 0.0000E+00 0.9000E+01
        4  1    3    3  502    0 0.34579056E+03 -.33300802E+03 -.10686662E+03 0.49182144E+03 0.15500000E+01 0.0000E+00 0.9000E+01
       -3  1    3    3    0  502 0.44684472E+02 -.50827817E+02 0.14586693E+02 0.69232872E+02 0.50000000E+00 0.0000E+00 0.9000E+01
       21  1    1    2  503  501 0.29509200E+01 -.20839431E+02 0.53028997E+02 0.57058101E+02 0.75000000E+00 0.0000E+00 0.9000E+01
#aMCatNLO 2  0  0  1  2 0.72554217D+02 0.00000000D+00  -5  6  0 0.00000000D+00 0.00000000D+00 0.00000000D+00 0.00000000D+00 0.00000000D+00
  <mgrwgt>
 0.5130155907D-03    1    2    0
 0.568205092827682D+03 0.000000000000000D+00 0.000000000000000D+00 0.568205092827682D+03
 0.568205092827682D+03 0.000000000000000D+00 0.000000000000000D+00 -.568205092827682D+03
 0.572235038630943D+03 -.391929325092206D+03 0.394106059646985D+03 -.538493947900247D+02
 0.487578192786689D+03 0.347044118124635D+03 -.341877452019514D+03 0.203145749862578D+02
 0.765969542377314D+02 0.448852069675712D+02 -.522286076274708D+02 0.335348198037669D+02
 0.000000000000000D+00 0.000000000000000D+00 -.000000000000000D+00 0.000000000000000D+00
 0.639912159759943D+03 0.000000000000000D+00 0.000000000000000D+00 0.639912159759943D+03
 0.569849082535818D+03 0.000000000000000D+00 0.000000000000000D+00 -.569849082535818D+03
 0.580577995739886D+03 -.393425953446767D+03 0.404675266074656D+03 -.538493947900247D+02
 0.480491309410315D+03 0.345787331271107D+03 -.333002008994499D+03 0.203145749862578D+02
 0.755357713247980D+02 0.446877021303209D+02 -.508338262249928D+02 0.335348198037669D+02
 0.731561658207623D+02 0.295092004533912D+01 -.208394308551646D+02 0.700630772241250D+02
0.703059105928D-04 0.000000000000D+00 0.000000000000D+00 0.792459824855D-04 0.112240560782D-05  6 2 -1 25 4 -3 21 2 0.75670917D-01 0.11405767D+00 0.32882649D+06 0.32882649D+06 0.32882649D+06 0.10816162D+01  1  2  1  1  6  1        2 0.513015590673D-03 0.100000000000D+01
  </mgrwgt>
  </event>
  <event>
  7     66 0.16549492E-05 0.49875304E+02 0.75467711E-02 0.93717827E-01
        2 -1    0    0  503    0 0.00000000E+00 0.00000000E+00 0.76197919E+03 0.76197925E+03 0.32000000E+00 0.0000E+00 0.9000E+01
       -1 -1    0    0    0  501 0.00000000E+00 0.00000000E+00 -.41707846E+03 0.41707858E+03 0.32000000E+00 0.0000E+00 0.9000E+01
       24  2    1    2    0    0 0.44421579E+03 0.20362226E+03 0.12576552E+03 0.51061419E+03 0.78231657E+02 0.0000E+00 0.0000E+00
       25  1    1    2    0    0 -.40803021E+03 -.27774937E+03 0.92800190E+02 0.51756183E+03 0.12500000E+03 0.0000E+00 0.9000E+01
        4  1    3    3  502    0 0.19401383E+03 0.55596199E+02 0.27225878E+02 0.20365646E+03 0.15500000E+01 0.0000E+00 0.9000E+01
       -3  1    3    3    0  502 0.25020196E+03 0.14802606E+03 0.98539646E+02 0.30695773E+03 0.50000000E+00 0.0000E+00 0.9000E+01
       21  1    1    2  503  501 -.36185580E+02 0.74127118E+02 0.12633501E+03 0.15088182E+03 0.75000000E+00 0.0000E+00 0.9000E+01
#aMCatNLO 2  0  0  1  2 0.72554217D+02 0.00000000D+00  -5  6  0 0.00000000D+00 0.00000000D+00 0.00000000D+00 0.00000000D+00 0.00000000D+00
  <mgrwgt>
 0.7645403216D-03    1    2    0
 0.500642268354083D+03 0.000000000000000D+00 0.000000000000000D+00 0.500642268354083D+03
 0.500642268354083D+03 0.000000000000000D+00 0.000000000000000D+00 -.500642268354083D+03
 0.505388575513328D+03 -.426337433751251D+03 -.240246544682501D+03 -.176239215246797D+02
 0.200179545868286D+03 0.186661531075925D+03 0.704166710381624D+02 -.164564832308672D+02
 0.295716415326552D+03 0.239675902675325D+03 0.169829873644338D+03 0.340804047555470D+02
 0.000000000000000D+00 -.000000000000000D+00 0.000000000000000D+00 0.000000000000000D+00
 0.614033432292060D+03 0.000000000000000D+00 0.000000000000000D+00 0.614033432292060D+03
 0.517567724866300D+03 0.000000000000000D+00 0.000000000000000D+00 -.517567724866300D+03
 0.509479117100212D+03 -.408030210954856D+03 -.277749374615748D+03 -.176239215246797D+02
 0.202390386504785D+03 0.193923499800246D+03 0.555403361031658D+02 -.164564832308672D+02
 0.292807036022150D+03 0.250292291415613D+03 0.148081920617260D+03 0.340804047555470D+02
 0.126924617531213D+03 -.361855802610026D+02 0.741271178953221D+02 0.964657074257593D+02
0.515026071666D-04 0.000000000000D+00 0.000000000000D+00 0.413544212286D-04 0.388768528012D-07  6 2 -1 25 4 -3 21 2 0.11722734D+00 0.64165797D-01 0.29387192D+06 0.29387192D+06 0.29387192D+06 0.10852156D+01  1  2  1  1  6  1        2 0.764540321587D-03 0.100000000000D+01
  </mgrwgt>
  </event>
  <event>
  6     66 0.16549492E-05 0.42671342E+02 0.75467711E-02 0.92817537E-01
        2 -1    0    0  501    0 0.00000000E+00 0.00000000E+00 0.21110037E+04 0.21110038E+04 0.32000000E+00 0.0000E+00 0.9000E+01
       -1 -1    0    0    0  503 0.00000000E+00 0.00000000E+00 -.19483107E+03 0.19483133E+03 0.32000000E+00 0.0000E+00 0.9000E+01
       25  1    1    2    0    0 0.78605808E+02 0.50572933E+03 0.58904015E+03 0.79027485E+03 0.12500000E+03 0.0000E+00 0.9000E+01
        4  1    1    2  502    0 -.56663853E+02 -.15462565E+03 0.38182131E+03 0.41582424E+03 0.15500000E+01 0.0000E+00 0.9000E+01
       -3  1    1    2    0  502 0.36288723E+02 -.40444237E+03 0.93591317E+03 0.10202079E+04 0.50000000E+00 0.0000E+00 0.9000E+01
       21  1    1    2  501  503 -.58230678E+02 0.53338687E+02 0.93980272E+01 0.79528063E+02 0.75000000E+00 0.0000E+00 0.9000E+01
#aMCatNLO 2  0  0  2  1 0.42714269D+02 0.00000000D+00  -5  6  0 0.00000000D+00 0.00000000D+00 0.00000000D+00 0.00000000D+00 0.00000000D+00
  <mgrwgt>
 0.1944594474D-03    1    2    0
 0.573240262905460D+03 0.000000000000000D+00 0.000000000000000D+00 0.573240262905460D+03
 0.573240262905460D+03 0.000000000000000D+00 0.000000000000000D+00 -.573240262905460D+03
 0.574475837707378D+03 0.499910574866283D+02 0.531940214363324D+03 -.170111700432577D+03
 0.168056941830516D+03 -.652961663382925D+02 -.146652646468340D+03 0.497247186294656D+02
 0.403947746273025D+03 0.153051088516642D+02 -.385287567894984D+03 0.120386981803112D+03
 0.000000000000000D+00 -.000000000000000D+00 0.000000000000000D+00 -.000000000000000D+00
 0.586960311653917D+03 0.000000000000000D+00 0.000000000000000D+00 0.586960311653917D+03
 0.700708426802981D+03 0.000000000000000D+00 0.000000000000000D+00 -.700708426802981D+03
 0.553628112440516D+03 0.786058175643029D+02 0.505729395730002D+03 -.170111700432577D+03
 0.171961516173463D+03 -.566714765687999D+02 -.154552771393491D+03 0.497247186294656D+02
 0.423607231562013D+03 0.362963367777170D+02 -.404515311428985D+03 0.120386981803112D+03
 0.138471878280907D+03 -.582306777732200D+02 0.533386870924747D+02 -.113748115149064D+03
0.206184185712D-04 0.000000000000D+00 0.000000000000D+00 0.148907138676D-06 0.150189841196D-09  6 2 -1 25 4 -3 21 2 0.32476927D+00 0.29973981D-01 0.34607834D+06 0.34607834D+06 0.34607834D+06 0.10799905D+01  1  2  1  2  6  2       -1 0.194459447429D-03 0.100000000000D+01
  </mgrwgt>
  </event>
  <event>
  7     66 0.16549492E-05 0.10282726E+03 0.75467711E-02 0.93755202E-01
        2 -1    0    0  503    0 0.00000000E+00 0.00000000E+00 0.23566852E+04 0.23566852E+04 0.32000000E+00 0.0000E+00 0.9000E+01
       -1 -1    0    0    0  501 0.00000000E+00 0.00000000E+00 -.23210178E+03 0.23210200E+03 0.32000000E+00 0.0000E+00 0.9000E+01
       24  2    1    2    0    0 0.34160506E+03 0.30785018E+03 0.23540121E+03 0.52296029E+03 0.81289456E+02 0.0000E+00 0.0000E+00
       25  1    1    2    0    0 -.42740095E+03 -.22657962E+03 0.64419657E+03 0.81524482E+03 0.12500000E+03 0.0000E+00 0.9000E+01
        4  1    3    3  502    0 0.31178616E+03 0.25813622E+03 0.18080478E+03 0.44332571E+03 0.15500000E+01 0.0000E+00 0.9000E+01
       -3  1    3    3    0  502 0.29818909E+02 0.49713958E+02 0.54596430E+02 0.79634572E+02 0.50000000E+00 0.0000E+00 0.9000E+01
       21  1    1    2  503  501 0.85795890E+02 -.81270562E+02 0.12449856E+04 0.12505821E+04 0.75000000E+00 0.0000E+00 0.9000E+01
#aMCatNLO 2  0  0  1  2 0.16318045D+00 0.00000000D+00  -5  6  0 0.00000000D+00 0.00000000D+00 0.00000000D+00 0.00000000D+00 0.00000000D+00
  <mgrwgt>
 0.4072885712D-03    1    2    0
 0.500783089157166D+03 0.000000000000000D+00 0.000000000000000D+00 0.500783089157166D+03
 0.500783089157166D+03 0.000000000000000D+00 0.000000000000000D+00 -.500783089157166D+03
 0.505284551332913D+03 -.383643000633322D+03 -.268029546024485D+03 0.143755654979805D+03
 0.439304215884236D+03 0.348915140149462D+03 0.222958214201809D+03 -.146751673885122D+03
 0.569774110971817D+02 0.347278604838599D+02 0.450713318226762D+02 0.299601890531678D+01
 0.000000000000000D+00 0.000000000000000D+00 -.000000000000000D+00 0.000000000000000D+00
 0.107166835966687D+04 0.000000000000000D+00 0.000000000000000D+00 0.107166835966687D+04
 0.510410353201153D+03 0.000000000000000D+00 0.000000000000000D+00 -.510410353201153D+03
 0.519904401979952D+03 -.427400954114555D+03 -.226579617974404D+03 0.143755654979805D+03
 0.430554615977106D+03 0.311787113967724D+03 0.258127912312453D+03 -.146751673885122D+03
 0.580550614867397D+02 0.298179503956829D+02 0.497222673371670D+02 0.299601890531678D+01
 0.573564633424228D+03 0.857958897511482D+02 -.812705616752159D+02 0.561258006465718D+03
0.784975118351D-04 0.000000000000D+00 0.000000000000D+00 0.426912881417D-04 0.260243288418D-07  6 2 -1 25 4 -3 21 2 0.36256680D+00 0.35707968D-01 0.29190392D+06 0.29190392D+06 0.29190392D+06 0.10854320D+01  1  2  1  1  6  1        2 0.407288571160D-03 0.100000000000D+01
  </mgrwgt>
  </event>
  <event>
  7     66 0.16549492E-05 0.59964557E+02 0.75467711E-02 0.94739670E-01
        2 -1    0    0  503    0 0.00000000E+00 0.00000000E+00 0.29520353E+04 0.29520354E+04 0.32000000E+00 0.0000E+00 0.9000E+01
       -1 -1    0    0    0  501 0.00000000E+00 0.00000000E+00 -.11339973E+03 0.11340018E+03 0.32000000E+00 0.0000E+00 0.9000E+01
       24  2    1    2    0    0 0.14305913E+03 -.45940829E+03 0.20718247E+04 0.21286281E+04 0.84130929E+02 0.0000E+00 0.0000E+00
       25  1    1    2    0    0 -.12864196E+03 0.45080022E+03 0.61152000E+03 0.78060957E+03 0.12500000E+03 0.0000E+00 0.9000E+01
        4  1    3    3  502    0 0.12500056E+03 -.26730897E+03 0.12089996E+04 0.12444925E+04 0.15500000E+01 0.0000E+00 0.9000E+01
       -3  1    3    3    0  502 0.18058568E+02 -.19209932E+03 0.86282510E+03 0.88413555E+03 0.50000000E+00 0.0000E+00 0.9000E+01
       21  1    1    2  503  501 -.14417164E+02 0.86080709E+01 0.15529089E+03 0.15619788E+03 0.75000000E+00 0.0000E+00 0.9000E+01
#aMCatNLO 2  0  0  1  2 0.55585659D+02 0.00000000D+00  -5  6  0 0.00000000D+00 0.00000000D+00 0.00000000D+00 0.00000000D+00 0.00000000D+00
  <mgrwgt>
 0.2223333933D-02    1    2    0
 0.561925922515453D+03 0.000000000000000D+00 0.000000000000000D+00 0.561925922515453D+03
 0.561925922515453D+03 0.000000000000000D+00 0.000000000000000D+00 -.561925922515453D+03
 0.565728464791367D+03 -.135865787059342D+03 0.455113358172180D+03 -.280777518678372D+03
 0.331169329199359D+03 0.120727546232199D+03 -.264702924768438D+03 0.158209815757874D+03
 0.226954051040181D+03 0.151382408271436D+02 -.190410433403742D+03 0.122567702920498D+03
 0.000000000000000D+00 -.000000000000000D+00 0.000000000000000D+00 0.000000000000000D+00
 0.593285199301568D+03 0.000000000000000D+00 0.000000000000000D+00 0.593285199301568D+03
 0.564240911765999D+03 0.000000000000000D+00 0.000000000000000D+00 -.564240911765999D+03
 0.560562760752892D+03 -.128641961379950D+03 0.450800221295465D+03 -.280777518678372D+03
 0.334782501367790D+03 0.124998839327432D+03 -.267253190040323D+03 0.158209815757874D+03
 0.228632016605361D+03 0.180602864402049D+02 -.192155102122022D+03 0.122567702920498D+03
 0.335488323415230D+02 -.144171643876865D+02 0.860807086687942D+01 0.290442875355693D+02
0.289083973541D-03 0.000000000000D+00 0.000000000000D+00 0.128272480190D-04 0.289413019479D-06  6 2 -1 25 4 -3 21 2 0.45415596D+00 0.17446020D-01 0.24502939D+06 0.24502939D+06 0.24502939D+06 0.10911159D+01  1  2  1  1  6  1        2 0.222333393252D-02 0.100000000000D+01
  </mgrwgt>
  </event>
  <event>
  7     66 0.16549492E-05 0.49468783E+02 0.75467711E-02 0.95078564E-01
       21 -1    0    0  501  503 0.00000000E+00 0.00000000E+00 0.40878924E+03 0.40878993E+03 0.75000000E+00 0.0000E+00 0.9000E+01
       -1 -1    0    0    0  501 0.00000000E+00 0.00000000E+00 -.61065068E+03 0.61065076E+03 0.32000000E+00 0.0000E+00 0.9000E+01
       24  2    1    2    0    0 -.43160652E+03 -.17590608E+03 -.10138983E+03 0.48394836E+03 0.81847334E+02 0.0000E+00 0.0000E+00
       25  1    1    2    0    0 0.43145916E+03 0.15982384E+03 -.13657949E+03 0.49596333E+03 0.12500000E+03 0.0000E+00 0.9000E+01
        4  1    3    3  502    0 -.28134574E+03 -.13710755E+03 -.10062121E+03 0.32875665E+03 0.15500000E+01 0.0000E+00 0.9000E+01
       -3  1    3    3    0  502 -.15026078E+03 -.38798532E+02 -.76862728E+00 0.15519172E+03 0.50000000E+00 0.0000E+00 0.9000E+01
       -2  1    1    2    0  503 0.14735992E+00 0.16082243E+02 0.36107885E+02 0.39529002E+02 0.32000000E+00 0.0000E+00 0.9000E+01
#aMCatNLO 2  0  0  1  2 0.55585659D+02 0.00000000D+00  -5  6  0 0.00000000D+00 0.00000000D+00 0.00000000D+00 0.00000000D+00 0.00000000D+00
  <mgrwgt>
 0.7677967547D-04    1    2    0
 0.475220702084053D+03 0.000000000000000D+00 0.000000000000000D+00 0.475220702084053D+03
 0.475220702084053D+03 0.000000000000000D+00 0.000000000000000D+00 -.475220702084053D+03
 0.479916422566000D+03 0.431533340494780D+03 0.167919811483502D+03 -.166338691021953D+02
 0.311348023633656D+03 -.281253882639707D+03 -.131811248175796D+03 -.214392204851778D+02
 0.159176957968449D+03 -.150279457855073D+03 -.361085633077058D+02 0.380730895873731D+02
 0.000000000000000D+00 0.000000000000000D+00 0.000000000000000D+00 0.000000000000000D+00
 0.523741206817124D+03 0.000000000000000D+00 0.000000000000000D+00 0.523741206817124D+03
 0.476623342154306D+03 0.000000000000000D+00 0.000000000000000D+00 -.476623342154306D+03
 0.477076880317586D+03 0.431459157930915D+03 0.159823837927253D+03 -.166338691021953D+02
 0.313666556135576D+03 -.281302331446862D+03 -.137098747570864D+03 -.214392204851778D+02
 0.159834031721286D+03 -.150304186401287D+03 -.388073330158100D+02 0.380730895873731D+02
 0.497870807969830D+02 0.147359917234525D+00 0.160822426594213D+02 0.471178646628176D+02
0.219707415847D-05 0.000000000000D+00 0.000000000000D+00 0.612761662224D-04 0.241489642635D-07  6 21 -1 25 4 -3 -2 2 0.62890644D-01 0.93946217D-01 0.23089754D+06 0.23089754D+06 0.23089754D+06 0.10930656D+01  1  2  1  5  6  1        2 0.767796754689D-04 0.100000000000D+01
  </mgrwgt>
  </event>
  <event>
  7     66 0.16549492E-05 0.66708900E+02 0.75467711E-02 0.93833500E-01
        2 -1    0    0  503    0 0.00000000E+00 0.00000000E+00 0.14496246E+04 0.14496246E+04 0.32000000E+00 0.0000E+00 0.9000E+01
       -1 -1    0    0    0  501 0.00000000E+00 0.00000000E+00 -.22997332E+03 0.22997354E+03 0.32000000E+00 0.0000E+00 0.9000E+01
       24  2    1    2    0    0 0.37540159E+03 -.36819775E+03 0.31455788E+03 0.61818133E+03 0.81887448E+02 0.0000E+00 0.0000E+00
       25  1    1    2    0    0 -.36254496E+03 0.36239414E+03 0.81950153E+03 0.97466718E+03 0.12500000E+03 0.0000E+00 0.9000E+01
        4  1    3    3  502    0 0.19363123E+03 -.13719178E+03 0.12262090E+03 0.26711968E+03 0.15500000E+01 0.0000E+00 0.9000E+01
       -3  1    3    3    0  502 0.18177036E+03 -.23100597E+03 0.19193698E+03 0.35106164E+03 0.50000000E+00 0.0000E+00 0.9000E+01
       21  1    1    2  503  501 -.12856637E+02 0.58036103E+01 0.85591853E+02 0.86749656E+02 0.75000000E+00 0.0000E+00 0.9000E+01
#aMCatNLO 2  0  0  1  2 0.55585659D+02 0.00000000D+00  -5  6  0 0.00000000D+00 0.00000000D+00 0.00000000D+00 0.00000000D+00 0.00000000D+00
  <mgrwgt>
 0.3128525053D-02    1    2    0
 0.559212983629701D+03 0.000000000000000D+00 0.000000000000000D+00 0.559212983629701D+03
 0.559212983629701D+03 0.000000000000000D+00 0.000000000000000D+00 -.559212983629701D+03
 0.563200483175650D+03 -.368983839083353D+03 0.365300711554480D+03 0.178818625658478D+03
 0.253057085181452D+03 0.190647689970240D+03 -.135793445268113D+03 -.961846499799206D+02
 0.302168398902301D+03 0.178336149113113D+03 -.229507266286367D+03 -.826339756785573D+02
 0.000000000000000D+00 -.000000000000000D+00 0.000000000000000D+00 0.000000000000000D+00
 0.594598671756836D+03 0.000000000000000D+00 0.000000000000000D+00 0.594598671756836D+03
 0.560664986505047D+03 0.000000000000000D+00 0.000000000000000D+00 -.560664986505047D+03
 0.557108119552166D+03 -.362544956048941D+03 0.362394137413998D+03 0.178818625658478D+03
 0.255973406643186D+03 0.193573301529258D+03 -.137114094650481D+03 -.961846499799206D+02
 0.305433390665363D+03 0.181828291229133D+03 -.231083653047093D+03 -.826339756785573D+02
 0.367487414011674D+02 -.128566367094503D+02 0.580361028357634D+01 0.339336852517886D+02
0.187689253902D-03 0.000000000000D+00 0.000000000000D+00 0.729916687283D-04 0.230967049215D-05  6 2 -1 25 4 -3 21 2 0.22301767D+00 0.35380290D-01 0.28782876D+06 0.28782876D+06 0.28782876D+06 0.10858851D+01  1  2  1  1  6  1        2 0.312852505274D-02 0.100000000000D+01
  </mgrwgt>
  </event>
  <event>
  7     66 0.16549492E-05 0.74189594E+02 0.75467711E-02 0.91002647E-01
        2 -1    0    0  501    0 0.00000000E+00 0.00000000E+00 0.15149835E+04 0.15149836E+04 0.32000000E+00 0.0000E+00 0.9000E+01
       -1 -1    0    0    0  503 0.00000000E+00 0.00000000E+00 -.62137536E+03 0.62137544E+03 0.32000000E+00 0.0000E+00 0.9000E+01
       24  2    1    2    0    0 -.65062904E+03 -.23034384E+03 0.51301904E+03 0.86371097E+03 0.80197672E+02 0.0000E+00 0.0000E+00
       25  1    1    2    0    0 0.64138768E+03 0.22587260E+03 0.68194395E+03 0.97111746E+03 0.12500000E+03 0.0000E+00 0.9000E+01
        4  1    3    3  502    0 -.33157209E+03 -.86248647E+02 0.28768044E+03 0.44737157E+03 0.15500000E+01 0.0000E+00 0.9000E+01
       -3  1    3    3    0  502 -.31905695E+03 -.14409519E+03 0.22533860E+03 0.41633940E+03 0.50000000E+00 0.0000E+00 0.9000E+01
       21  1    1    2  501  503 0.92413638E+01 0.44712381E+01 -.30135482E+03 0.30153057E+03 0.75000000E+00 0.0000E+00 0.9000E+01
#aMCatNLO 2  0  0  2  1 0.22372809D+02 0.00000000D+00  -5  6  0 0.00000000D+00 0.00000000D+00 0.00000000D+00 0.00000000D+00 0.00000000D+00
  <mgrwgt>
 0.2775464424D-02    1    2    0
 0.696159721612820D+03 0.000000000000000D+00 0.000000000000000D+00 0.696159721612820D+03
 0.696159721612820D+03 0.000000000000000D+00 0.000000000000000D+00 -.696159721612820D+03
 0.699461167080632D+03 0.646013609405444D+03 0.228110760647186D+03 0.652136610972905D+02
 0.340056797355704D+03 -.329200508090677D+03 -.851021599384135D+02 -.482423822741120D+01
 0.352801478789303D+03 -.316813101314767D+03 -.143008600708773D+03 -.603894228698793D+02
 0.000000000000000D+00 0.000000000000000D+00 0.000000000000000D+00 -.000000000000000D+00
 0.696218814815522D+03 0.000000000000000D+00 0.000000000000000D+00 0.696218814815522D+03
 0.135212228265903D+04 0.000000000000000D+00 0.000000000000000D+00 -.135212228265903D+04
 0.694459792519314D+03 0.641387675422455D+03 0.225872600481856D+03 0.652136610972905D+02
 0.342524366287037D+03 -.331465755183274D+03 -.861981517588596D+02 -.482423822741120D+01
 0.355373132538074D+03 -.319163284069297D+03 -.144145686850031D+03 -.603894228698793D+02
 0.655983806130124D+03 0.924136383011710D+01 0.447123812703472D+01 -.655903467843504D+03
0.127477638550D-02 0.000000000000D+00 0.000000000000D+00 0.318416834169D-03 0.226518137037D-04  6 2 -1 25 4 -3 21 2 0.23307433D+00 0.95596188D-01 0.48605446D+06 0.48605446D+06 0.48605446D+06 0.10693797D+01  1  2  1  2  6  2       -1 0.277546442437D-02 0.100000000000D+01
  </mgrwgt>
  </event>
  <event>
  7     66 0.16549492E-05 0.51742392E+02 0.75467711E-02 0.89690907E-01
        2 -1    0    0  503    0 0.00000000E+00 0.00000000E+00 0.26739407E+04 0.26739407E+04 0.32000000E+00 0.0000E+00 0.9000E+01
       -1 -1    0    0    0  501 0.00000000E+00 0.00000000E+00 -.30133180E+03 0.30133197E+03 0.32000000E+00 0.0000E+00 0.9000E+01
       24  2    1    2    0    0 0.23824313E+03 -.74339378E+03 0.53641543E+03 0.95050926E+03 0.79575288E+02 0.0000E+00 0.0000E+00
       25  1    1    2    0    0 -.24851323E+03 0.73311866E+03 0.15392661E+04 0.17274799E+04 0.12500000E+03 0.0000E+00 0.9000E+01
        4  1    3    3  502    0 0.19051656E+03 -.46990377E+03 0.34674065E+03 0.61427811E+03 0.15500000E+01 0.0000E+00 0.9000E+01
       -3  1    3    3    0  502 0.47726567E+02 -.27349001E+03 0.18967479E+03 0.33623115E+03 0.50000000E+00 0.0000E+00 0.9000E+01
       21  1    1    2  503  501 0.10270096E+02 0.10275120E+02 0.29692735E+03 0.29728348E+03 0.75000000E+00 0.0000E+00 0.9000E+01
#aMCatNLO 2  0  0  1  2 0.55585659D+02 0.00000000D+00  -5  6  0 0.00000000D+00 0.00000000D+00 0.00000000D+00 0.00000000D+00 0.00000000D+00
  <mgrwgt>
 0.2334583510D-02    1    2    0
 0.846014362426826D+03 0.000000000000000D+00 0.000000000000000D+00 0.846014362426826D+03
 0.846014362426826D+03 0.000000000000000D+00 0.000000000000000D+00 -.846014362426826D+03
 0.848760407281572D+03 -.243370633314233D+03 0.738263770316028D+03 0.317027710536116D+03
 0.545073646673979D+03 0.193819432014297D+03 -.466503450890129D+03 -.204728694568509D+03
 0.298194670898100D+03 0.495512012999360D+02 -.271760319425899D+03 -.112299015967607D+03
 0.000000000000000D+00 0.000000000000000D+00 0.000000000000000D+00 0.000000000000000D+00
 0.951800106469062D+03 0.000000000000000D+00 0.000000000000000D+00 0.951800106469062D+03
 0.846544466931880D+03 0.000000000000000D+00 0.000000000000000D+00 -.846544466931880D+03
 0.845785649319617D+03 -.248513226100160D+03 0.733118661473383D+03 0.317027710536116D+03
 0.546750231044385D+03 0.190505974952930D+03 -.469818529088196D+03 -.204728694568509D+03
 0.299555210178980D+03 0.477371554590215D+02 -.273575252803979D+03 -.112299015967607D+03
 0.106253482857961D+03 0.102700956882079D+02 0.102751204187920D+02 0.105255639537183D+03
0.119634647812D-02 0.000000000000D+00 0.000000000000D+00 0.135827357657D-03 0.389474118548D-05  6 2 -1 25 4 -3 21 2 0.41137486D+00 0.46358681D-01 0.62673476D+06 0.62673476D+06 0.62673476D+06 0.10616446D+01  1  2  1  1  6  1        2 0.233458350999D-02 0.100000000000D+01
  </mgrwgt>
  </event>
  <event>
  7     66 0.16549492E-05 0.26499116E+02 0.75467711E-02 0.90870498E-01
        2 -1    0    0  501    0 0.00000000E+00 0.00000000E+00 0.19828314E+04 0.19828314E+04 0.32000000E+00 0.0000E+00 0.9000E+01
       21 -1    0    0  503  501 0.00000000E+00 0.00000000E+00 -.30675518E+03 0.30675609E+03 0.75000000E+00 0.0000E+00 0.9000E+01
       24  2    1    2    0    0 -.67572794E+03 -.17395303E+03 0.77737954E+03 0.10476010E+04 0.79252395E+02 0.0000E+00 0.0000E+00
       25  1    1    2    0    0 0.66006475E+03 0.15448242E+03 0.95650057E+03 0.11790117E+04 0.12500000E+03 0.0000E+00 0.9000E+01
        4  1    3    3  502    0 -.13236468E+03 -.35118844E+02 0.10851591E+03 0.17473364E+03 0.15500000E+01 0.0000E+00 0.9000E+01
        1  1    1    2  503    0 0.15663190E+02 0.19470601E+02 -.57803877E+02 0.62974840E+02 0.32000000E+00 0.0000E+00 0.9000E+01
       -3  1    3    3    0  502 -.54336326E+03 -.13883418E+03 0.66886363E+03 0.87286732E+03 0.50000000E+00 0.0000E+00 0.9000E+01
#aMCatNLO 2  0  0  2  1 0.12509881D+02 0.00000000D+00  -5  6  0 0.00000000D+00 0.00000000D+00 0.00000000D+00 0.00000000D+00 0.00000000D+00
  <mgrwgt>
 0.1639266482D-03    1    2    0
 0.698362259474955D+03 0.000000000000000D+00 0.000000000000000D+00 0.698362259474955D+03
 0.698362259474955D+03 0.000000000000000D+00 0.000000000000000D+00 -.698362259474955D+03
 0.701707249024380D+03 0.667879027528503D+03 0.164196201464622D+03 0.611986547689778D+02
 0.141664135717624D+03 -.130562568327984D+03 -.330788702645899D+02 -.439082161131637D+02
 0.000000000000000D+00 0.000000000000000D+00 0.000000000000000D+00 -.000000000000000D+00
 0.553353134207906D+03 -.537316459200520D+03 -.131117331200032D+03 -.172904386558141D+02
 0.699385823520183D+03 0.000000000000000D+00 0.000000000000000D+00 0.699385823520183D+03
 0.869683939398956D+03 0.000000000000000D+00 0.000000000000000D+00 -.869683939398956D+03
 0.692040869271353D+03 0.660064746877337D+03 0.154482424003749D+03 0.611986547689778D+02
 0.143612090678315D+03 -.132162016942048D+03 -.350671131484449D+02 -.439082161131637D+02
 0.172121724638372D+03 0.156631898713203D+02 0.194706010097938D+02 -.170298115878773D+03
 0.561295078331100D+03 -.543565919806609D+03 -.138885911865098D+03 -.172904386558141D+02
0.375014968654D-05 0.000000000000D+00 0.000000000000D+00 0.585002988928D-04 0.179068595239D-07  6 2 21 25 4 1 -3 2 0.30505099D+00 0.47193166D-01 0.49849406D+06 0.49849406D+06 0.49849406D+06 0.10686030D+01  1  2  1  6  5  2       -1 0.163926648182D-03 0.100000000000D+01
  </mgrwgt>
  </event>
  <event>
  7     66 0.16549492E-05 0.55036894E+02 0.75467711E-02 0.92812946E-01
        2 -1    0    0  503    0 0.00000000E+00 0.00000000E+00 0.11630243E+04 0.11630243E+04 0.32000000E+00 0.0000E+00 0.9000E+01
       -1 -1    0    0    0  501 0.00000000E+00 0.00000000E+00 -.57974255E+03 0.57974264E+03 0.32000000E+00 0.0000E+00 0.9000E+01
       24  2    1    2    0    0 0.50798119E+03 -.26254559E+03 0.45304317E+03 0.73396459E+03 0.80503574E+02 0.0000E+00 0.0000E+00
       25  1    1    2    0    0 -.50994354E+03 0.27301530E+03 -.23986470E+03 0.63854510E+03 0.12500000E+03 0.0000E+00 0.9000E+01
        4  1    3    3  502    0 0.19473478E+03 -.69986944E+02 0.12896019E+03 0.24382973E+03 0.15500000E+01 0.0000E+00 0.9000E+01
       -3  1    3    3    0  502 0.31324642E+03 -.19255864E+03 0.32408298E+03 0.49013485E+03 0.50000000E+00 0.0000E+00 0.9000E+01
       21  1    1    2  503  501 0.19623532E+01 -.10469718E+02 0.37010323E+03 0.37025725E+03 0.75000000E+00 0.0000E+00 0.9000E+01
#aMCatNLO 2  0  0  1  2 0.55585659D+02 0.00000000D+00  -5  6  0 0.00000000D+00 0.00000000D+00 0.00000000D+00 0.00000000D+00 0.00000000D+00
  <mgrwgt>
 0.1258689528D-01    1    2    0
 0.677905657794699D+03 0.000000000000000D+00 0.000000000000000D+00 0.677905657794699D+03
 0.677905657794699D+03 0.000000000000000D+00 0.000000000000000D+00 -.677905657794699D+03
 0.681277872831678D+03 -.508955457791935D+03 0.267743577082001D+03 -.343208768718389D+03
 0.227221197513232D+03 0.194954385694309D+03 -.716696302825732D+02 0.921179906047745D+02
 0.447312245244487D+03 0.314001072097626D+03 -.196073946799428D+03 0.251090778113615D+03
 0.000000000000000D+00 0.000000000000000D+00 -.000000000000000D+00 0.000000000000000D+00
 0.994450995409702D+03 0.000000000000000D+00 0.000000000000000D+00 0.994450995409702D+03
 0.678016198142378D+03 0.000000000000000D+00 0.000000000000000D+00 -.678016198142378D+03
 0.684103086962585D+03 -.509943544531438D+03 0.273015303705229D+03 -.343208768718389D+03
 0.226392599591749D+03 0.194626118499311D+03 -.699182304891984D+02 0.921179906047745D+02
 0.445357472644089D+03 0.313355072821985D+03 -.192627355074397D+03 0.251090778113615D+03
 0.316614034353658D+03 0.196235321014208D+01 -.104697181416331D+02 0.316434797267324D+03
0.302307300832D-02 0.000000000000D+00 0.000000000000D+00 0.157965831284D-03 0.927838633325D-05  6 2 -1 25 4 -3 21 2 0.17892670D+00 0.89191114D-01 0.34636993D+06 0.34636993D+06 0.34636993D+06 0.10799638D+01  1  2  1  1  6  1        2 0.125868952810D-01 0.100000000000D+01
  </mgrwgt>
  </event>
  <event>
  7     66 0.16549492E-05 0.29839280E+03 0.75467711E-02 0.90265013E-01
        2 -1    0    0  501    0 0.00000000E+00 0.00000000E+00 0.15085023E+04 0.15085023E+04 0.32000000E+00 0.0000E+00 0.9000E+01
       -1 -1    0    0    0  503 0.00000000E+00 0.00000000E+00 -.66399318E+03 0.66399326E+03 0.32000000E+00 0.0000E+00 0.9000E+01
       24  2    1    2    0    0 0.18335791E+03 -.61514482E+03 0.91168173E+03 0.11167222E+04 0.62303192E+02 0.0000E+00 0.0000E+00
       25  1    1    2    0    0 0.12235998E+03 0.49661504E+03 0.26463783E+03 0.58928486E+03 0.12500000E+03 0.0000E+00 0.9000E+01
        4  1    3    3  502    0 0.10077799E+03 -.28707194E+03 0.38431301E+03 0.49016874E+03 0.15500000E+01 0.0000E+00 0.9000E+01
       -3  1    3    3    0  502 0.82579914E+02 -.32807288E+03 0.52736871E+03 0.62655348E+03 0.50000000E+00 0.0000E+00 0.9000E+01
       21  1    1    2  501  503 -.30571789E+03 0.11852978E+03 -.33181048E+03 0.46648847E+03 0.75000000E+00 0.0000E+00 0.9000E+01
#aMCatNLO 2  0  0  2  1 0.12509881D+02 0.00000000D+00  -5  6  0 0.00000000D+00 0.00000000D+00 0.00000000D+00 0.00000000D+00 0.00000000D+00
  <mgrwgt>
 0.8565631624D-04    1    2    0
 0.595655043268174D+03 0.000000000000000D+00 0.000000000000000D+00 0.595655043268174D+03
 0.595655043268174D+03 0.000000000000000D+00 0.000000000000000D+00 -.595655043268174D+03
 0.600583782089896D+03 -.240505974737135D+02 0.553379834195467D+03 -.195622614174227D+03
 0.267858646117548D+03 0.278526785002782D+02 -.258630704587827D+03 0.638955494904798D+02
 0.322867658328904D+03 -.380208102656470D+01 -.294749129607640D+03 0.131727064683748D+03
 0.000000000000000D+00 -.000000000000000D+00 0.000000000000000D+00 -.000000000000000D+00
 0.646672153880832D+03 0.000000000000000D+00 0.000000000000000D+00 0.646672153880832D+03
 0.154890679765086D+04 0.000000000000000D+00 0.000000000000000D+00 -.154890679765086D+04
 0.561686450441526D+03 0.122359982960593D+03 0.496615038035625D+03 -.195622614174227D+03
 0.310699430694049D+03 0.100733340389425D+03 -.286887241129515D+03 0.638955494904798D+02
 0.363224275012139D+03 0.826245651871781D+02 -.328257575107609D+03 0.131727064683748D+03
 0.959968795383983D+03 -.305717888537196D+03 0.118529778201498D+03 -.902234643770032D+03
0.460375653008D-04 0.000000000000D+00 0.000000000000D+00 0.843909676851D-06 0.698981403731D-10  6 2 -1 25 4 -3 21 2 0.23207723D+00 0.10215278D+00 0.56022705D+06 0.56022705D+06 0.56022705D+06 0.10650369D+01  1  2  1  2  6  2       -1 0.856563162408D-04 0.100000000000D+01
  </mgrwgt>
  </event>
  <event>
  7     66 0.16549492E-05 0.47655177E+02 0.75467711E-02 0.95204977E-01
        2 -1    0    0  501    0 0.00000000E+00 0.00000000E+00 0.71276019E+03 0.71276026E+03 0.32000000E+00 0.0000E+00 0.9000E+01
       -1 -1    0    0    0  503 0.00000000E+00 0.00000000E+00 -.34631091E+03 0.34631106E+03 0.32000000E+00 0.0000E+00 0.9000E+01
       24  2    1    2    0    0 -.19168071E+03 -.41380159E+03 0.29843037E+03 0.55099329E+03 0.80991786E+02 0.0000E+00 0.0000E+00
       25  1    1    2    0    0 0.20228158E+03 0.41668908E+03 0.85593048E+02 0.48733848E+03 0.12500000E+03 0.0000E+00 0.9000E+01
        4  1    3    3  502    0 -.11043671E+03 -.30187963E+03 0.23849909E+03 0.40026466E+03 0.15500000E+01 0.0000E+00 0.9000E+01
       -3  1    3    3    0  502 -.81243996E+02 -.11192196E+03 0.59931282E+02 0.15072864E+03 0.50000000E+00 0.0000E+00 0.9000E+01
       21  1    1    2  501  503 -.10600870E+02 -.28874871E+01 -.17574138E+02 0.20739548E+02 0.75000000E+00 0.0000E+00 0.9000E+01
#aMCatNLO 2  0  0  2  1 0.12509881D+02 0.00000000D+00  -5  6  0 0.00000000D+00 0.00000000D+00 0.00000000D+00 0.00000000D+00 0.00000000D+00
  <mgrwgt>
 0.2383323226D-02    1    2    0
 0.482322031426890D+03 0.000000000000000D+00 0.000000000000000D+00 0.482322031426890D+03
 0.482322031426890D+03 0.000000000000000D+00 0.000000000000000D+00 -.482322031426890D+03
 0.487020827153113D+03 0.196910790030928D+03 0.415226170845218D+03 -.101870770565046D+03
 0.337973118339794D+03 -.114113412036301D+03 -.302858558679629D+03 0.973686363684706D+02
 0.139650117360872D+03 -.827973779946270D+02 -.112367612165589D+03 0.450213419657527D+01
 0.000000000000000D+00 -.000000000000000D+00 -.000000000000000D+00 -.000000000000000D+00
 0.483421991259499D+03 0.000000000000000D+00 0.000000000000000D+00 0.483421991259499D+03
 0.510592944242630D+03 0.000000000000000D+00 0.000000000000000D+00 -.510592944242630D+03
 0.490459253848362D+03 0.202281580902189D+03 0.416689078111830D+03 -.101870770565046D+03
 0.335834448418733D+03 -.110411158047836D+03 -.301850130983896D+03 0.973686363684706D+02
 0.138412928798524D+03 -.812695530302372D+02 -.111951460001765D+03 0.450213419657527D+01
 0.293083044365101D+02 -.106008698241157D+02 -.288748712616851D+01 -.271709529831311D+02
0.101877545743D-03 0.000000000000D+00 0.000000000000D+00 0.225848761447D-03 0.119592093360D-04  6 2 -1 25 4 -3 21 2 0.10965434D+00 0.53278091D-01 0.22586231D+06 0.22586231D+06 0.22586231D+06 0.10937920D+01  1  2  1  2  6  2       -1 0.238332322628D-02 0.100000000000D+01
  </mgrwgt>
  </event>
  <event>
  7     66 0.16549492E-05 0.13633982E+03 0.75467711E-02 0.89956118E-01
        2 -1    0    0  503    0 0.00000000E+00 0.00000000E+00 0.22664311E+04 0.22664312E+04 0.32000000E+00 0.0000E+00 0.9000E+01
       -1 -1    0    0    0  501 0.00000000E+00 0.00000000E+00 -.50756068E+03 0.50756078E+03 0.32000000E+00 0.0000E+00 0.9000E+01
       24  2    1    2    0    0 0.60298817E+03 -.13336634E+03 0.45216191E+03 0.76976004E+03 0.81846251E+02 0.0000E+00 0.0000E+00
       25  1    1    2    0    0 -.74769240E+03 0.61163167E+02 0.77545331E+02 0.76447573E+03 0.12500000E+03 0.0000E+00 0.9000E+01
        4  1    3    3  502    0 0.16055099E+03 -.62862671E+02 0.95483379E+02 0.19709849E+03 0.15500000E+01 0.0000E+00 0.9000E+01
       -3  1    3    3    0  502 0.44243718E+03 -.70503667E+02 0.35667853E+03 0.57266155E+03 0.50000000E+00 0.0000E+00 0.9000E+01
       21  1    1    2  503  501 0.14470423E+03 0.72203171E+02 0.12291632E+04 0.12397562E+04 0.75000000E+00 0.0000E+00 0.9000E+01
#aMCatNLO 2  0  0  1  2 0.55585659D+02 0.00000000D+00  -5  6  0 0.00000000D+00 0.00000000D+00 0.00000000D+00 0.00000000D+00 0.00000000D+00
  <mgrwgt>
 0.2696296757D-03    1    2    0
 0.715390977446961D+03 0.000000000000000D+00 0.000000000000000D+00 0.715390977446961D+03
 0.715390977446961D+03 0.000000000000000D+00 0.000000000000000D+00 -.715390977446961D+03
 0.718510317622617D+03 -.671851512943534D+03 0.990055468942596D+02 -.198608969509959D+03
 0.188884366278856D+03 0.178726764198377D+03 -.536943255799819D+02 0.291713384035326D+02
 0.523387270992448D+03 0.493124748745156D+03 -.453112213142777D+02 0.169437631106426D+03
 0.000000000000000D+00 0.000000000000000D+00 0.000000000000000D+00 0.000000000000000D+00
 0.158115603532282D+04 0.000000000000000D+00 0.000000000000000D+00 0.158115603532282D+04
 0.727537934600952D+03 0.000000000000000D+00 0.000000000000000D+00 -.727537934600952D+03
 0.786037773248902D+03 -.747692400133714D+03 0.611631669108886D+02 -.198608969509959D+03
 0.174720900443632D+03 0.160398240050451D+03 -.628397219622916D+02 0.291713384035326D+02
 0.479133549777858D+03 0.442589927734679D+03 -.705266159374267D+02 0.169437631106426D+03
 0.868801746453378D+03 0.144704232348585D+03 0.722031709888297D+02 0.853618100721865D+03
0.215478898677D-03 0.000000000000D+00 0.000000000000D+00 0.590246126925D-04 0.172684526000D-07  6 2 -1 25 4 -3 21 2 0.34868165D+00 0.78086251D-01 0.59497518D+06 0.59497518D+06 0.59497518D+06 0.10632130D+01  1  2  1  1  6  1        2 0.269629675658D-03 0.100000000000D+01
  </mgrwgt>
  </event>
  <event>
  7     66 0.16549492E-05 0.46551855E+02 0.75467711E-02 0.94642356E-01
        2 -1    0    0  501    0 0.00000000E+00 0.00000000E+00 0.33930194E+03 0.33930209E+03 0.32000000E+00 0.0000E+00 0.9000E+01
       -1 -1    0    0    0  503 0.00000000E+00 0.00000000E+00 -.77163840E+03 0.77163847E+03 0.32000000E+00 0.0000E+00 0.9000E+01
       24  2    1    2    0    0 -.45734266E+03 -.16279659E+03 -.17046580E+03 0.52116400E+03 0.82995750E+02 0.0000E+00 0.0000E+00
       25  1    1    2    0    0 0.45679054E+03 0.15243659E+03 -.21537381E+03 0.54213042E+03 0.12500000E+03 0.0000E+00 0.9000E+01
        4  1    3    3  502    0 -.13607623E+03 -.14673921E+02 -.68117685E+02 0.15288717E+03 0.15500000E+01 0.0000E+00 0.9000E+01
       -3  1    3    3    0  502 -.32126643E+03 -.14812267E+03 -.10234811E+03 0.36827683E+03 0.50000000E+00 0.0000E+00 0.9000E+01
       21  1    1    2  501  503 0.55211519E+00 0.10360000E+02 -.46496855E+02 0.47646138E+02 0.75000000E+00 0.0000E+00 0.9000E+01
#aMCatNLO 2  0  0  2  1 0.12509881D+02 0.00000000D+00  -5  6  0 0.00000000D+00 0.00000000D+00 0.00000000D+00 0.00000000D+00 0.00000000D+00
  <mgrwgt>
 0.1718062149D-02    1    2    0
 0.495382473097928D+03 0.000000000000000D+00 0.000000000000000D+00 0.495382473097928D+03
 0.495382473097928D+03 0.000000000000000D+00 0.000000000000000D+00 -.495382473097928D+03
 0.499791544438178D+03 0.457068524796393D+03 0.157652739563126D+03 -.200141260261071D+02
 0.137204188729041D+03 -.135892554857741D+03 -.131869705938162D+02 -.135759620501846D+02
 0.353769213028637D+03 -.321175969938652D+03 -.144465768969310D+03 0.335900880762917D+02
 0.000000000000000D+00 0.000000000000000D+00 0.000000000000000D+00 -.000000000000000D+00
 0.496245828258714D+03 0.000000000000000D+00 0.000000000000000D+00 0.496245828258714D+03
 0.527589398110812D+03 0.000000000000000D+00 0.000000000000000D+00 -.527589398110812D+03
 0.497915731725271D+03 0.456790540476986D+03 0.152436586125727D+03 -.200141260261071D+02
 0.137425328897397D+03 -.135969072992239D+03 -.146227721927450D+02 -.135759620501846D+02
 0.355478202936386D+03 -.321373582670290D+03 -.148173813838922D+03 0.335900880762917D+02
 0.330159628104723D+02 0.552115185542752D+00 0.103599999059395D+02 -.313435698520975D+02
0.167074533169D-03 0.000000000000D+00 0.000000000000D+00 0.251102517487D-04 0.148239073925D-05  6 2 -1 25 4 -3 21 2 0.52199867D-01 0.11871260D+00 0.24926493D+06 0.24926493D+06 0.24926493D+06 0.10905553D+01  1  2  1  2  6  2       -1 0.171806214927D-02 0.100000000000D+01
  </mgrwgt>
  </event>
  <event>
  7     66 0.16549492E-05 0.72459551E+02 0.75467711E-02 0.95022785E-01
        2 -1    0    0  501    0 0.00000000E+00 0.00000000E+00 0.30307767E+03 0.30307783E+03 0.32000000E+00 0.0000E+00 0.9000E+01
       -1 -1    0    0    0  503 0.00000000E+00 0.00000000E+00 -.14011972E+04 0.14011972E+04 0.32000000E+00 0.0000E+00 0.9000E+01
       24  2    1    2    0    0 -.45361550E+03 -.12511164E+03 -.24626197E+03 0.53711210E+03 0.80153058E+02 0.0000E+00 0.0000E+00
       25  1    1    2    0    0 0.44252971E+03 0.12870868E+03 -.20411215E+03 0.51931228E+03 0.12500000E+03 0.0000E+00 0.9000E+01
        4  1    3    3  502    0 -.22319596E+03 -.10064640E+03 -.14176803E+03 0.28292528E+03 0.15500000E+01 0.0000E+00 0.9000E+01
       -3  1    3    3    0  502 -.23041953E+03 -.24465242E+02 -.10449393E+03 0.25418682E+03 0.50000000E+00 0.0000E+00 0.9000E+01
       21  1    1    2  501  503 0.11085784E+02 -.35970459E+01 -.64774540E+03 0.64785067E+03 0.75000000E+00 0.0000E+00 0.9000E+01
#aMCatNLO 2  0  0  2  1 0.12509881D+02 0.00000000D+00  -5  6  0 0.00000000D+00 0.00000000D+00 0.00000000D+00 0.00000000D+00 0.00000000D+00
  <mgrwgt>
 0.3274873331D-02    1    2    0
 0.477770810018671D+03 0.000000000000000D+00 0.000000000000000D+00 0.477770810018671D+03
 0.477770810018671D+03 0.000000000000000D+00 0.000000000000000D+00 -.477770810018671D+03
 0.482585088764397D+03 0.448101072600211D+03 0.126900924271513D+03 0.191037182589459D+02
 0.243689409636612D+03 -.220278664668471D+03 -.101562598819096D+03 -.233853967686448D+02
 0.229267121636333D+03 -.227822407931740D+03 -.253383254524178D+02 0.428167850969890D+01
 0.000000000000000D+00 0.000000000000000D+00 -.000000000000000D+00 -.000000000000000D+00
 0.477889004216897D+03 0.000000000000000D+00 0.000000000000000D+00 0.477889004216897D+03
 0.888639691527736D+03 0.000000000000000D+00 0.000000000000000D+00 -.888639691527736D+03
 0.477900013886634D+03 0.442529711685750D+03 0.128708684620949D+03 0.191037182589459D+02
 0.245880791273073D+03 -.223118450808521D+03 -.100641162770762D+03 -.233853967686448D+02
 0.231831888859728D+03 -.230497044943479D+03 -.244704759604912D+02 0.428167850969890D+01
 0.410916001725198D+03 0.110857840662502D+02 -.359704588969563D+01 -.410750687310839D+03
0.176554483323D-02 0.000000000000D+00 0.000000000000D+00 0.239024375226D-03 0.134224773831D-04  6 2 -1 25 4 -3 21 2 0.46627316D-01 0.21556866D+00 0.23315925D+06 0.23315925D+06 0.23315925D+06 0.10927450D+01  1  2  1  2  6  2       -1 0.327487333075D-02 0.100000000000D+01
  </mgrwgt>
  </event>
  <event>
  7     66 0.16549492E-05 0.57764436E+02 0.75467711E-02 0.91688016E-01
        2 -1    0    0  501    0 0.00000000E+00 0.00000000E+00 0.11351438E+04 0.11351438E+04 0.32000000E+00 0.0000E+00 0.9000E+01
       -1 -1    0    0    0  503 0.00000000E+00 0.00000000E+00 -.50146772E+03 0.50146783E+03 0.32000000E+00 0.0000E+00 0.9000E+01
       24  2    1    2    0    0 0.18309784E+03 -.61816088E+03 0.71703639E+03 0.96759215E+03 0.80285114E+02 0.0000E+00 0.0000E+00
       25  1    1    2    0    0 -.17284184E+03 0.61185966E+03 -.71170482E+02 0.65187176E+03 0.12500000E+03 0.0000E+00 0.9000E+01
        4  1    3    3  502    0 0.47299458E+02 -.24602825E+03 0.23319596E+03 0.34227168E+03 0.15500000E+01 0.0000E+00 0.9000E+01
       -3  1    3    3    0  502 0.13579838E+03 -.37213262E+03 0.48384043E+03 0.62532048E+03 0.50000000E+00 0.0000E+00 0.9000E+01
       21  1    1    2  501  503 -.10255992E+02 0.63012151E+01 -.12189844E+02 0.17147755E+02 0.75000000E+00 0.0000E+00 0.9000E+01
#aMCatNLO 2  0  0  2  1 0.12509881D+02 0.00000000D+00  -5  6  0 0.00000000D+00 0.00000000D+00 0.00000000D+00 0.00000000D+00 0.00000000D+00
  <mgrwgt>
 0.5893496577D-02    1    2    0
 0.742525366960635D+03 0.000000000000000D+00 0.000000000000000D+00 0.742525366960635D+03
 0.742525366960635D+03 0.000000000000000D+00 0.000000000000000D+00 -.742525366960635D+03
 0.745615934913148D+03 -.177977928581803D+03 0.615015238316927D+03 -.361106959185381D+03
 0.270296360282958D+03 0.453792786026606D+02 -.244749273531341D+03 0.105350066737510D+03
 0.469138438725163D+03 0.132598649979143D+03 -.370265964785586D+03 0.255756892447871D+03
 0.000000000000000D+00 -.000000000000000D+00 0.000000000000000D+00 -.000000000000000D+00
 0.744169056059861D+03 0.000000000000000D+00 0.000000000000000D+00 0.744169056059861D+03
 0.764919126819655D+03 0.000000000000000D+00 0.000000000000000D+00 -.764919126819655D+03
 0.741801714536998D+03 -.172841843586347D+03 0.611859661052754D+03 -.361106959185381D+03
 0.271657130651931D+03 0.472506556123762D+02 -.245899035412186D+03 0.105350066737510D+03
 0.471640671009464D+03 0.135847180391118D+03 -.372261840772660D+03 0.255756892447871D+03
 0.239886666811214D+02 -.102559924171473D+02 0.630121513209147D+01 -.207500707597941D+02
0.102973632553D-02 0.000000000000D+00 0.000000000000D+00 0.166536761528D-03 0.706451309265D-05  6 2 -1 25 4 -3 21 2 0.17463614D+00 0.77148286D-01 0.42685573D+06 0.42685573D+06 0.42685573D+06 0.10733991D+01  1  2  1  2  6  2       -1 0.589349657692D-02 0.100000000000D+01
  </mgrwgt>
  </event>
  <event>
  7     66 0.16549492E-05 0.42038311E+02 0.75467711E-02 0.94640499E-01
        2 -1    0    0  501    0 0.00000000E+00 0.00000000E+00 0.14186598E+04 0.14186598E+04 0.32000000E+00 0.0000E+00 0.9000E+01
       -1 -1    0    0    0  503 0.00000000E+00 0.00000000E+00 -.19145178E+03 0.19145204E+03 0.32000000E+00 0.0000E+00 0.9000E+01
       24  2    1    2    0    0 0.42198038E+03 0.21514919E+03 0.41850310E+03 0.63713713E+03 0.80263747E+02 0.0000E+00 0.0000E+00
       25  1    1    2    0    0 -.38460587E+03 -.24368519E+03 0.79386208E+03 0.92365910E+03 0.12500000E+03 0.0000E+00 0.9000E+01
        4  1    3    3  502    0 0.27158373E+03 0.97463584E+02 0.27074821E+03 0.39568153E+03 0.15500000E+01 0.0000E+00 0.9000E+01
       -3  1    3    3    0  502 0.15039664E+03 0.11768561E+03 0.14775488E+03 0.24145560E+03 0.50000000E+00 0.0000E+00 0.9000E+01
       21  1    1    2  501  503 -.37374510E+02 0.28536001E+02 0.14842813E+02 0.49315606E+02 0.75000000E+00 0.0000E+00 0.9000E+01
#aMCatNLO 2  0  0  2  1 0.12509881D+02 0.00000000D+00  -5  6  0 0.00000000D+00 0.00000000D+00 0.00000000D+00 0.00000000D+00 0.00000000D+00
  <mgrwgt>
 0.1250813894D-02    1    2    0
 0.490928817280939D+03 0.000000000000000D+00 0.000000000000000D+00 0.490928817280939D+03
 0.490928817280939D+03 0.000000000000000D+00 0.000000000000000D+00 -.490928817280939D+03
 0.495605020191959D+03 -.403305926089025D+03 -.229407413789482D+03 0.121309127930951D+03
 0.287110330222073D+03 0.260479208660947D+03 0.105867144007534D+03 -.580953646626208D+02
 0.199142284147845D+03 0.142826717428078D+03 0.123540269781948D+03 -.632137632683303D+02
 0.000000000000000D+00 -.000000000000000D+00 0.000000000000000D+00 -.000000000000000D+00
 0.502860078365379D+03 0.000000000000000D+00 0.000000000000000D+00 0.502860078365379D+03
 0.540115807350298D+03 0.000000000000000D+00 0.000000000000000D+00 -.540115807350298D+03
 0.487488511311337D+03 -.384605865188106D+03 -.243685191597857D+03 0.121309127930951D+03
 0.294277724810402D+03 0.271538168655882D+03 0.974234616882085D+02 -.580953646626208D+02
 0.201216760643642D+03 0.150442206982145D+03 0.117725728945366D+03 -.632137632683303D+02
 0.599928889502961D+02 -.373745104499208D+02 0.285360009642833D+02 -.372557289849191D+02
0.521050125503D-04 0.000000000000D+00 0.000000000000D+00 0.286092920040D-03 0.825842648177D-06  6 2 -1 25 4 -3 21 2 0.21825437D+00 0.29454007D-01 0.24934655D+06 0.24934655D+06 0.24934655D+06 0.10905446D+01  1  2  1  2  6  2       -1 0.125081389397D-02 0.100000000000D+01
  </mgrwgt>
  </event>
  <event>
  7     66 0.16549492E-05 0.52034470E+02 0.75467711E-02 0.94729346E-01
        2 -1    0    0  501    0 0.00000000E+00 0.00000000E+00 0.78742915E+03 0.78742922E+03 0.32000000E+00 0.0000E+00 0.9000E+01
       -1 -1    0    0    0  503 0.00000000E+00 0.00000000E+00 -.44698476E+03 0.44698487E+03 0.32000000E+00 0.0000E+00 0.9000E+01
       24  2    1    2    0    0 0.42678777E+03 0.15120917E+03 0.46735597E+03 0.65576353E+03 0.81192312E+02 0.0000E+00 0.0000E+00
       25  1    1    2    0    0 -.43371605E+03 -.19268024E+03 -.53020204E+02 0.49363087E+03 0.12500000E+03 0.0000E+00 0.9000E+01
        4  1    3    3  502    0 0.17842485E+03 0.99854687E+02 0.17909739E+03 0.27181733E+03 0.15500000E+01 0.0000E+00 0.9000E+01
       -3  1    3    3    0  502 0.24836292E+03 0.51354487E+02 0.28825858E+03 0.38394620E+03 0.50000000E+00 0.0000E+00 0.9000E+01
       21  1    1    2  501  503 0.69282830E+01 0.41471070E+02 -.73891372E+02 0.85019693E+02 0.75000000E+00 0.0000E+00 0.9000E+01
#aMCatNLO 2  0  0  2  1 0.12509881D+02 0.00000000D+00  -5  6  0 0.00000000D+00 0.00000000D+00 0.00000000D+00 0.00000000D+00 0.00000000D+00
  <mgrwgt>
 0.1044408871D-02    1    2    0
 0.535645755528124D+03 0.000000000000000D+00 0.000000000000000D+00 0.535645755528124D+03
 0.535645755528124D+03 0.000000000000000D+00 0.000000000000000D+00 -.535645755528124D+03
 0.539861605538219D+03 -.430194179784663D+03 -.171599152344132D+03 -.247613108959280D+03
 0.227283242365592D+03 0.179793615876884D+03 0.108534389708203D+03 0.869034763447352D+02
 0.304146663152436D+03 0.250400563907779D+03 0.630647626359281D+02 0.160709632614544D+03
 0.000000000000000D+00 0.000000000000000D+00 0.000000000000000D+00 -.000000000000000D+00
 0.539871850783220D+03 0.000000000000000D+00 0.000000000000000D+00 0.539871850783220D+03
 0.651946230986163D+03 0.000000000000000D+00 0.000000000000000D+00 -.651946230986163D+03
 0.549702229906168D+03 -.433716051158962D+03 -.192680244971845D+03 -.247613108959280D+03
 0.222093955898255D+03 0.178341063360598D+03 0.998397524293159D+02 0.869034763447352D+02
 0.300320110334408D+03 0.248446704797367D+03 0.513694221448829D+02 0.160709632614544D+03
 0.119701785630551D+03 0.692828300099666D+01 0.414710703976461D+02 -.112074380202943D+03
0.825026290712D-04 0.000000000000D+00 0.000000000000D+00 0.116744724850D-03 0.428363831859D-06  6 2 -1 25 4 -3 21 2 0.12114270D+00 0.68766751D-01 0.24547489D+06 0.24547489D+06 0.24547489D+06 0.10910564D+01  1  2  1  2  6  2       -1 0.104440887110D-02 0.100000000000D+01
  </mgrwgt>
  </event>
  <event>
  6     66 0.16549492E-05 0.46975187E+02 0.75467711E-02 0.93956229E-01
        2 -1    0    0  501    0 0.00000000E+00 0.00000000E+00 0.10464182E+04 0.10464183E+04 0.32000000E+00 0.0000E+00 0.9000E+01
       -1 -1    0    0    0  501 0.00000000E+00 0.00000000E+00 -.38686388E+03 0.38686401E+03 0.32000000E+00 0.0000E+00 0.9000E+01
       25  1    1    2    0    0 -.68052207E+02 -.51674227E+03 0.71823315E+03 0.89617941E+03 0.12500000E+03 0.0000E+00 0.9000E+01
        4  1    1    2  502    0 0.64273508E+02 0.35912473E+03 -.10000484E+02 0.36497133E+03 0.15500000E+01 0.0000E+00 0.9000E+01
       -3  1    1    2    0  503 0.10632473E+02 0.14923444E+03 -.55196497E+02 0.15947060E+03 0.50000000E+00 0.0000E+00 0.9000E+01
       21  1    1    2  503  502 -.68537746E+01 0.83830941E+01 0.65181846E+01 0.12660953E+02 0.75000000E+00 0.0000E+00 0.9000E+01
#aMCatNLO 2  0  0  5  4 0.20923277D+00 0.00000000D+00  -5  6  0 0.00000000D+00 0.00000000D+00 0.00000000D+00 0.00000000D+00 0.00000000D+00
  <mgrwgt>
 0.2457421304D-02    1    2    0
 0.636255880576668D+03 0.000000000000000D+00 0.000000000000000D+00 0.636255880576668D+03
 0.636255880576668D+03 -.000000000000000D+00 -.000000000000000D+00 -.636255880576668D+03
 0.639830156382447D+03 -.681015727468769D+02 -.518801427279951D+03 0.346359472020146D+03
 0.414534544014399D+03 0.642553599641992D+02 0.357811478652499D+03 -.199201111045117D+03
 0.218147060756491D+03 0.384621278267765D+01 0.160989948627452D+03 -.147158360975029D+03
 0.000000000000000D+00 0.000000000000000D+00 0.000000000000000D+00 0.000000000000000D+00
 0.636255880576668D+03 0.000000000000000D+00 0.000000000000000D+00 0.636255880576668D+03
 0.636255880576668D+03 -.000000000000000D+00 -.000000000000000D+00 -.636255880576668D+03
 0.637124998462048D+03 -.680521623916012D+02 -.516733270626394D+03 0.344469002795378D+03
 0.416292355995058D+03 0.642875078843093D+02 0.359157085954909D+03 -.200431109357601D+03
 0.208207502137081D+03 0.106525134519182D+02 0.149184183585498D+03 -.144848083422763D+03
 0.108869045591497D+02 -.688785894462622D+01 0.839200108598634D+01 0.810189984986116D+00
0.219563126205D-03 0.000000000000D+00 0.000000000000D+00 0.199361097147D-03 0.297610525855D-05  6 2 -1 25 4 -3 21 2 0.16098743D+00 0.59517534D-01 0.28156884D+06 0.28156884D+06 0.28156884D+06 0.10865950D+01  1  2  1  4  6  5       -3 0.245742130383D-02 0.100000000000D+01
  </mgrwgt>
  </event>
  <event>
  7     66 0.16549492E-05 0.54806811E+02 0.75467711E-02 0.94414488E-01
        2 -1    0    0  501    0 0.00000000E+00 0.00000000E+00 0.56939726E+03 0.56939735E+03 0.32000000E+00 0.0000E+00 0.9000E+01
       -1 -1    0    0    0  503 0.00000000E+00 0.00000000E+00 -.76207504E+03 0.76207511E+03 0.32000000E+00 0.0000E+00 0.9000E+01
       24  2    1    2    0    0 0.48673558E+03 0.48152636E+02 0.31930690E+03 0.58966488E+03 0.80731474E+02 0.0000E+00 0.0000E+00
       25  1    1    2    0    0 -.48681396E+03 -.68450101E+02 -.45537069E+03 0.68166026E+03 0.12500000E+03 0.0000E+00 0.9000E+01
        4  1    3    3  502    0 0.18905755E+03 0.41404523E+02 0.16484068E+03 0.25422813E+03 0.15500000E+01 0.0000E+00 0.9000E+01
       -3  1    3    3    0  502 0.29767803E+03 0.67481132E+01 0.15446623E+03 0.33543675E+03 0.50000000E+00 0.0000E+00 0.9000E+01
       21  1    1    2  501  503 0.78373746E-01 0.20297465E+02 -.56613994E+02 0.60147320E+02 0.75000000E+00 0.0000E+00 0.9000E+01
#aMCatNLO 2  0  0  2  1 0.10720509D+02 0.00000000D+00  -5  6  0 0.00000000D+00 0.00000000D+00 0.00000000D+00 0.00000000D+00 0.00000000D+00
  <mgrwgt>
 0.3132720521D-02    1    2    0
 0.631930034336851D+03 0.000000000000000D+00 0.000000000000000D+00 0.631930034336851D+03
 0.631930034336851D+03 0.000000000000000D+00 0.000000000000000D+00 -.631930034336851D+03
 0.635533055530065D+03 -.486774515524045D+03 -.582357526743833D+02 -.384625054849734D+03
 0.274032641054149D+03 0.188971998680963D+03 0.457985604228567D+02 0.193095737759351D+03
 0.354294372089487D+03 0.297802516843082D+03 0.124371922515266D+02 0.191529317090382D+03
 0.000000000000000D+00 0.000000000000000D+00 0.000000000000000D+00 -.000000000000000D+00
 0.633975984658866D+03 0.000000000000000D+00 0.000000000000000D+00 0.633975984658866D+03
 0.684442361066566D+03 0.000000000000000D+00 0.000000000000000D+00 -.684442361066566D+03
 0.636580455821831D+03 -.486813955758030D+03 -.684501015002063D+02 -.384625054849734D+03
 0.273320739915223D+03 0.188955028697368D+03 0.414036237176618D+02 0.193095737759351D+03
 0.354121852482753D+03 0.297780553314350D+03 0.674901240980511D+01 0.191529317090382D+03
 0.543952975056242D+02 0.783737463119709D-01 0.202974653727394D+02 -.504663764077004D+02
0.530055645075D-03 0.000000000000D+00 0.000000000000D+00 0.203309315781D-03 0.313279722004D-05  6 2 -1 25 4 -3 21 2 0.87599235D-01 0.11724185D+00 0.25950792D+06 0.25950792D+06 0.25950792D+06 0.10892417D+01  1  2  1  2  6  2       -1 0.313272052136D-02 0.100000000000D+01
  </mgrwgt>
  </event>
  <event>
  7     66 0.16549492E-05 0.42345585E+02 0.75467711E-02 0.94619048E-01
        2 -1    0    0  503    0 0.00000000E+00 0.00000000E+00 0.23819720E+04 0.23819720E+04 0.32000000E+00 0.0000E+00 0.9000E+01
       -1 -1    0    0    0  501 0.00000000E+00 0.00000000E+00 -.11991067E+03 0.11991110E+03 0.32000000E+00 0.0000E+00 0.9000E+01
       24  2    1    2    0    0 0.40832887E+03 -.27261934E+03 0.86348091E+03 0.99655045E+03 0.80372604E+02 0.0000E+00 0.0000E+00
       25  1    1    2    0    0 -.38801079E+03 0.26625308E+03 0.10644316E+04 0.11705053E+04 0.12500000E+03 0.0000E+00 0.9000E+01
        4  1    3    3  502    0 0.11432146E+03 -.96995108E+02 0.33202981E+03 0.36431256E+03 0.15500000E+01 0.0000E+00 0.9000E+01
       -3  1    3    3    0  502 0.29400741E+03 -.17562423E+03 0.53145110E+03 0.63223789E+03 0.50000000E+00 0.0000E+00 0.9000E+01
       21  1    1    2  503  501 -.20318079E+02 0.63662591E+01 0.33414879E+03 0.33482731E+03 0.75000000E+00 0.0000E+00 0.9000E+01
#aMCatNLO 2  0  0  1  2 0.55585659D+02 0.00000000D+00  -5  6  0 0.00000000D+00 0.00000000D+00 0.00000000D+00 0.00000000D+00 0.00000000D+00
  <mgrwgt>
 0.2990282251D-02    1    2    0
 0.494679373884735D+03 0.000000000000000D+00 0.000000000000000D+00 0.494679373884735D+03
 0.494679373884735D+03 0.000000000000000D+00 0.000000000000000D+00 -.494679373884735D+03
 0.499311285516645D+03 -.398163200621904D+03 0.269434130879477D+03 0.505774122709639D+02
 0.147874252332491D+03 0.111149876979689D+03 -.959726566023266D+02 0.173709105974607D+02
 0.342173209920334D+03 0.287013323642215D+03 -.173461474277150D+03 -.679483228684246D+02
 0.000000000000000D+00 -.000000000000000D+00 0.000000000000000D+00 0.000000000000000D+00
 0.575624143486201D+03 0.000000000000000D+00 0.000000000000000D+00 0.575624143486201D+03
 0.496196096495700D+03 0.000000000000000D+00 0.000000000000000D+00 -.496196096495700D+03
 0.489516241448374D+03 -.388010791168326D+03 0.266253078755242D+03 0.505774122709639D+02
 0.150808693530199D+03 0.114216490196360D+03 -.969335178177555D+02 0.173709105974607D+02
 0.349262901135592D+03 0.294112380170278D+03 -.175685820029941D+03 -.679483228684246D+02
 0.822324038677360D+02 -.203180791983125D+02 0.636625909245401D+01 0.794280469905013D+02
0.195458969046D-03 0.000000000000D+00 0.000000000000D+00 0.324383839641D-03 0.458768635884D-05  6 2 -1 25 4 -3 21 2 0.36645600D+00 0.18447767D-01 0.25029156D+06 0.25029156D+06 0.25029156D+06 0.10904210D+01  1  2  1  1  6  1        2 0.299028225061D-02 0.100000000000D+01
  </mgrwgt>
  </event>
  <event>
  7     66 0.16549492E-05 0.29043021E+02 0.75467711E-02 0.94090134E-01
        2 -1    0    0  501    0 0.00000000E+00 0.00000000E+00 0.59143308E+03 0.59143317E+03 0.32000000E+00 0.0000E+00 0.9000E+01
       -1 -1    0    0    0  503 0.00000000E+00 0.00000000E+00 -.76458457E+03 0.76458464E+03 0.32000000E+00 0.0000E+00 0.9000E+01
       24  2    1    2    0    0 -.97507447E+02 0.47173349E+03 -.21170137E+03 0.53216117E+03 0.79610653E+02 0.0000E+00 0.0000E+00
       25  1    1    2    0    0 0.13005008E+03 -.49311875E+03 0.26911653E+03 0.59002358E+03 0.12500000E+03 0.0000E+00 0.9000E+01
        4  1    3    3  502    0 -.17140717E+02 0.22733206E+02 -.29366978E+02 0.40931952E+02 0.15500000E+01 0.0000E+00 0.9000E+01
       -3  1    3    3    0  502 -.80366731E+02 0.44900029E+03 -.18233439E+03 0.49122922E+03 0.50000000E+00 0.0000E+00 0.9000E+01
       21  1    1    2  501  503 -.32542637E+02 0.21385254E+02 -.23056665E+03 0.23383305E+03 0.75000000E+00 0.0000E+00 0.9000E+01
#aMCatNLO 2  0  0  2  1 0.49890136D+03 0.00000000D+00  -5  6  0 0.00000000D+00 0.00000000D+00 0.00000000D+00 0.00000000D+00 0.00000000D+00
  <mgrwgt>
 0.8572434951D-04    1    2    0
 0.560019145955264D+03 0.000000000000000D+00 0.000000000000000D+00 0.560019145955264D+03
 0.560019145955264D+03 0.000000000000000D+00 0.000000000000000D+00 -.560019145955264D+03
 0.564165050665510D+03 0.113476704615348D+03 -.482227621786144D+03 0.239242058778424D+03
 0.432552542320287D+02 -.183534652234209D+02 0.233803592777132D+02 -.314249285284018D+02
 0.512617987012989D+03 -.951232393919270D+02 0.458847262508430D+03 -.207817130250022D+03
 0.000000000000000D+00 -.000000000000000D+00 0.000000000000000D+00 -.000000000000000D+00
 0.561908604725400D+03 0.000000000000000D+00 0.000000000000000D+00 0.561908604725400D+03
 0.804756844396724D+03 0.000000000000000D+00 0.000000000000000D+00 -.804756844396724D+03
 0.577010299507320D+03 0.130050084240591D+03 -.493118746995086D+03 0.239242058778424D+03
 0.423017211364837D+02 -.171109145215020D+02 0.225638224228857D+02 -.314249285284018D+02
 0.501402986685264D+03 -.803965328060249D+02 0.449169670552585D+03 -.207817130250022D+03
 0.245950441793057D+03 -.325426369130636D+02 0.213852540196155D+02 -.242848239671324D+03
0.153702007559D-04 0.000000000000D+00 0.000000000000D+00 0.196662894395D-04 0.852277360562D-07  6 2 -1 25 4 -3 21 2 0.90989625D-01 0.11762829D+00 0.27491237D+06 0.27491237D+06 0.27491237D+06 0.10873691D+01  1  2  1  2  6  2       -1 0.857243495077D-04 0.100000000000D+01
  </mgrwgt>
  </event>
  <event>
  7     66 0.16549492E-05 0.67666771E+02 0.75467711E-02 0.94521398E-01
        2 -1    0    0  501    0 0.00000000E+00 0.00000000E+00 0.57559207E+03 0.57559216E+03 0.32000000E+00 0.0000E+00 0.9000E+01
       -1 -1    0    0    0  503 0.00000000E+00 0.00000000E+00 -.53320585E+03 0.53320595E+03 0.32000000E+00 0.0000E+00 0.9000E+01
       24  2    1    2    0    0 0.23519756E+03 0.43374890E+03 -.12416782E+03 0.51535618E+03 0.81965547E+02 0.0000E+00 0.0000E+00
       25  1    1    2    0    0 -.23975526E+03 -.40713293E+03 0.21814058E+03 0.53521035E+03 0.12500000E+03 0.0000E+00 0.9000E+01
        4  1    3    3  502    0 0.11407249E+03 0.22037602E+03 -.20504143E+02 0.24899989E+03 0.15500000E+01 0.0000E+00 0.9000E+01
       -3  1    3    3    0  502 0.12112507E+03 0.21337288E+03 -.10366368E+03 0.26635629E+03 0.50000000E+00 0.0000E+00 0.9000E+01
       21  1    1    2  501  503 0.45577006E+01 -.26615962E+02 -.51586543E+02 0.58231572E+02 0.75000000E+00 0.0000E+00 0.9000E+01
#aMCatNLO 2  0  0  2  1 0.29336895D+03 0.00000000D+00  -5  6  0 0.00000000D+00 0.00000000D+00 0.00000000D+00 0.00000000D+00 0.00000000D+00
  <mgrwgt>
 0.1320569654D-02    1    2    0
 0.523003340611057D+03 0.000000000000000D+00 0.000000000000000D+00 0.523003340611057D+03
 0.523003340611057D+03 0.000000000000000D+00 0.000000000000000D+00 -.523003340611057D+03
 0.527260794047630D+03 -.237478905469257D+03 -.420426326710070D+03 0.170951508346488D+03
 0.246728846095823D+03 0.115119229010312D+03 0.213966919314113D+03 -.429050585254883D+02
 0.272017041078659D+03 0.122359676458945D+03 0.206459407395956D+03 -.128046449820999D+03
 0.000000000000000D+00 0.000000000000000D+00 -.000000000000000D+00 -.000000000000000D+00
 0.526212865155226D+03 0.000000000000000D+00 0.000000000000000D+00 0.526212865155226D+03
 0.583236548271121D+03 0.000000000000000D+00 0.000000000000000D+00 -.583236548271121D+03
 0.517773336000920D+03 -.239755257744486D+03 -.407132933636494D+03 0.170951508346488D+03
 0.251753900706617D+03 0.114033405780028D+03 0.220307886468299D+03 -.429050585254883D+02
 0.276827941626782D+03 0.121164151366313D+03 0.213441009127208D+03 -.128046449820999D+03
 0.630942350920277D+02 0.455770059814496D+01 -.266159619590127D+02 -.570236831158960D+02
0.101987426334D-03 0.000000000000D+00 0.000000000000D+00 0.105051714500D-03 0.918975293216D-06  6 2 -1 25 4 -3 21 2 0.88552267D-01 0.82031338D-01 0.25464447D+06 0.25464447D+06 0.25464447D+06 0.10898582D+01  1  2  1  2  6  2       -1 0.132056965424D-02 0.100000000000D+01
  </mgrwgt>
  </event>
  <event>
  7     66 0.16549492E-05 0.48545890E+02 0.75467711E-02 0.94695485E-01
        2 -1    0    0  503    0 0.00000000E+00 0.00000000E+00 0.11281103E+04 0.11281103E+04 0.32000000E+00 0.0000E+00 0.9000E+01
       -1 -1    0    0    0  501 0.00000000E+00 0.00000000E+00 -.22694545E+03 0.22694567E+03 0.32000000E+00 0.0000E+00 0.9000E+01
       24  2    1    2    0    0 0.17854910E+02 0.48448006E+03 0.54140201E+03 0.73120719E+03 0.80672797E+02 0.0000E+00 0.0000E+00
       25  1    1    2    0    0 0.39370761E+01 -.45796015E+03 0.34276139E+03 0.58553682E+03 0.12500000E+03 0.0000E+00 0.9000E+01
        4  1    3    3  502    0 0.63512075E+01 0.19445749E+03 0.27753486E+03 0.33894255E+03 0.15500000E+01 0.0000E+00 0.9000E+01
       -3  1    3    3    0  502 0.11503703E+02 0.29002257E+03 0.26386714E+03 0.39226464E+03 0.50000000E+00 0.0000E+00 0.9000E+01
       21  1    1    2  503  501 -.21791986E+02 -.26519907E+02 0.17001423E+02 0.38311970E+02 0.75000000E+00 0.0000E+00 0.9000E+01
#aMCatNLO 2  0  0  1  2 0.28713419D+01 0.00000000D+00  -5  6  0 0.00000000D+00 0.00000000D+00 0.00000000D+00 0.00000000D+00 0.00000000D+00
  <mgrwgt>
 0.1661652804D-02    1    2    0
 0.487568375629516D+03 0.000000000000000D+00 0.000000000000000D+00 0.487568375629516D+03
 0.487568375629516D+03 0.000000000000000D+00 0.000000000000000D+00 -.487568375629516D+03
 0.492243053255372D+03 -.691852084801138D+01 -.471170941704211D+03 -.680316194207754D+02
 0.200510204290810D+03 0.180845974296374D+01 0.188834396515496D+03 0.673991260383175D+02
 0.282383493712851D+03 0.511006110504764D+01 0.282336545188715D+03 0.632493382457866D+00
 0.000000000000000D+00 -.000000000000000D+00 -.000000000000000D+00 -.000000000000000D+00
 0.500127696168558D+03 0.000000000000000D+00 0.000000000000000D+00 0.500127696168558D+03
 0.511900732678516D+03 0.000000000000000D+00 0.000000000000000D+00 -.511900732678516D+03
 0.479579294147191D+03 0.393707608230430D+01 -.457960148447031D+03 -.680316194207754D+02
 0.205810358345058D+03 0.634720312982160D+01 0.194357851459160D+03 0.673991260383175D+02
 0.290351030164239D+03 0.115077068845498D+02 0.290122204168890D+03 0.632493382457866D+00
 0.362877461905858D+02 -.217919860966757D+02 -.265199071810189D+02 -.117730365099581D+02
0.630919031416D-04 0.000000000000D+00 0.000000000000D+00 0.351178971406D-03 0.189287115628D-05  6 2 -1 25 4 -3 21 2 0.17355411D+00 0.34914436D-01 0.24694244D+06 0.24694244D+06 0.24694244D+06 0.10908614D+01  1  2  1  1  6  1        2 0.166165280414D-02 0.100000000000D+01
  </mgrwgt>
  </event>
  <event>
  7     66 0.16549492E-05 0.56534714E+02 0.75467711E-02 0.94701511E-01
        2 -1    0    0  501    0 0.00000000E+00 0.00000000E+00 0.13610571E+04 0.13610572E+04 0.32000000E+00 0.0000E+00 0.9000E+01
       21 -1    0    0  503  501 0.00000000E+00 0.00000000E+00 -.42259505E+03 0.42259571E+03 0.75000000E+00 0.0000E+00 0.9000E+01
       24  2    1    2    0    0 0.47174022E+03 -.55430947E+02 0.52714816E+03 0.71408163E+03 0.80099759E+02 0.0000E+00 0.0000E+00
       25  1    1    2    0    0 -.47348835E+03 0.27621678E+02 0.65834505E+03 0.82097343E+03 0.12500000E+03 0.0000E+00 0.9000E+01
        4  1    3    3  502    0 0.20704122E+03 -.24047315E+02 0.17330765E+03 0.27107616E+03 0.15500000E+01 0.0000E+00 0.9000E+01
        1  1    1    2  503    0 0.17481314E+01 0.27809269E+02 -.24703111E+03 0.24859783E+03 0.32000000E+00 0.0000E+00 0.9000E+01
       -3  1    3    3    0  502 0.26469900E+03 -.31383632E+02 0.35384051E+03 0.44300547E+03 0.50000000E+00 0.0000E+00 0.9000E+01
#aMCatNLO 2  0  0  2  1 0.29336895D+03 0.00000000D+00  -5  6  0 0.00000000D+00 0.00000000D+00 0.00000000D+00 0.00000000D+00 0.00000000D+00
  <mgrwgt>
 0.1593979618D-02    1    2    0
 0.487397041442784D+03 0.000000000000000D+00 0.000000000000000D+00 0.487397041442784D+03
 0.487397041442784D+03 0.000000000000000D+00 0.000000000000000D+00 -.487397041442784D+03
 0.492120617862233D+03 -.472606121279415D+03 0.416562078267400D+02 0.382872955930319D+02
 0.215702717398051D+03 0.207337082931625D+03 -.178808805084831D+02 -.567386151271705D+02
 0.000000000000000D+00 0.000000000000000D+00 0.000000000000000D+00 -.000000000000000D+00
 0.266970747625283D+03 0.265269038347791D+03 -.237753273182569D+02 0.184513195341386D+02
 0.487876885189658D+03 0.000000000000000D+00 0.000000000000000D+00 0.487876885189658D+03
 0.117893790248141D+04 0.000000000000000D+00 0.000000000000000D+00 -.117893790248141D+04
 0.491980786171161D+03 -.473488352382259D+03 0.276216783722289D+02 0.382872955930319D+02
 0.215929110312792D+03 0.206950131930617D+03 -.240364957476081D+02 -.567386151271705D+02
 0.691622542301785D+03 0.174813142411520D+01 0.278092688899954D+02 -.691061017291753D+03
 0.267282348885332D+03 0.264790089027527D+03 -.313944515146162D+02 0.184513195341386D+02
0.307891658708D-04 0.000000000000D+00 0.000000000000D+00 0.178023486954D-03 0.199921825369D-06  6 2 21 25 4 1 -3 2 0.20939345D+00 0.65014672D-01 0.24668055D+06 0.24668055D+06 0.24668055D+06 0.10908961D+01  1  2  1  6  5  2       -1 0.159397961752D-02 0.100000000000D+01
  </mgrwgt>
  </event>
  <event>
  7     66 0.16549492E-05 0.52346828E+02 0.75467711E-02 0.92302615E-01
        2 -1    0    0  503    0 0.00000000E+00 0.00000000E+00 0.76733166E+03 0.76733173E+03 0.32000000E+00 0.0000E+00 0.9000E+01
       -1 -1    0    0    0  501 0.00000000E+00 0.00000000E+00 -.72447306E+03 0.72447313E+03 0.32000000E+00 0.0000E+00 0.9000E+01
       24  2    1    2    0    0 0.52409410E+03 0.22054970E+03 -.10218621E+03 0.58326964E+03 0.80278595E+02 0.0000E+00 0.0000E+00
       25  1    1    2    0    0 -.56803347E+03 -.19263021E+03 -.13190711E+03 0.62673192E+03 0.12500000E+03 0.0000E+00 0.9000E+01
        4  1    3    3  502    0 0.26087904E+03 0.97749964E+02 -.10892061E+02 0.27880812E+03 0.15500000E+01 0.0000E+00 0.9000E+01
       -3  1    3    3    0  502 0.26321506E+03 0.12279974E+03 -.91294152E+02 0.30446152E+03 0.50000000E+00 0.0000E+00 0.9000E+01
       21  1    1    2  503  501 0.43939367E+02 -.27919497E+02 0.27695192E+03 0.28180329E+03 0.75000000E+00 0.0000E+00 0.9000E+01
#aMCatNLO 2  0  0  1  2 0.37917718D+03 0.00000000D+00  -5  6  0 0.00000000D+00 0.00000000D+00 0.00000000D+00 0.00000000D+00 0.00000000D+00
  <mgrwgt>
 0.1390396550D-02    1    2    0
 0.592999566145691D+03 0.000000000000000D+00 0.000000000000000D+00 0.592999566145691D+03
 0.592999566145691D+03 0.000000000000000D+00 0.000000000000000D+00 -.592999566145691D+03
 0.596869867166474D+03 -.545636277380536D+03 -.206861597500152D+03 -.108614279595558D+02
 0.289564387970161D+03 0.271372404309770D+03 0.909844350760936D+02 0.438906087170400D+02
 0.299564877154748D+03 0.274263873070765D+03 0.115877162424058D+03 -.330291807574842D+02
 0.000000000000000D+00 0.000000000000000D+00 -.000000000000000D+00 0.000000000000000D+00
 0.933418124659503D+03 0.000000000000000D+00 0.000000000000000D+00 0.933418124659503D+03
 0.595564237860961D+03 0.000000000000000D+00 0.000000000000000D+00 -.595564237860961D+03
 0.612789842313241D+03 -.568033471057456D+03 -.192630205272653D+03 -.108614279595558D+02
 0.281931157472131D+03 0.260791001691778D+03 0.977079600473896D+02 0.438906087170400D+02
 0.292420149405321D+03 0.263303101880490D+03 0.122841741834086D+03 -.330291807574842D+02
 0.341841213329771D+03 0.439393674851883D+02 -.279194966088223D+02 0.337853886798541D+03
0.310660701378D-03 0.000000000000D+00 0.000000000000D+00 0.361880658268D-03 0.912425481413D-06  6 2 -1 25 4 -3 21 2 0.11805095D+00 0.11145733D+00 0.38056280D+06 0.38056280D+06 0.38056280D+06 0.10769907D+01  1  2  1  1  6  1        2 0.139039654999D-02 0.100000000000D+01
  </mgrwgt>
  </event>
  <event>
  7     66 0.16549492E-05 0.35717940E+02 0.75467711E-02 0.93132219E-01
       21 -1    0    0  501  503 0.00000000E+00 0.00000000E+00 0.13590973E+04 0.13590975E+04 0.75000000E+00 0.0000E+00 0.9000E+01
       -3 -1    0    0    0  501 0.00000000E+00 0.00000000E+00 -.25817162E+03 0.25817210E+03 0.50000000E+00 0.0000E+00 0.9000E+01
       24  2    1    2    0    0 -.12760907E+02 0.54698753E+03 0.50900367E+03 0.75154104E+03 0.79818511E+02 0.0000E+00 0.0000E+00
       25  1    1    2    0    0 0.35967581E+01 -.56039058E+03 0.46801320E+03 0.74075090E+03 0.12500000E+03 0.0000E+00 0.9000E+01
        2  1    3    3  502    0 0.30203463E+02 0.12353351E+03 0.11038013E+03 0.16839434E+03 0.32000000E+00 0.0000E+00 0.9000E+01
       -1  1    3    3    0  502 -.42964370E+02 0.42345402E+03 0.39862354E+03 0.58314670E+03 0.32000000E+00 0.0000E+00 0.9000E+01
       -4  1    1    2    0  503 0.91641493E+01 0.13403050E+02 0.12390878E+03 0.12497764E+03 0.15500000E+01 0.0000E+00 0.9000E+01
#aMCatNLO 2  0  0  1  2 0.24935445D+03 0.00000000D+00  -5  6  0 0.00000000D+00 0.00000000D+00 0.00000000D+00 0.00000000D+00 0.00000000D+00
  <mgrwgt>
 0.1084064152D-04    1    2    0
 0.563939187996389D+03 0.000000000000000D+00 0.000000000000000D+00 0.563939187996389D+03
 0.563939187996389D+03 0.000000000000000D+00 0.000000000000000D+00 -.563939187996389D+03
 0.568041583014765D+03 0.823861819604589D+01 -.553601615364497D+03 -.224414052581313D+02
 0.128894481377982D+03 0.312448539738389D+02 0.125050056313608D+03 0.172759416022483D+00
 0.430942311600032D+03 -.394834721698848D+02 0.428551559050889D+03 0.222686458421088D+02
 0.000000000000000D+00 0.000000000000000D+00 0.000000000000000D+00 0.000000000000000D+00
 0.620832678972861D+03 0.000000000000000D+00 0.000000000000000D+00 0.620832678972861D+03
 0.565157216796209D+03 0.000000000000000D+00 0.000000000000000D+00 -.565157216796209D+03
 0.574612177857085D+03 0.359675811404015D+01 -.560390579509302D+03 -.224414052581313D+02
 0.127167946019414D+03 0.302046386427043D+02 0.123528686763215D+03 0.172759416022483D+00
 0.426215112994738D+03 -.429655460661677D+02 0.423458843110771D+03 0.222686458421088D+02
 0.579946588978322D+02 0.916414930942320D+01 0.134030496353167D+02 0.556754621766514D+02
0.271210996723D-05 0.000000000000D+00 0.000000000000D+00 0.144669538304D-03 0.539830386764D-07  6 21 -3 25 2 -1 -4 2 0.20908812D+00 0.39718037D-01 0.32673289D+06 0.32673289D+06 0.32673289D+06 0.10818198D+01  1  2  1  5  6  1        4 0.108406415171D-04 0.100000000000D+01
  </mgrwgt>
  </event>
  <event>
  7     66 0.16549492E-05 0.25133090E+02 0.75467711E-02 0.94527152E-01
        2 -1    0    0  503    0 0.00000000E+00 0.00000000E+00 0.15684754E+04 0.15684755E+04 0.32000000E+00 0.0000E+00 0.9000E+01
       -1 -1    0    0    0  501 0.00000000E+00 0.00000000E+00 -.20767827E+03 0.20767852E+03 0.32000000E+00 0.0000E+00 0.9000E+01
       24  2    1    2    0    0 -.12510203E+03 -.44617538E+03 0.23924616E+03 0.52789068E+03 0.81895426E+02 0.0000E+00 0.0000E+00
       25  1    1    2    0    0 0.16252130E+03 0.46015616E+03 0.99035452E+03 0.11111183E+04 0.12500000E+03 0.0000E+00 0.9000E+01
        4  1    3    3  502    0 -.44958586E+02 -.99294915E+02 0.23213453E+02 0.11145412E+03 0.15500000E+01 0.0000E+00 0.9000E+01
       -3  1    3    3    0  502 -.80143448E+02 -.34688046E+03 0.21603270E+03 0.41643656E+03 0.50000000E+00 0.0000E+00 0.9000E+01
       21  1    1    2  503  501 -.37419268E+02 -.13980778E+02 0.13119649E+03 0.13714497E+03 0.75000000E+00 0.0000E+00 0.9000E+01
#aMCatNLO 2  0  0  1  2 0.24935445D+03 0.00000000D+00  -5  6  0 0.00000000D+00 0.00000000D+00 0.00000000D+00 0.00000000D+00 0.00000000D+00
  <mgrwgt>
 0.4600249046D-03    1    2    0
 0.541488005050982D+03 0.000000000000000D+00 0.000000000000000D+00 0.541488005050982D+03
 0.541488005050982D+03 0.000000000000000D+00 0.000000000000000D+00 -.541488005050982D+03
 0.545605427540806D+03 0.143482775442688D+03 0.453042883678776D+03 0.237118369725477D+03
 0.145021878349069D+03 -.498900805435846D+02 -.101026942668147D+03 -.913010510255699D+02
 0.392348704212090D+03 -.935926948991030D+02 -.352015941010630D+03 -.145817318699907D+03
 0.000000000000000D+00 -.000000000000000D+00 -.000000000000000D+00 0.000000000000000D+00
 0.592541113624074D+03 0.000000000000000D+00 0.000000000000000D+00 0.592541113624074D+03
 0.549726742727421D+03 0.000000000000000D+00 0.000000000000000D+00 -.549726742727421D+03
 0.556782706388495D+03 0.162521302378229D+03 0.460156155174864D+03 0.237118369725477D+03
 0.142092465590940D+03 -.449315418924122D+02 -.991743081776185D+02 -.913010510255699D+02
 0.384837290902429D+03 -.801704926397466D+02 -.347001069373267D+03 -.145817318699907D+03
 0.585553934696307D+02 -.374192678460704D+02 -.139807776239782D+02 0.428143708966532D+02
0.266264669762D-04 0.000000000000D+00 0.000000000000D+00 0.370343956249D-04 0.148138190660D-06  6 2 -1 25 4 -3 21 2 0.24130289D+00 0.31950386D-01 0.25438565D+06 0.25438565D+06 0.25438565D+06 0.10898914D+01  1  2  1  1  6  1        2 0.460024904571D-03 0.100000000000D+01
  </mgrwgt>
  </event>
  <event>
  7     66 0.16549492E-05 0.99911360E+02 0.75467711E-02 0.95013565E-01
        2 -1    0    0  501    0 0.00000000E+00 0.00000000E+00 0.82426819E+03 0.82426825E+03 0.32000000E+00 0.0000E+00 0.9000E+01
       -1 -1    0    0    0  503 0.00000000E+00 0.00000000E+00 -.63279127E+03 0.63279136E+03 0.32000000E+00 0.0000E+00 0.9000E+01
       24  2    1    2    0    0 -.11877365E+03 0.32475053E+03 0.32788004E+03 0.48322058E+03 0.80166816E+02 0.0000E+00 0.0000E+00
       25  1    1    2    0    0 0.15835011E+03 -.44448206E+03 0.26337421E+03 0.55464406E+03 0.12500000E+03 0.0000E+00 0.9000E+01
        4  1    3    3  502    0 -.63226952E+02 0.83635614E+02 0.12568729E+03 0.16368342E+03 0.15500000E+01 0.0000E+00 0.9000E+01
       -3  1    3    3    0  502 -.55546694E+02 0.24111491E+03 0.20219275E+03 0.31953716E+03 0.50000000E+00 0.0000E+00 0.9000E+01
       21  1    1    2  501  503 -.39576460E+02 0.11973154E+03 -.39977734E+03 0.41919497E+03 0.75000000E+00 0.0000E+00 0.9000E+01
#aMCatNLO 2  0  0  2  2 0.60001153D+02 0.00000000D+00  -5  6  0 0.00000000D+00 0.00000000D+00 0.00000000D+00 0.00000000D+00 0.00000000D+00
  <mgrwgt>
 0.1233051265D-01    1    2    0
 0.421805487915510D+03 0.000000000000000D+00 0.000000000000000D+00 0.421805487915510D+03
 0.421805487915510D+03 0.000000000000000D+00 0.000000000000000D+00 -.421805487915510D+03
 0.427257219792551D+03 0.136899587532001D+03 -.379587338730216D+03 -.639975552200288D+02
 0.128018097895665D+03 -.688063991870396D+02 0.100483722101959D+03 0.394630765687887D+02
 0.288335658142803D+03 -.680931883449618D+02 0.279103616628257D+03 0.245344786512401D+02
 0.000000000000000D+00 -.000000000000000D+00 0.000000000000000D+00 -.000000000000000D+00
 0.431575137830801D+03 0.000000000000000D+00 0.000000000000000D+00 0.431575137830801D+03
 0.120857146381936D+04 0.000000000000000D+00 0.000000000000000D+00 -.120857146381936D+04
 0.492300466137812D+03 0.158350105818119D+03 -.444482064736876D+03 -.639975552200288D+02
 0.111951107881741D+03 -.632086385295062D+02 0.835486933405988D+02 0.394630765687887D+02
 0.248732256825902D+03 -.555650073431709D+02 0.241201834366930D+03 0.245344786512401D+02
 0.787162770804711D+03 -.395764599454423D+02 0.119731537029348D+03 -.776996325988564D+03
0.210732836287D-02 0.000000000000D+00 0.000000000000D+00 0.276210920550D-03 0.183113468813D-06  6 2 -1 25 4 -3 21 2 0.12681045D+00 0.97352475D-01 0.23353550D+06 0.23353550D+06 0.23353550D+06 0.10926919D+01  1  2  1  2  6  2       -1 0.123305126535D-01 0.100000000000D+01
  </mgrwgt>
  </event>
  <event>
  6     66 0.16549492E-05 0.19086323E+02 0.75467711E-02 0.94109192E-01
        2 -1    0    0  501    0 0.00000000E+00 0.00000000E+00 0.22258425E+03 0.22258448E+03 0.32000000E+00 0.0000E+00 0.9000E+01
       -1 -1    0    0    0  501 0.00000000E+00 0.00000000E+00 -.11193135E+04 0.11193135E+04 0.32000000E+00 0.0000E+00 0.9000E+01
       24  2    1    2    0    0 -.46505588E+03 0.10551773E+03 -.58091750E+03 0.75642981E+03 0.85498281E+02 0.0000E+00 0.0000E+00
       25  1    1    2    0    0 0.46505588E+03 -.10551773E+03 -.31581174E+03 0.58546820E+03 0.12500000E+03 0.0000E+00 0.9000E+01
        4  1    3    3  502    0 -.23283967E+02 -.33576982E+01 -.81631816E+01 0.24949094E+02 0.15500000E+01 0.0000E+00 0.9000E+01
       -3  1    3    3    0  502 -.44177191E+03 0.10887543E+03 -.57275432E+03 0.73148072E+03 0.50000000E+00 0.0000E+00 0.9000E+01
#aMCatNLO 1  0  0  2  2 0.72690008D+02 0.00000000D+00  -5  6  0 0.00000000D+00 0.00000000D+00 0.00000000D+00 0.00000000D+00 0.00000000D+00
  <mgrwgt>
 0.7918930042D-03    4    2    0
 0.499140999855613D+03 0.000000000000000D+00 0.000000000000000D+00 0.499140999855613D+03
 0.499140999855613D+03 0.000000000000000D+00 0.000000000000000D+00 -.499140999855613D+03
 0.503305678871057D+03 0.465055880569678D+03 -.105517731298377D+03 0.101393504294211D+03
 0.260507602238578D+02 -.231395129552566D+02 -.339360781511136D+01 0.114755598744312D+02
 0.468925560616312D+03 -.441916367614421D+03 0.108911339113489D+03 -.112869064168642D+03
 0.000000000000000D+00 -.000000000000000D+00 -.000000000000000D+00 0.000000000000000D+00
 0.543334665491616D+03 0.000000000000000D+00 0.000000000000000D+00 0.543334665491616D+03
 0.531274055186563D+03 0.000000000000000D+00 0.000000000000000D+00 -.531274055186563D+03
 0.505040724566745D+03 0.473582161850271D+03 -.698600510668697D+02 0.101393504294211D+03
 0.254875592894384D+02 -.227037200497617D+02 -.157108243037363D+01 0.114755598744312D+02
 0.470396682501104D+03 -.433973734377835D+03 0.142128150385121D+03 -.112869064168642D+03
 0.736837543208915D+02 -.169047074226746D+02 -.706970168878781D+02 0.120606103050529D+02
0.157315908774D-03 0.000000000000D+00 0.000000000000D+00 0.378150664847D-05 0.000000000000D+00  6 2 -1 25 4 -3 21 0 0.34243752D-01 0.17220210D+00 0.23595942D+06 0.23595942D+06 0.23595942D+06 0.10923526D+01  1  2  2  2  6  2       -1 0.773167335180D-03 0.100000000000D+01
0.502751159522D-04 0.000000000000D+00 -.604134511923D-06 0.378150664847D-05 0.000000000000D+00  6 2 -1 25 4 -3 21 2 0.34243752D-01 0.17220210D+00 0.23595942D+06 0.23595942D+06 0.23595942D+06 0.10923526D+01  1  2  3  2  6  2       -1 0.294835408292D-03 0.100000000000D+01
-.451270711002D-04 0.000000000000D+00 0.000000000000D+00 0.378150664847D-05 0.000000000000D+00  6 2 -1 25 4 -3 21 2 0.34243752D-01 0.17220210D+00 0.23595942D+06 0.23595942D+06 0.23595942D+06 0.10923526D+01  1  2 15  2  6  2       -1 -.264645007392D-03 0.100000000000D+01
-.195495761624D-05 0.000000000000D+00 0.000000000000D+00 0.378150664847D-05 0.000000000000D+00  6 2 -1 25 4 -3 21 2 0.34243752D-01 0.17220210D+00 0.23595942D+06 0.23595942D+06 0.23595942D+06 0.10923526D+01  1  2  4  2  6  2       -1 -.114647319267D-04 0.100000000000D+01
  </mgrwgt>
  </event>
  <event>
  7     66 0.16549492E-05 0.38739416E+02 0.75467711E-02 0.91968547E-01
        2 -1    0    0  503    0 0.00000000E+00 0.00000000E+00 0.83629588E+03 0.83629595E+03 0.32000000E+00 0.0000E+00 0.9000E+01
       -1 -1    0    0    0  501 0.00000000E+00 0.00000000E+00 -.61480627E+03 0.61480635E+03 0.32000000E+00 0.0000E+00 0.9000E+01
       24  2    1    2    0    0 0.55956490E+03 0.28959006E+03 -.21838813E+03 0.67174721E+03 0.81090411E+02 0.0000E+00 0.0000E+00
       25  1    1    2    0    0 -.54500303E+03 -.28146389E+03 0.42236056E+03 0.75515804E+03 0.12500000E+03 0.0000E+00 0.9000E+01
        4  1    3    3  502    0 0.14329871E+03 0.70834258E+02 -.19025493E+02 0.16098567E+03 0.15500000E+01 0.0000E+00 0.9000E+01
       -3  1    3    3    0  502 0.41626619E+03 0.21875580E+03 -.19936264E+03 0.51076154E+03 0.50000000E+00 0.0000E+00 0.9000E+01
       21  1    1    2  503  501 -.14561869E+02 -.81261700E+01 0.17517191E+02 0.24197048E+02 0.75000000E+00 0.0000E+00 0.9000E+01
#aMCatNLO 2  0  0  1  2 0.19128310D+01 0.00000000D+00  -5  6  0 0.00000000D+00 0.00000000D+00 0.00000000D+00 0.00000000D+00 0.00000000D+00
  <mgrwgt>
 0.4192900429D-02    1    2    0
 0.706076439449226D+03 0.000000000000000D+00 0.000000000000000D+00 0.706076439449226D+03
 0.706076439449226D+03 0.000000000000000D+00 0.000000000000000D+00 -.706076439449226D+03
 0.709280534942310D+03 -.552279172947622D+03 -.285524300259554D+03 0.317675095557760D+03
 0.163339290844650D+03 0.141458090218544D+03 0.698117114832730D+02 -.423752001190744D+02
 0.539533053111491D+03 0.410821082729078D+03 0.215712588776281D+03 -.275299895438685D+03
 0.000000000000000D+00 -.000000000000000D+00 -.000000000000000D+00 0.000000000000000D+00
 0.724180275234564D+03 0.000000000000000D+00 0.000000000000000D+00 0.724180275234564D+03
 0.709976245547951D+03 0.000000000000000D+00 0.000000000000000D+00 -.709976245547951D+03
 0.701991945803617D+03 -.545003031466810D+03 -.281463889917523D+03 0.317675095557760D+03
 0.165211098022647D+03 0.143152007690605D+03 0.707569927206212D+02 -.423752001190744D+02
 0.545048292176670D+03 0.416412892548535D+03 0.218833067189389D+03 -.275299895438685D+03
 0.219051847795803D+02 -.145618687723302D+02 -.812616999248788D+01 0.142040296866129D+02
0.724688222785D-03 0.000000000000D+00 0.000000000000D+00 0.160765027209D-03 0.356362826651D-05  6 2 -1 25 4 -3 21 2 0.12865976D+00 0.94584739D-01 0.40498687D+06 0.40498687D+06 0.40498687D+06 0.10750399D+01  1  2  1  1  6  1        2 0.419290042862D-02 0.100000000000D+01
  </mgrwgt>
  </event>
  <event>
  6     66 0.16549492E-05 0.31767156E+02 0.75467711E-02 0.92826616E-01
        2 -1    0    0  501    0 0.00000000E+00 0.00000000E+00 0.27824763E+04 0.27824764E+04 0.32000000E+00 0.0000E+00 0.9000E+01
       -1 -1    0    0    0  501 0.00000000E+00 0.00000000E+00 -.12829224E+03 0.12829264E+03 0.32000000E+00 0.0000E+00 0.9000E+01
       25  1    1    2    0    0 0.46347675E+03 -.29054825E+03 0.10445200E+04 0.11856964E+04 0.12500000E+03 0.0000E+00 0.9000E+01
        4  1    1    2  502    0 -.13433056E+03 0.43107161E+02 0.39021815E+03 0.41494040E+03 0.15500000E+01 0.0000E+00 0.9000E+01
       -3  1    1    2    0  503 -.35419628E+03 0.26536689E+03 0.11786779E+04 0.12590300E+04 0.50000000E+00 0.0000E+00 0.9000E+01
       21  1    1    2  503  502 0.25050080E+02 -.17925802E+02 0.40768028E+02 0.51102206E+02 0.75000000E+00 0.0000E+00 0.9000E+01
#aMCatNLO 2  0  0  5  2 0.16885330D+02 0.00000000D+00  -5  6  0 0.00000000D+00 0.00000000D+00 0.00000000D+00 0.00000000D+00 0.00000000D+00
  <mgrwgt>
 0.7487506452D-02    1    2    0
 0.597470285520993D+03 0.000000000000000D+00 0.000000000000000D+00 0.597470285520993D+03
 0.597470285520993D+03 -.000000000000000D+00 -.000000000000000D+00 -.597470285520993D+03
 0.600779816220234D+03 0.489961148409950D+03 -.310458333110181D+03 -.941545751882005D+02
 0.136330903401739D+03 -.127889544470462D+03 0.382533132130794D+02 0.276959142418917D+02
 0.457829851420012D+03 -.362071603939487D+03 0.272205019897101D+03 0.664586609463087D+02
 0.000000000000000D+00 0.000000000000000D+00 0.000000000000000D+00 -.000000000000000D+00
 0.597470285520993D+03 0.000000000000000D+00 0.000000000000000D+00 0.597470285520993D+03
 0.597470285520993D+03 -.000000000000000D+00 -.000000000000000D+00 -.597470285520993D+03
 0.568148642082984D+03 0.463452472535192D+03 -.290529140747611D+03 -.892888771248126D+02
 0.143896765101568D+03 -.134244479524636D+03 0.430309461565218D+02 0.288623699084117D+02
 0.448941319609878D+03 -.354283735674111D+03 0.265443184381636D+03 0.746408665222472D+02
 0.339538442475569D+02 0.250757426635547D+02 -.179449897905470D+02 -.142143593058463D+02
0.970866203388D-03 0.000000000000D+00 0.000000000000D+00 0.359436443748D-05 0.158043370943D-06  6 2 -1 25 4 -3 21 2 0.42807331D+00 0.19737301D-01 0.34550255D+06 0.34550255D+06 0.34550255D+06 0.10800434D+01  1  2  1  4  6  5       -3 0.748750645181D-02 0.100000000000D+01
  </mgrwgt>
  </event>
  <event>
  7     66 0.16549492E-05 0.26813918E+02 0.75467711E-02 0.93293470E-01
        2 -1    0    0  501    0 0.00000000E+00 0.00000000E+00 0.13899482E+04 0.13899482E+04 0.32000000E+00 0.0000E+00 0.9000E+01
       21 -1    0    0  503  501 0.00000000E+00 0.00000000E+00 -.33865541E+03 0.33865625E+03 0.75000000E+00 0.0000E+00 0.9000E+01
       24  2    1    2    0    0 -.34401386E+03 0.43652431E+03 0.78304633E+03 0.96364356E+03 0.80921768E+02 0.0000E+00 0.0000E+00
       25  1    1    2    0    0 0.33211893E+03 -.41850897E+03 0.36944249E+03 0.66148734E+03 0.12500000E+03 0.0000E+00 0.9000E+01
        4  1    3    3  502    0 -.54471224E+02 0.83593694E+02 0.19650691E+03 0.22039144E+03 0.15500000E+01 0.0000E+00 0.9000E+01
        1  1    1    2  503    0 0.11894926E+02 -.18015343E+02 -.10119604E+03 0.10347358E+03 0.32000000E+00 0.0000E+00 0.9000E+01
       -3  1    3    3    0  502 -.28954263E+03 0.35293062E+03 0.58653942E+03 0.74325211E+03 0.50000000E+00 0.0000E+00 0.9000E+01
#aMCatNLO 2  0  0  2  1 0.51078509D+01 0.00000000D+00  -5  6  0 0.00000000D+00 0.00000000D+00 0.00000000D+00 0.00000000D+00 0.00000000D+00
  <mgrwgt>
 0.3816576283D-03    1    2    0
 0.572790077529861D+03 0.000000000000000D+00 0.000000000000000D+00 0.572790077529861D+03
 0.572790077529861D+03 0.000000000000000D+00 0.000000000000000D+00 -.572790077529861D+03
 0.576751680535932D+03 0.338054407111435D+03 -.427498488800374D+03 -.141356856596890D+03
 0.112914261563975D+03 -.531850695953949D+02 0.816772191432396D+02 0.570071110450083D+02
 0.000000000000000D+00 0.000000000000000D+00 -.000000000000000D+00 -.000000000000000D+00
 0.455914212959815D+03 -.284869337516041D+03 0.345821269657135D+03 0.843497455518821D+02
 0.573361419840274D+03 0.000000000000000D+00 0.000000000000000D+00 0.573361419840274D+03
 0.820972681836817D+03 0.000000000000000D+00 0.000000000000000D+00 -.820972681836817D+03
 0.566621129725810D+03 0.332118930996372D+03 -.418508971730149D+03 -.141356856596890D+03
 0.114770998725420D+03 -.543670291558031D+02 0.834673443899137D+02 0.570071110450083D+02
 0.248550556020556D+03 0.118949256047209D+02 -.180153427795515D+02 -.247611261996543D+03
 0.464391417205306D+03 -.289646827445290D+03 0.353056970119786D+03 0.843497455518821D+02
0.481346351848D-05 0.000000000000D+00 0.000000000000D+00 0.181144694766D-03 0.114105334372D-06  6 2 21 25 4 1 -3 2 0.21383821D+00 0.52100890D-01 0.31729132D+06 0.31729132D+06 0.31729132D+06 0.10827559D+01  1  2  1  6  5  2       -1 0.381657628326D-03 0.100000000000D+01
  </mgrwgt>
  </event>
  <event>
  7     66 0.16549492E-05 0.48603698E+02 0.75467711E-02 0.91171885E-01
        2 -1    0    0  501    0 0.00000000E+00 0.00000000E+00 0.93765049E+03 0.93765055E+03 0.32000000E+00 0.0000E+00 0.9000E+01
       -1 -1    0    0    0  503 0.00000000E+00 0.00000000E+00 -.16242665E+04 0.16242665E+04 0.32000000E+00 0.0000E+00 0.9000E+01
       24  2    1    2    0    0 -.58272312E+03 -.34770235E+03 -.55319983E+03 0.87917719E+03 0.80369953E+02 0.0000E+00 0.0000E+00
       25  1    1    2    0    0 0.57329280E+03 0.33811348E+03 0.62658737E+03 0.92261698E+03 0.12500000E+03 0.0000E+00 0.9000E+01
        4  1    3    3  502    0 -.17172778E+03 -.13607462E+03 -.20926998E+03 0.30299020E+03 0.15500000E+01 0.0000E+00 0.9000E+01
       -3  1    3    3    0  502 -.41099533E+03 -.21162773E+03 -.34392985E+03 0.57618699E+03 0.50000000E+00 0.0000E+00 0.9000E+01
       21  1    1    2  501  503 0.94303161E+01 0.95888663E+01 -.76000356E+03 0.76012292E+03 0.75000000E+00 0.0000E+00 0.9000E+01
#aMCatNLO 2  0  0  2  1 0.51078509D+01 0.00000000D+00  -5  6  0 0.00000000D+00 0.00000000D+00 0.00000000D+00 0.00000000D+00 0.00000000D+00
  <mgrwgt>
 0.4453685968D-02    1    2    0
 0.900124383237595D+03 0.000000000000000D+00 0.000000000000000D+00 0.900124383237595D+03
 0.900124383237595D+03 0.000000000000000D+00 0.000000000000000D+00 -.900124383237595D+03
 0.902670051024398D+03 0.578008579182674D+03 0.342908548307469D+03 0.589498117813178D+03
 0.309950302273316D+03 -.169953668627377D+03 -.134345942845360D+03 -.221666659740266D+03
 0.587628413177477D+03 -.408054910555297D+03 -.208562605462109D+03 -.367831458072912D+03
 0.000000000000000D+00 0.000000000000000D+00 0.000000000000000D+00 -.000000000000000D+00
 0.900206619596981D+03 0.000000000000000D+00 0.000000000000000D+00 0.900206619596981D+03
 0.169182692883195D+04 0.000000000000000D+00 0.000000000000000D+00 -.169182692883195D+04
 0.897840962158540D+03 0.573292800069556D+03 0.338113483630721D+03 0.589498117813178D+03
 0.311564808461671D+03 -.171581499813208D+03 -.136001142470206D+03 -.221666659740266D+03
 0.590893231883062D+03 -.411141616339067D+03 -.211701207486555D+03 -.367831458072912D+03
 0.791734545925656D+03 0.943031608271826D+01 0.958886632603993D+01 -.791620309234968D+03
0.190270628629D-01 0.000000000000D+00 0.000000000000D+00 0.120788551610D-03 0.496089115158D-05  6 2 -1 25 4 -3 21 2 0.14425390D+00 0.24988711D+00 0.47062711D+06 0.47062711D+06 0.47062711D+06 0.10703736D+01  1  2  1  2  6  2       -1 0.445368596812D-02 0.100000000000D+01
  </mgrwgt>
  </event>
  <event>
  7     66 0.16549492E-05 0.43269094E+02 0.75467711E-02 0.91795669E-01
        2 -1    0    0  501    0 0.00000000E+00 0.00000000E+00 0.36224846E+03 0.36224860E+03 0.32000000E+00 0.0000E+00 0.9000E+01
       21 -1    0    0  503  501 0.00000000E+00 0.00000000E+00 -.15250902E+04 0.15250903E+04 0.75000000E+00 0.0000E+00 0.9000E+01
       24  2    1    2    0    0 -.45405911E+03 -.43659434E+03 -.16746193E+03 0.65644829E+03 0.78080444E+02 0.0000E+00 0.0000E+00
       25  1    1    2    0    0 0.44594399E+03 0.37260746E+03 -.65522028E+03 0.88466999E+03 0.12500000E+03 0.0000E+00 0.9000E+01
        4  1    3    3  502    0 -.33052550E+03 -.36253880E+03 -.13437481E+03 0.50866539E+03 0.15500000E+01 0.0000E+00 0.9000E+01
        1  1    1    2  503    0 0.81151181E+01 0.63986883E+02 -.34015949E+03 0.34622068E+03 0.32000000E+00 0.0000E+00 0.9000E+01
       -3  1    3    3    0  502 -.12353361E+03 -.74055546E+02 -.33087124E+02 0.14778290E+03 0.50000000E+00 0.0000E+00 0.9000E+01
#aMCatNLO 2  0  0  2  1 0.51078509D+01 0.00000000D+00  -5  6  0 0.00000000D+00 0.00000000D+00 0.00000000D+00 0.00000000D+00 0.00000000D+00
  <mgrwgt>
 0.7638233485D-04    1    2    0
 0.650784014443262D+03 0.000000000000000D+00 0.000000000000000D+00 0.650784014443262D+03
 0.650784014443262D+03 0.000000000000000D+00 0.000000000000000D+00 -.650784014443262D+03
 0.654444385664124D+03 0.449953723178931D+03 0.404223762836585D+03 -.216372943047284D+03
 0.497427368432955D+03 -.327330895858219D+03 -.337612400576881D+03 0.162192288532797D+03
 0.000000000000000D+00 0.000000000000000D+00 0.000000000000000D+00 -.000000000000000D+00
 0.149696274789444D+03 -.122622827320712D+03 -.666113622597031D+02 0.541806545144868D+02
 0.657079632543532D+03 0.000000000000000D+00 0.000000000000000D+00 0.657079632543532D+03
 0.840783410083638D+03 0.000000000000000D+00 0.000000000000000D+00 -.840783410083638D+03
 0.632569852117527D+03 0.445943994859743D+03 0.372607462047637D+03 -.216372943047284D+03
 0.516676124210151D+03 -.330490363231360D+03 -.362524480112063D+03 0.162192288532797D+03
 0.194697853519462D+03 0.811511810943503D+01 0.639868825670606D+02 -.183703777540106D+03
 0.153919212780030D+03 -.123568749737817D+03 -.740698645026348D+02 0.541806545144868D+02
0.112245802473D-04 0.000000000000D+00 0.000000000000D+00 0.286184452465D-04 0.152688471179D-08  6 2 21 25 4 1 -3 2 0.55730547D-01 0.23462923D+00 0.41831118D+06 0.41831118D+06 0.41831118D+06 0.10740290D+01  1  2  1  6  5  2       -1 0.763823348544D-04 0.100000000000D+01
  </mgrwgt>
  </event>
  <event>
  6     66 0.16549492E-05 0.37620472E+02 0.75467711E-02 0.93152242E-01
        4 -1    0    0  501    0 0.00000000E+00 0.00000000E+00 0.20189532E+04 0.20189538E+04 0.15500000E+01 0.0000E+00 0.9000E+01
       -3 -1    0    0    0  503 0.00000000E+00 0.00000000E+00 -.28760309E+03 0.28760352E+03 0.50000000E+00 0.0000E+00 0.9000E+01
       25  1    1    2    0    0 -.53468008E+03 0.91341459E+02 0.15504497E+04 0.16473449E+04 0.12500000E+03 0.0000E+00 0.9000E+01
        2  1    1    2  502    0 0.28460410E+03 -.61286754E+02 0.14026845E+03 0.32315770E+03 0.32000000E+00 0.0000E+00 0.9000E+01
       -1  1    1    2    0  502 0.27043360E+03 -.34184025E+02 0.86265521E+02 0.28591034E+03 0.32000000E+00 0.0000E+00 0.9000E+01
       21  1    1    2  501  503 -.20357619E+02 0.41293197E+01 -.45633492E+02 0.50144411E+02 0.75000000E+00 0.0000E+00 0.9000E+01
#aMCatNLO 2  0  0  2  1 0.51078509D+01 0.00000000D+00  -5  6  0 0.00000000D+00 0.00000000D+00 0.00000000D+00 0.00000000D+00 0.00000000D+00
  <mgrwgt>
 0.3691053718D-05    1    2    0
 0.695215258777916D+03 0.000000000000000D+00 0.000000000000000D+00 0.695215258777916D+03
 0.695215258777916D+03 0.000000000000000D+00 0.000000000000000D+00 -.695215258777916D+03
 0.699947706545990D+03 -.544867750515937D+03 0.934079162933647D+02 0.410726049235285D+03
 0.340811735659585D+03 0.279583510173740D+03 -.602693889590142D+02 -.185346434432216D+03
 0.349671075350258D+03 0.265284240342197D+03 -.331385273343504D+02 -.225379614803069D+03
 0.000000000000000D+00 -.000000000000000D+00 0.000000000000000D+00 -.000000000000000D+00
 0.696069439974022D+03 0.000000000000000D+00 0.000000000000000D+00 0.696069439974022D+03
 0.834193630777873D+03 0.000000000000000D+00 0.000000000000000D+00 -.834193630777873D+03
 0.691770870644970D+03 -.534680079861187D+03 0.913414591087179D+02 0.410726049235285D+03
 0.345122202272355D+03 0.284604689861283D+03 -.612878801521788D+02 -.185346434432216D+03
 0.353692597976906D+03 0.270433009333148D+03 -.341828986174442D+02 -.225379614803069D+03
 0.139677399857664D+03 -.203576193332441D+02 0.412931966090511D+01 -.138124190803851D+03
0.197633276546D-03 0.000000000000D+00 0.000000000000D+00 0.364435850330D-06 0.538004384353D-08  6 4 -3 25 2 -1 21 2 0.31060782D+00 0.44246644D-01 0.32554360D+06 0.32554360D+06 0.32554360D+06 0.10819360D+01  1  2  1  2  6  2       -3 0.369105371763D-05 0.100000000000D+01
  </mgrwgt>
  </event>
  <event>
  7     66 0.16549492E-05 0.28972166E+02 0.75467711E-02 0.94328786E-01
        2 -1    0    0  501    0 0.00000000E+00 0.00000000E+00 0.14113200E+04 0.14113201E+04 0.32000000E+00 0.0000E+00 0.9000E+01
       -1 -1    0    0    0  503 0.00000000E+00 0.00000000E+00 -.22481940E+03 0.22481963E+03 0.32000000E+00 0.0000E+00 0.9000E+01
       24  2    1    2    0    0 0.43276712E+03 -.25213640E+03 0.90549872E+03 0.10378901E+04 0.80173713E+02 0.0000E+00 0.0000E+00
       25  1    1    2    0    0 -.39113006E+03 0.25354609E+03 0.27688268E+03 0.55637879E+03 0.12500000E+03 0.0000E+00 0.9000E+01
        4  1    3    3  502    0 0.32114459E+03 -.16698468E+03 0.58406256E+03 0.68713114E+03 0.15500000E+01 0.0000E+00 0.9000E+01
       -3  1    3    3    0  502 0.11162253E+03 -.85151718E+02 0.32143616E+03 0.35075897E+03 0.50000000E+00 0.0000E+00 0.9000E+01
       21  1    1    2  501  503 -.41637064E+02 -.14096840E+01 0.41192267E+01 0.41870788E+02 0.75000000E+00 0.0000E+00 0.9000E+01
#aMCatNLO 2  0  0  2  1 0.51078509D+01 0.00000000D+00  -5  6  0 0.00000000D+00 0.00000000D+00 0.00000000D+00 0.00000000D+00 0.00000000D+00
  <mgrwgt>
 0.7892348488D-03    1    2    0
 0.534306081019295D+03 0.000000000000000D+00 0.000000000000000D+00 0.534306081019295D+03
 0.534306081019295D+03 0.000000000000000D+00 0.000000000000000D+00 -.534306081019295D+03
 0.538609408305268D+03 -.411810278838568D+03 0.252845926062852D+03 -.202376694881774D+03
 0.366551084383040D+03 0.306604825850584D+03 -.167450617527280D+03 0.110966071018343D+03
 0.163451669350282D+03 0.105205452987984D+03 -.853953085355714D+02 0.914106238634315D+02
 0.000000000000000D+00 -.000000000000000D+00 -.000000000000000D+00 -.000000000000000D+00
 0.543566074829925D+03 0.000000000000000D+00 0.000000000000000D+00 0.543566074829925D+03
 0.583718434754980D+03 0.000000000000000D+00 0.000000000000000D+00 -.583718434754980D+03
 0.523306474243028D+03 -.391130057591104D+03 0.253546085361573D+03 -.202376694881774D+03
 0.378555097294847D+03 0.321115354361538D+03 -.166959342248127D+03 0.110966071018343D+03
 0.167562378626730D+03 0.111651767484906D+03 -.851770590795576D+02 0.914106238634315D+02
 0.578605594202986D+02 -.416370642553402D+02 -.140968403388896D+01 -.401523599250552D+02
0.430093998093D-04 0.000000000000D+00 0.000000000000D+00 0.133521680038D-03 0.486978564218D-06  6 2 -1 25 4 -3 21 2 0.21712522D+00 0.34587468D-01 0.26348182D+06 0.26348182D+06 0.26348182D+06 0.10887472D+01  1  2  1  2  6  2       -1 0.789234848839D-03 0.100000000000D+01
  </mgrwgt>
  </event>
  <event>
  7     66 0.16549492E-05 0.46382468E+02 0.75467711E-02 0.89319603E-01
        2 -1    0    0  503    0 0.00000000E+00 0.00000000E+00 0.21515055E+04 0.21515056E+04 0.32000000E+00 0.0000E+00 0.9000E+01
       -1 -1    0    0    0  501 0.00000000E+00 0.00000000E+00 -.32832959E+03 0.32832975E+03 0.32000000E+00 0.0000E+00 0.9000E+01
       24  2    1    2    0    0 0.50638888E+03 0.60723146E+03 0.66589566E+03 0.10366869E+04 0.78377315E+02 0.0000E+00 0.0000E+00
       25  1    1    2    0    0 -.53615585E+03 -.60562573E+03 0.10471785E+04 0.13290800E+04 0.12500000E+03 0.0000E+00 0.9000E+01
        4  1    3    3  502    0 0.28735226E+03 0.40117843E+03 0.42852144E+03 0.65356597E+03 0.15500000E+01 0.0000E+00 0.9000E+01
       -3  1    3    3    0  502 0.21903662E+03 0.20605303E+03 0.23737422E+03 0.38312095E+03 0.50000000E+00 0.0000E+00 0.9000E+01
       21  1    1    2  503  501 0.29766964E+02 -.16057285E+01 0.11010174E+03 0.11406842E+03 0.75000000E+00 0.0000E+00 0.9000E+01
#aMCatNLO 2  0  0  1  2 0.19128310D+01 0.00000000D+00  -5  6  0 0.00000000D+00 0.00000000D+00 0.00000000D+00 0.00000000D+00 0.00000000D+00
  <mgrwgt>
 0.7601126538D-03    1    2    0
 0.815680858389972D+03 0.000000000000000D+00 0.000000000000000D+00 0.815680858389972D+03
 0.815680858389972D+03 0.000000000000000D+00 0.000000000000000D+00 -.815680858389972D+03
 0.818587018437345D+03 -.521138037378590D+03 -.606435842156816D+03 0.122924456878551D+03
 0.502549840332070D+03 0.296402393940816D+03 0.400621959958848D+03 -.648383226392663D+02
 0.310224858010530D+03 0.224735643437773D+03 0.205813882197968D+03 -.580861342392844D+02
 0.000000000000000D+00 0.000000000000000D+00 -.000000000000000D+00 0.000000000000000D+00
 0.860650797256461D+03 0.000000000000000D+00 0.000000000000000D+00 0.860650797256461D+03
 0.820772281566355D+03 0.000000000000000D+00 0.000000000000000D+00 -.820772281566355D+03
 0.827635815729831D+03 -.536155849007363D+03 -.605625731747825D+03 0.122924456878551D+03
 0.497619698933085D+03 0.287278259937949D+03 0.401114145911866D+03 -.648383226392663D+02
 0.306378544030101D+03 0.219110625032418D+03 0.206117314287382D+03 -.580861342392844D+02
 0.497890201297995D+02 0.297669640369971D+02 -.160572845142244D+01 0.398785156901056D+02
0.228724393725D-03 0.000000000000D+00 0.000000000000D+00 0.578303552425D-04 0.390102359087D-06  6 2 -1 25 4 -3 21 2 0.33099973D+00 0.50512086D-01 0.67442354D+06 0.67442354D+06 0.67442354D+06 0.10594448D+01  1  2  1  1  6  1        2 0.760112653802D-03 0.100000000000D+01
  </mgrwgt>
  </event>
  <event>
  7     66 0.16549492E-05 0.26040346E+02 0.75467711E-02 0.93358160E-01
        2 -1    0    0  501    0 0.00000000E+00 0.00000000E+00 0.45855771E+03 0.45855782E+03 0.32000000E+00 0.0000E+00 0.9000E+01
       21 -1    0    0  503  501 0.00000000E+00 0.00000000E+00 -.13785219E+04 0.13785221E+04 0.75000000E+00 0.0000E+00 0.9000E+01
       24  2    1    2    0    0 -.92395079E+02 -.52964613E+03 -.51063587E+03 0.74536476E+03 0.75879919E+02 0.0000E+00 0.0000E+00
       25  1    1    2    0    0 0.98870490E+02 0.54327550E+03 0.10613379E+03 0.57603214E+03 0.12500000E+03 0.0000E+00 0.9000E+01
        4  1    3    3  502    0 -.27552594E+02 -.84578880E+02 -.52251117E+02 0.10317613E+03 0.15500000E+01 0.0000E+00 0.9000E+01
        1  1    1    2  503    0 -.64754114E+01 -.13629371E+02 -.51546207E+03 0.51568299E+03 0.32000000E+00 0.0000E+00 0.9000E+01
       -3  1    3    3    0  502 -.64842485E+02 -.44506725E+03 -.45838475E+03 0.64218863E+03 0.50000000E+00 0.0000E+00 0.9000E+01
#aMCatNLO 2  0  0  2  1 0.51078509D+01 0.00000000D+00  -5  6  0 0.00000000D+00 0.00000000D+00 0.00000000D+00 0.00000000D+00 0.00000000D+00
  <mgrwgt>
 0.2484956698D-03    1    2    0
 0.628935640123168D+03 0.000000000000000D+00 0.000000000000000D+00 0.628935640123168D+03
 0.628935640123168D+03 0.000000000000000D+00 0.000000000000000D+00 -.628935640123168D+03
 0.632857837169541D+03 0.955963675672498D+02 0.536384169915823D+03 0.296710968517462D+03
 0.924240894835727D+02 -.279997597932509D+02 -.853923978962910D+02 -.215954659572145D+02
 0.000000000000000D+00 -.000000000000000D+00 -.000000000000000D+00 -.000000000000000D+00
 0.532589353593222D+03 -.675966077739989D+02 -.450991772019532D+03 -.275115502560247D+03
 0.629132367582824D+03 0.000000000000000D+00 0.000000000000000D+00 0.629132367582824D+03
 0.100476786362659D+04 0.000000000000000D+00 0.000000000000000D+00 -.100476786362659D+04
 0.639207358074130D+03 0.988704899975750D+02 0.543275504679880D+03 0.296710968517462D+03
 0.913613496411013D+02 -.275267211228626D+02 -.843967516114127D+02 -.215954659572145D+02
 0.375938447862368D+03 -.647541139814542D+01 -.136293705043825D+02 -.375635496043765D+03
 0.527393075631813D+03 -.648683574765670D+02 -.445249382564085D+03 -.275115502560247D+03
0.314757139375D-04 0.000000000000D+00 0.000000000000D+00 0.863328878758D-05 0.140847079661D-07  6 2 21 25 4 1 -3 2 0.70547357D-01 0.21208029D+00 0.31358983D+06 0.31358983D+06 0.31358983D+06 0.10831312D+01  1  2  1  6  5  2       -1 0.248495669768D-03 0.100000000000D+01
  </mgrwgt>
  </event>
  <event>
  7     66 0.16549492E-05 0.46859371E+02 0.75467711E-02 0.91477639E-01
        2 -1    0    0  503    0 0.00000000E+00 0.00000000E+00 0.47960453E+03 0.47960464E+03 0.32000000E+00 0.0000E+00 0.9000E+01
       -1 -1    0    0    0  501 0.00000000E+00 0.00000000E+00 -.11384084E+04 0.11384085E+04 0.32000000E+00 0.0000E+00 0.9000E+01
       24  2    1    2    0    0 -.27493392E+03 0.59591424E+03 -.63055771E+03 0.91377722E+03 0.81751696E+02 0.0000E+00 0.0000E+00
       25  1    1    2    0    0 0.25845373E+03 -.59071006E+03 -.68576964E+02 0.66035181E+03 0.12500000E+03 0.0000E+00 0.9000E+01
        4  1    3    3  502    0 -.21281288E+03 0.39762733E+03 -.39340389E+03 0.59846958E+03 0.15500000E+01 0.0000E+00 0.9000E+01
       -3  1    3    3    0  502 -.62121033E+02 0.19828691E+03 -.23715383E+03 0.31530764E+03 0.50000000E+00 0.0000E+00 0.9000E+01
       21  1    1    2  503  501 0.16480187E+02 -.52041827E+01 0.40330773E+02 0.43884096E+02 0.75000000E+00 0.0000E+00 0.9000E+01
#aMCatNLO 2  0  0  1  2 0.19128310D+01 0.00000000D+00  -5  6  0 0.00000000D+00 0.00000000D+00 0.00000000D+00 0.00000000D+00 0.00000000D+00
  <mgrwgt>
 0.2110376235D-02    1    2    0
 0.705123077770985D+03 0.000000000000000D+00 0.000000000000000D+00 0.705123077770985D+03
 0.705123077770985D+03 0.000000000000000D+00 0.000000000000000D+00 -.705123077770985D+03
 0.708293325866522D+03 0.266699867273269D+03 -.593314061524474D+03 0.250806779535187D+03
 0.468965040497826D+03 -.207295477352733D+03 0.395833133695553D+03 -.142383020571234D+03
 0.232987789177621D+03 -.594043899205357D+02 0.197480927828921D+03 -.108423758963952D+03
 0.000000000000000D+00 0.000000000000000D+00 -.000000000000000D+00 0.000000000000000D+00
 0.773044298250815D+03 0.000000000000000D+00 0.000000000000000D+00 0.773044298250815D+03
 0.706276243816582D+03 0.000000000000000D+00 0.000000000000000D+00 -.706276243816582D+03
 0.703040359557288D+03 0.258453728916774D+03 -.590710061294578D+03 0.250806779535187D+03
 0.472883445820265D+03 -.212798508286699D+03 0.397570903933896D+03 -.142383020571234D+03
 0.234428242623833D+03 -.621354076154200D+02 0.198343340075464D+03 -.108423758963952D+03
 0.689684940660114D+02 0.164801869853445D+02 -.520418271478211D+01 0.667680544342330D+02
0.956979584619D-03 0.000000000000D+00 0.000000000000D+00 0.960231828218D-04 0.197791731472D-05  6 2 -1 25 4 -3 21 2 0.73785112D-01 0.17513927D+00 0.44412278D+06 0.44412278D+06 0.44412278D+06 0.10721669D+01  1  2  1  1  6  1        2 0.211037623500D-02 0.100000000000D+01
  </mgrwgt>
  </event>
  <event>
  7     66 0.16549492E-05 0.65167540E+02 0.75467711E-02 0.91740164E-01
        2 -1    0    0  503    0 0.00000000E+00 0.00000000E+00 0.20350294E+04 0.20350295E+04 0.32000000E+00 0.0000E+00 0.9000E+01
       -1 -1    0    0    0  501 0.00000000E+00 0.00000000E+00 -.41975233E+03 0.41975245E+03 0.32000000E+00 0.0000E+00 0.9000E+01
       24  2    1    2    0    0 -.11304823E+02 0.63679044E+03 0.47741627E+03 0.80012197E+03 0.81480094E+02 0.0000E+00 0.0000E+00
       25  1    1    2    0    0 -.81932391E+01 -.62181365E+03 0.13124286E+03 0.64774148E+03 0.12500000E+03 0.0000E+00 0.9000E+01
        4  1    3    3  502    0 -.43255758E+02 0.30086520E+03 0.24462009E+03 0.39016960E+03 0.15500000E+01 0.0000E+00 0.9000E+01
       -3  1    3    3    0  502 0.31950935E+02 0.33592524E+03 0.23279618E+03 0.40995237E+03 0.50000000E+00 0.0000E+00 0.9000E+01
       21  1    1    2  503  501 0.19498062E+02 -.14976792E+02 0.10066180E+04 0.10069185E+04 0.75000000E+00 0.0000E+00 0.9000E+01
#aMCatNLO 2  0  0  1  4 0.46360762D+02 0.00000000D+00  -5  6  0 0.00000000D+00 0.00000000D+00 0.00000000D+00 0.00000000D+00 0.00000000D+00
  <mgrwgt>
 0.2479745992D-02    1    2    0
 0.656741607602716D+03 0.000000000000000D+00 0.000000000000000D+00 0.656741607602716D+03
 0.656741607602716D+03 0.000000000000000D+00 0.000000000000000D+00 -.656741607602716D+03
 0.660162281064694D+03 0.155314551473313D+01 -.629300009755443D+03 -.155461644148481D+03
 0.312547685378443D+03 -.385999267456878D+02 0.297168557916589D+03 0.888084988974862D+02
 0.340773248762296D+03 0.370467812309547D+02 0.332131451838854D+03 0.666531452509949D+02
 0.000000000000000D+00 0.000000000000000D+00 -.000000000000000D+00 0.000000000000000D+00
 0.129998301777065D+04 0.000000000000000D+00 0.000000000000000D+00 0.129998301777065D+04
 0.657091626808934D+03 0.000000000000000D+00 0.000000000000000D+00 -.657091626808934D+03
 0.653079369569778D+03 -.819323910635436D+01 -.621813646512568D+03 -.155461644148481D+03
 0.316563852505582D+03 -.432689554920874D+02 0.300754918043538D+03 0.888084988974862D+02
 0.344070078219997D+03 0.319641321490209D+02 0.336035520756994D+03 0.666531452509949D+02
 0.643361344284224D+03 0.194980624494208D+02 -.149767922879643D+02 0.642891390961712D+03
0.967283490500D-03 0.000000000000D+00 0.000000000000D+00 0.142537587671D-03 0.180307610302D-05  6 2 -1 25 4 -3 21 2 0.31308136D+00 0.64577271D-01 0.42269252D+06 0.42269252D+06 0.42269252D+06 0.10737043D+01  1  2  1  1  6  1        2 0.247974599166D-02 0.100000000000D+01
  </mgrwgt>
  </event>
  <event>
  7     66 0.16549492E-05 0.12763704E+03 0.75467711E-02 0.93649792E-01
        2 -1    0    0  503    0 0.00000000E+00 0.00000000E+00 0.12319556E+04 0.12319556E+04 0.32000000E+00 0.0000E+00 0.9000E+01
       -1 -1    0    0    0  501 0.00000000E+00 0.00000000E+00 -.29451580E+03 0.29451598E+03 0.32000000E+00 0.0000E+00 0.9000E+01
       24  2    1    2    0    0 0.33825664E+03 0.16684591E+03 0.64535251E+03 0.75182452E+03 0.80654393E+02 0.0000E+00 0.0000E+00
       25  1    1    2    0    0 -.40025909E+03 -.32897419E+03 0.15982204E+03 0.55641661E+03 0.12500000E+03 0.0000E+00 0.9000E+01
        4  1    3    3  502    0 0.20119317E+03 0.58315162E+02 0.31986457E+03 0.38235467E+03 0.15500000E+01 0.0000E+00 0.9000E+01
       -3  1    3    3    0  502 0.13706347E+03 0.10853075E+03 0.32548794E+03 0.36946985E+03 0.50000000E+00 0.0000E+00 0.9000E+01
       21  1    1    2  503  501 0.62002445E+02 0.16212828E+03 0.13226520E+03 0.21823045E+03 0.75000000E+00 0.0000E+00 0.9000E+01
#aMCatNLO 2  0  0  1  4 0.46360762D+02 0.00000000D+00  -5  6  0 0.00000000D+00 0.00000000D+00 0.00000000D+00 0.00000000D+00 0.00000000D+00
  <mgrwgt>
 0.6662596436D-04    1    2    0
 0.508197527431645D+03 0.000000000000000D+00 0.000000000000000D+00 0.508197527431645D+03
 0.508197527431645D+03 0.000000000000000D+00 0.000000000000000D+00 -.508197527431645D+03
 0.512683907440676D+03 -.367135300801659D+03 -.242359825919044D+03 -.231717877243871D+03
 0.260246321973059D+03 0.216155562136220D+03 0.975142014954164D+02 0.107218942192092D+03
 0.243464825449554D+03 0.150979738665439D+03 0.144845624423628D+03 0.124498935051779D+03
 0.000000000000000D+00 0.000000000000000D+00 0.000000000000000D+00 -.000000000000000D+00
 0.601055763100260D+03 0.000000000000000D+00 0.000000000000000D+00 0.601055763100260D+03
 0.603653761729724D+03 0.000000000000000D+00 0.000000000000000D+00 -.603653761729724D+03
 0.581162224841498D+03 -.400259086654819D+03 -.328974194274512D+03 -.231717877243871D+03
 0.235273402243892D+03 0.201150262262156D+03 0.582773045918446D+02 0.107218942192092D+03
 0.214674838120058D+03 0.137106379644406D+03 0.108568604825014D+03 0.124498935051779D+03
 0.173599059624537D+03 0.620024447482567D+02 0.162128284857653D+03 -.259799862946384D+01
0.466831939907D-05 0.000000000000D+00 0.000000000000D+00 0.188534579984D-03 0.400517520352D-07  6 2 -1 25 4 -3 21 2 0.18953139D+00 0.45310079D-01 0.29749267D+06 0.29749267D+06 0.29749267D+06 0.10848216D+01  1  2  1  1  6  1        2 0.666259643633D-04 0.100000000000D+01
  </mgrwgt>
  </event>
  <event>
  7     66 0.16549492E-05 0.48487026E+02 0.75467711E-02 0.93668084E-01
        2 -1    0    0  501    0 0.00000000E+00 0.00000000E+00 0.21415553E+04 0.21415553E+04 0.32000000E+00 0.0000E+00 0.9000E+01
       -1 -1    0    0    0  503 0.00000000E+00 0.00000000E+00 -.15480350E+03 0.15480383E+03 0.32000000E+00 0.0000E+00 0.9000E+01
       24  2    1    2    0    0 -.53223153E+03 0.13639675E+02 0.74145675E+03 0.91691313E+03 0.86689886E+02 0.0000E+00 0.0000E+00
       25  1    1    2    0    0 0.52190350E+03 -.35596570E+01 0.12529808E+04 0.13630781E+04 0.12500000E+03 0.0000E+00 0.9000E+01
        4  1    3    3  502    0 -.15174386E+03 0.38813463E+02 0.18607080E+03 0.24322300E+03 0.15500000E+01 0.0000E+00 0.9000E+01
       -3  1    3    3    0  502 -.38048768E+03 -.25173788E+02 0.55538595E+03 0.67369013E+03 0.50000000E+00 0.0000E+00 0.9000E+01
       21  1    1    2  501  503 0.10328036E+02 -.10080018E+02 -.76857804E+01 0.16367920E+02 0.75000000E+00 0.0000E+00 0.9000E+01
#aMCatNLO 2  0  0  2  1 0.51078509D+01 0.00000000D+00  -5  6  0 0.00000000D+00 0.00000000D+00 0.00000000D+00 0.00000000D+00 0.00000000D+00
  <mgrwgt>
 0.1886279175D-02    1    2    0
 0.552351895351107D+03 0.000000000000000D+00 0.000000000000000D+00 0.552351895351107D+03
 0.552351895351107D+03 0.000000000000000D+00 0.000000000000000D+00 -.552351895351107D+03
 0.556022503025862D+03 0.527078434929719D+03 -.861031978824334D+01 0.125100798144247D+03
 0.164162997774849D+03 -.150084292364613D+03 0.373169129815294D+02 -.550603580570234D+02
 0.384518289901503D+03 -.376994142565106D+03 -.287065931932861D+02 -.700404400872238D+02
 0.000000000000000D+00 0.000000000000000D+00 -.000000000000000D+00 -.000000000000000D+00
 0.553518104136231D+03 0.000000000000000D+00 0.000000000000000D+00 0.553518104136231D+03
 0.598927343592480D+03 0.000000000000000D+00 0.000000000000000D+00 -.598927343592480D+03
 0.551063649256289D+03 0.521903501307985D+03 -.355965697750880D+01 0.125100798144247D+03
 0.165920668640430D+03 -.151627226543490D+03 0.388227951524498D+02 -.550603580570234D+02
 0.387813736177383D+03 -.380604310536820D+03 -.251831197638563D+02 -.700404400872238D+02
 0.476473936546078D+02 0.103280357723250D+02 -.100800184110847D+02 -.454092394562486D+02
0.139417683330D-03 0.000000000000D+00 0.000000000000D+00 0.458530937347D-05 0.138745359094D-06  6 2 -1 25 4 -3 21 2 0.32946831D+00 0.23815824D-01 0.29651431D+06 0.29651431D+06 0.29651431D+06 0.10849276D+01  1  2  1  2  6  2       -1 0.188627917544D-02 0.100000000000D+01
  </mgrwgt>
  </event>
  <event>
  7     66 0.16549492E-05 0.52677643E+02 0.75467711E-02 0.92677884E-01
        2 -1    0    0  503    0 0.00000000E+00 0.00000000E+00 0.81621923E+03 0.81621929E+03 0.32000000E+00 0.0000E+00 0.9000E+01
       -1 -1    0    0    0  501 0.00000000E+00 0.00000000E+00 -.55296372E+03 0.55296381E+03 0.32000000E+00 0.0000E+00 0.9000E+01
       24  2    1    2    0    0 0.51972909E+02 -.56152730E+03 -.10543301E+03 0.57930110E+03 0.80371303E+02 0.0000E+00 0.0000E+00
       25  1    1    2    0    0 -.87345814E+02 0.56784038E+03 0.20558548E+03 0.62286626E+03 0.12500000E+03 0.0000E+00 0.9000E+01
        4  1    3    3  502    0 -.10362558E+02 -.24703009E+03 -.68497001E+02 0.25656478E+03 0.15500000E+01 0.0000E+00 0.9000E+01
       -3  1    3    3    0  502 0.62335467E+02 -.31449722E+03 -.36936009E+02 0.32273631E+03 0.50000000E+00 0.0000E+00 0.9000E+01
       21  1    1    2  503  501 0.35372905E+02 -.63130794E+01 0.16310303E+03 0.16701574E+03 0.75000000E+00 0.0000E+00 0.9000E+01
#aMCatNLO 2  0  0  1  4 0.48976387D+02 0.00000000D+00  -5  6  0 0.00000000D+00 0.00000000D+00 0.00000000D+00 0.00000000D+00 0.00000000D+00
  <mgrwgt>
 0.2238191845D-02    1    2    0
 0.598724633084927D+03 0.000000000000000D+00 0.000000000000000D+00 0.598724633084927D+03
 0.598724633084927D+03 0.000000000000000D+00 0.000000000000000D+00 -.598724633084927D+03
 0.602551707015380D+03 -.694720447128249D+02 0.564650411219579D+03 0.154230696491092D+03
 0.264188122191048D+03 -.260017881308196D+01 -.248312210229774D+03 -.901645674740153D+02
 0.330709436963427D+03 0.720722235259068D+02 -.316338200989805D+03 -.640661290170768D+02
 0.000000000000000D+00 0.000000000000000D+00 -.000000000000000D+00 0.000000000000000D+00
 0.750829119527059D+03 0.000000000000000D+00 0.000000000000000D+00 0.750829119527059D+03
 0.601119947181953D+03 0.000000000000000D+00 0.000000000000000D+00 -.601119947181953D+03
 0.607852036280313D+03 -.873458137899103D+02 0.567840381694868D+03 0.154230696491092D+03
 0.263074717013449D+03 -.103861545943608D+02 -.246922630183368D+03 -.901645674740153D+02
 0.327061494749844D+03 0.623590630997414D+02 -.314604672104678D+03 -.640661290170768D+02
 0.153960818665406D+03 0.353729052845297D+02 -.631307940682211D+01 0.149709172345107D+03
0.294682636577D-03 0.000000000000D+00 0.000000000000D+00 0.223505141167D-03 0.110243856067D-05  6 2 -1 25 4 -3 21 2 0.12557201D+00 0.85071225D-01 0.35507190D+06 0.35507190D+06 0.35507190D+06 0.10791778D+01  1  2  1  1  6  1        2 0.223819184532D-02 0.100000000000D+01
  </mgrwgt>
  </event>
  <event>
  7     66 0.16549492E-05 0.63607985E+02 0.75467711E-02 0.94831100E-01
        2 -1    0    0  501    0 0.00000000E+00 0.00000000E+00 0.48748666E+03 0.48748676E+03 0.32000000E+00 0.0000E+00 0.9000E+01
       -1 -1    0    0    0  503 0.00000000E+00 0.00000000E+00 -.54127762E+03 0.54127772E+03 0.32000000E+00 0.0000E+00 0.9000E+01
       24  2    1    2    0    0 0.34955306E+03 0.32816238E+03 -.14354711E+03 0.50691139E+03 0.80470475E+02 0.0000E+00 0.0000E+00
       25  1    1    2    0    0 -.33837889E+03 -.32577837E+03 0.11022083E+03 0.49840290E+03 0.12500000E+03 0.0000E+00 0.9000E+01
        4  1    3    3  502    0 0.22550345E+03 0.16399769E+03 -.10260070E+03 0.29711337E+03 0.15500000E+01 0.0000E+00 0.9000E+01
       -3  1    3    3    0  502 0.12404960E+03 0.16416469E+03 -.40946411E+02 0.20979802E+03 0.50000000E+00 0.0000E+00 0.9000E+01
       21  1    1    2  501  503 -.11174171E+02 -.23840054E+01 -.20464686E+02 0.23450191E+02 0.75000000E+00 0.0000E+00 0.9000E+01
#aMCatNLO 2  0  0  2  1 0.51078509D+01 0.00000000D+00  -5  6  0 0.00000000D+00 0.00000000D+00 0.00000000D+00 0.00000000D+00 0.00000000D+00
  <mgrwgt>
 0.5659057680D-02    1    2    0
 0.502348393686947D+03 0.000000000000000D+00 0.000000000000000D+00 0.502348393686947D+03
 0.502348393686947D+03 0.000000000000000D+00 0.000000000000000D+00 -.502348393686947D+03
 0.506901758901097D+03 -.343991024616727D+03 -.326975721856808D+03 0.126812639261155D+03
 0.290929969247889D+03 0.222214518841920D+03 0.163249359858103D+03 -.927933248049187D+02
 0.206865059224908D+03 0.121776505774806D+03 0.163726361998705D+03 -.340193144562365D+02
 0.000000000000000D+00 -.000000000000000D+00 -.000000000000000D+00 -.000000000000000D+00
 0.503917804370442D+03 0.000000000000000D+00 0.000000000000000D+00 0.503917804370442D+03
 0.523615700106858D+03 0.000000000000000D+00 0.000000000000000D+00 -.523615700106858D+03
 0.502332823052048D+03 -.338378886191422D+03 -.325778374081081D+03 0.126812639261155D+03
 0.293807604354892D+03 0.225466119871272D+03 0.163943087803673D+03 -.927933248049187D+02
 0.208621325513594D+03 0.124086937013170D+03 0.164219291697614D+03 -.340193144562365D+02
 0.227717515567662D+02 -.111741706930204D+02 -.238400542020608D+01 -.196978957364170D+02
0.371056457114D-03 0.000000000000D+00 0.000000000000D+00 0.221333630121D-03 0.107870733032D-04  6 2 -1 25 4 -3 21 2 0.74997046D-01 0.83272478D-01 0.24112343D+06 0.24112343D+06 0.24112343D+06 0.10916422D+01  1  2  1  2  6  2       -1 0.565905767971D-02 0.100000000000D+01
  </mgrwgt>
  </event>
  <event>
  6     66 0.16549492E-05 0.20678265E+02 0.75467711E-02 0.90296281E-01
        2 -1    0    0  501    0 0.00000000E+00 0.00000000E+00 0.14866710E+04 0.14866711E+04 0.32000000E+00 0.0000E+00 0.9000E+01
       -1 -1    0    0    0  501 0.00000000E+00 0.00000000E+00 -.17904071E+03 0.17904100E+03 0.32000000E+00 0.0000E+00 0.9000E+01
       24  2    1    2    0    0 0.18350816E+03 0.42954943E+03 0.95825874E+03 0.10691608E+04 0.81590228E+02 0.0000E+00 0.0000E+00
       25  1    1    2    0    0 -.18350816E+03 -.42954943E+03 0.34937159E+03 0.59655131E+03 0.12500000E+03 0.0000E+00 0.9000E+01
        4  1    3    3  502    0 0.98149355E+01 0.27763746E+02 0.26245795E+02 0.39476611E+02 0.15500000E+01 0.0000E+00 0.9000E+01
       -3  1    3    3    0  502 0.17369323E+03 0.40178568E+03 0.93201295E+03 0.10296842E+04 0.50000000E+00 0.0000E+00 0.9000E+01
#aMCatNLO 1  0  0  1  4 0.45009181D+03 0.00000000D+00  -5  6  0 0.00000000D+00 0.00000000D+00 0.00000000D+00 0.00000000D+00 0.00000000D+00
  <mgrwgt>
 0.1298607643D-02    3    2    0
 0.515921414669837D+03 0.000000000000000D+00 0.000000000000000D+00 0.515921414669837D+03
 0.515921414669837D+03 0.000000000000000D+00 0.000000000000000D+00 -.515921414669837D+03
 0.520267054645781D+03 -.183508164042961D+03 -.429549427778959D+03 -.192002216065718D+03
 0.302941598771550D+02 0.975259110432568D+01 0.276197216532017D+02 -.773136890945663D+01
 0.481281614816737D+03 0.173755572938635D+03 0.401929706125757D+03 0.199733584975174D+03
 0.000000000000000D+00 -.000000000000000D+00 0.000000000000000D+00 -.000000000000000D+00
 0.639595402045875D+03 0.000000000000000D+00 0.000000000000000D+00 0.639595402045875D+03
 0.122294218736721D+04 0.000000000000000D+00 0.000000000000000D+00 -.122294218736721D+04
 0.717950828094069D+03 -.980602746557650D+02 -.673311015149202D+03 -.192002216065718D+03
 0.230885929884503D+02 0.134364690595939D+02 0.171105336030989D+02 -.773136890945663D+01
 0.384696899174270D+03 0.233515682453011D+03 0.231448969139565D+03 0.199733584975174D+03
 0.736801269156299D+03 -.148891876856840D+03 0.424751512406538D+03 -.583346785321338D+03
0.608479537554D-04 0.000000000000D+00 0.000000000000D+00 0.120202012965D-04 0.000000000000D+00  6 2 -1 25 4 -3 21 0 0.22871865D+00 0.27544749D-01 0.22596362D+06 0.22596362D+06 0.22596362D+06 0.10937772D+01  1  2  2  1  6  1        2 0.126429148248D-02 0.100000000000D+01
0.180283681424D-04 0.000000000000D+00 -.233672164055D-06 0.120202012965D-04 0.000000000000D+00  6 2 -1 25 4 -3 21 2 0.22871865D+00 0.27544749D-01 0.22596362D+06 0.22596362D+06 0.22596362D+06 0.10937772D+01  1  2  3  1  6  1        2 0.448141768718D-03 0.100000000000D+01
-.166478577560D-04 0.000000000000D+00 0.000000000000D+00 0.120202012965D-04 0.000000000000D+00  6 2 -1 25 4 -3 21 2 0.22871865D+00 0.27544749D-01 0.22596362D+06 0.22596362D+06 0.22596362D+06 0.10937772D+01  1  2 15  1  6  1        2 -.413825608685D-03 0.100000000000D+01
  </mgrwgt>
  </event>
  <event>
  7     66 0.16549492E-05 0.37486846E+02 0.75467711E-02 0.93112217E-01
        2 -1    0    0  503    0 0.00000000E+00 0.00000000E+00 0.11441850E+04 0.11441850E+04 0.32000000E+00 0.0000E+00 0.9000E+01
       -1 -1    0    0    0  501 0.00000000E+00 0.00000000E+00 -.34235633E+03 0.34235648E+03 0.32000000E+00 0.0000E+00 0.9000E+01
       24  2    1    2    0    0 0.18502614E+03 0.52658382E+03 0.23940909E+03 0.61294386E+03 0.82814679E+02 0.0000E+00 0.0000E+00
       25  1    1    2    0    0 -.19493109E+03 -.51978399E+03 0.36548851E+03 0.67629903E+03 0.12500000E+03 0.0000E+00 0.9000E+01
        4  1    3    3  502    0 0.70418858E+02 0.98526275E+02 0.50236214E+02 0.13111950E+03 0.15500000E+01 0.0000E+00 0.9000E+01
       -3  1    3    3    0  502 0.11460728E+03 0.42805755E+03 0.18917288E+03 0.48182437E+03 0.50000000E+00 0.0000E+00 0.9000E+01
       21  1    1    2  503  501 0.99049480E+01 -.67998365E+01 0.19693103E+03 0.19729860E+03 0.75000000E+00 0.0000E+00 0.9000E+01
#aMCatNLO 2  0  0  1  4 0.45009181D+03 0.00000000D+00  -5  6  0 0.00000000D+00 0.00000000D+00 0.00000000D+00 0.00000000D+00 0.00000000D+00
  <mgrwgt>
 0.1843529207D-02    1    2    0
 0.569232328373676D+03 0.000000000000000D+00 0.000000000000000D+00 0.569232328373676D+03
 0.569232328373676D+03 0.000000000000000D+00 0.000000000000000D+00 -.569232328373676D+03
 0.573082570653264D+03 -.189951520281133D+03 -.523202505564307D+03 0.545544764494333D+02
 0.121666253661258D+03 0.714396233535322D+02 0.976532794640761D+02 -.127630131623419D+02
 0.443715832432830D+03 0.118511896927601D+03 0.425549226100230D+03 -.417914632870914D+02
 0.000000000000000D+00 0.000000000000000D+00 -.000000000000000D+00 0.000000000000000D+00
 0.687744169814511D+03 0.000000000000000D+00 0.000000000000000D+00 0.687744169814511D+03
 0.569568602931350D+03 0.000000000000000D+00 0.000000000000000D+00 -.569568602931350D+03
 0.571642120107143D+03 -.194931087625927D+03 -.519783987495662D+03 0.545544764494333D+02
 0.121634749290005D+03 0.703812608153336D+02 0.983798549292701D+02 -.127630131623419D+02
 0.445251180513662D+03 0.114644878819232D+03 0.428203969044727D+03 -.417914632870914D+02
 0.118784722835051D+03 0.990494799136177D+01 -.679983647833475D+01 0.118175566883160D+03
0.152293016803D-03 0.000000000000D+00 0.000000000000D+00 0.287503200295D-04 0.126606829441D-05  6 2 -1 25 4 -3 21 2 0.17602811D+00 0.52670111D-01 0.32792586D+06 0.32792586D+06 0.32792586D+06 0.10817036D+01  1  2  1  1  6  1        2 0.184352920660D-02 0.100000000000D+01
  </mgrwgt>
  </event>
  <event>
  6     66 0.16549492E-05 0.88061268E+02 0.75467711E-02 0.93355868E-01
        2 -1    0    0  501    0 0.00000000E+00 0.00000000E+00 0.89584251E+03 0.89584257E+03 0.32000000E+00 0.0000E+00 0.9000E+01
       -1 -1    0    0    0  503 0.00000000E+00 0.00000000E+00 -.70799274E+03 0.70799281E+03 0.32000000E+00 0.0000E+00 0.9000E+01
       25  1    1    2    0    0 -.42892584E+03 0.15039537E+03 0.56512813E+03 0.73592863E+03 0.12500000E+03 0.0000E+00 0.9000E+01
        4  1    1    2  502    0 0.29893107E+03 -.14131012E+03 -.37529198E+02 0.33277497E+03 0.15500000E+01 0.0000E+00 0.9000E+01
       -3  1    1    2    0  502 0.20338731E+03 -.77666770E+02 -.43101480E+02 0.22193808E+03 0.50000000E+00 0.0000E+00 0.9000E+01
       21  1    1    2  501  503 -.73392538E+02 0.68581520E+02 -.29664768E+03 0.31319371E+03 0.75000000E+00 0.0000E+00 0.9000E+01
#aMCatNLO 2  0  0  2  1 0.51078509D+01 0.00000000D+00  -5  6  0 0.00000000D+00 0.00000000D+00 0.00000000D+00 0.00000000D+00 0.00000000D+00
  <mgrwgt>
 0.5335171972D-04    1    2    0
 0.596013479362668D+03 0.000000000000000D+00 0.000000000000000D+00 0.596013479362668D+03
 0.596013479362668D+03 0.000000000000000D+00 0.000000000000000D+00 -.596013479362668D+03
 0.602177837238211D+03 -.464797620483264D+03 0.183915359833503D+03 0.311659205016150D+03
 0.348493847961497D+03 0.276291581796061D+03 -.120398480510636D+03 -.174971797117056D+03
 0.241355273525627D+03 0.188506038687203D+03 -.635168793228673D+02 -.136687407899095D+03
 0.000000000000000D+00 -.000000000000000D+00 0.000000000000000D+00 -.000000000000000D+00
 0.603700667990356D+03 0.000000000000000D+00 0.000000000000000D+00 0.603700667990356D+03
 0.105060255013632D+04 0.000000000000000D+00 0.000000000000000D+00 -.105060255013632D+04
 0.565113391316411D+03 -.428926402116472D+03 0.150395566893628D+03 0.311659205016150D+03
 0.373667063777890D+03 0.298483808660509D+03 -.141135965414682D+03 -.174971797117056D+03
 0.257471257469185D+03 0.203835131361548D+03 -.778411213139312D+02 -.136687407899095D+03
 0.458051505563190D+03 -.733925379055856D+02 0.685815198349852D+02 -.446901882145965D+03
0.135526271571D-04 0.000000000000D+00 0.000000000000D+00 0.190634988869D-06 0.144075856778D-09  6 2 -1 25 4 -3 21 2 0.13782187D+00 0.10892192D+00 0.31372015D+06 0.31372015D+06 0.31372015D+06 0.10831179D+01  1  2  1  2  6  2       -1 0.533517197227D-04 0.100000000000D+01
  </mgrwgt>
  </event>
  <event>
  6     66 0.16549492E-05 0.59852523E+02 0.75467711E-02 0.91520308E-01
        2 -1    0    0  501    0 0.00000000E+00 0.00000000E+00 0.14423890E+04 0.14423891E+04 0.32000000E+00 0.0000E+00 0.9000E+01
       -1 -1    0    0    0  501 0.00000000E+00 0.00000000E+00 -.30913944E+03 0.30913961E+03 0.32000000E+00 0.0000E+00 0.9000E+01
       25  1    1    2    0    0 -.33786692E+03 0.54335392E+03 0.54716754E+03 0.85111976E+03 0.12500000E+03 0.0000E+00 0.9000E+01
        4  1    1    2  502    0 0.17166872E+03 -.34387295E+03 0.30001499E+03 0.48757579E+03 0.15500000E+01 0.0000E+00 0.9000E+01
       -3  1    1    2    0  503 0.17641879E+03 -.21152053E+03 0.24427683E+03 0.36815207E+03 0.50000000E+00 0.0000E+00 0.9000E+01
       21  1    1    2  503  502 -.10220587E+02 0.12039554E+02 0.41790240E+02 0.44681069E+02 0.75000000E+00 0.0000E+00 0.9000E+01
#aMCatNLO 2  0  0  5  4 0.56372943D-01 0.00000000D+00  -5  6  0 0.00000000D+00 0.00000000D+00 0.00000000D+00 0.00000000D+00 0.00000000D+00
  <mgrwgt>
 0.3628413673D+00    1    2    0
 0.667757082782368D+03 0.000000000000000D+00 0.000000000000000D+00 0.667757082782368D+03
 0.667757082782368D+03 -.000000000000000D+00 -.000000000000000D+00 -.667757082782368D+03
 0.670370274431117D+03 -.349979889697327D+03 0.557892627661176D+03 -.641853952282795D+01
 0.374371353931949D+03 0.164691855548971D+03 -.335523778590562D+03 -.213142525317862D+02
 0.290772537201669D+03 0.185288034148355D+03 -.222368849070614D+03 0.277327920546141D+02
 0.000000000000000D+00 -.000000000000000D+00 0.000000000000000D+00 0.000000000000000D+00
 0.667757082782368D+03 0.000000000000000D+00 0.000000000000000D+00 0.667757082782368D+03
 0.667757082782368D+03 -.000000000000000D+00 -.000000000000000D+00 -.667757082782368D+03
 0.651887584506667D+03 -.337827502525119D+03 0.543308240917774D+03 -.459964372654488D+01
 0.384899496829660D+03 0.171670035549685D+03 -.343898468637325D+03 -.202698007636568D+02
 0.275521961030897D+03 0.176413542388733D+03 -.211489773530035D+03 0.791762365766564D+01
 0.232051231975112D+02 -.102560754132998D+02 0.120800012495851D+02 0.169518208325360D+02
0.378857662125D-01 0.000000000000D+00 0.000000000000D+00 0.138117498389D-05 0.506376328523D-05  6 2 -1 25 4 -3 21 2 0.22190602D+00 0.47559930D-01 0.44055841D+06 0.44055841D+06 0.44055841D+06 0.10724169D+01  1  2  1  4  6  5       -3 0.362841367326D+00 0.100000000000D+01
  </mgrwgt>
  </event>
  <event>
  7     66 0.16549492E-05 0.67885309E+02 0.75467711E-02 0.95199811E-01
        2 -1    0    0  503    0 0.00000000E+00 0.00000000E+00 0.76695794E+03 0.76695800E+03 0.32000000E+00 0.0000E+00 0.9000E+01
       -1 -1    0    0    0  501 0.00000000E+00 0.00000000E+00 -.40222035E+03 0.40222048E+03 0.32000000E+00 0.0000E+00 0.9000E+01
       24  2    1    2    0    0 -.43363178E+03 0.17226553E+03 -.11355058E+03 0.48702750E+03 0.81179477E+02 0.0000E+00 0.0000E+00
       25  1    1    2    0    0 0.41773204E+03 -.16799214E+03 0.44629495E+03 0.64616221E+03 0.12500000E+03 0.0000E+00 0.9000E+01
        4  1    3    3  502    0 -.22562792E+03 0.10225063E+03 -.20249998E+02 0.24854700E+03 0.15500000E+01 0.0000E+00 0.9000E+01
       -3  1    3    3    0  502 -.20800387E+03 0.70014907E+02 -.93300586E+02 0.23848049E+03 0.50000000E+00 0.0000E+00 0.9000E+01
       21  1    1    2  503  501 0.15899740E+02 -.42733931E+01 0.31993221E+02 0.35988781E+02 0.75000000E+00 0.0000E+00 0.9000E+01
#aMCatNLO 2  0  0  1  4 0.45009181D+03 0.00000000D+00  -5  6  0 0.00000000D+00 0.00000000D+00 0.00000000D+00 0.00000000D+00 0.00000000D+00
  <mgrwgt>
 0.7404897602D-02    1    2    0
 0.541555405355209D+03 0.000000000000000D+00 0.000000000000000D+00 0.541555405355209D+03
 0.541555405355209D+03 0.000000000000000D+00 0.000000000000000D+00 -.541555405355209D+03
 0.545726212509485D+03 0.425692348985686D+03 -.170131643060352D+03 0.268390288692758D+03
 0.262454050779448D+03 -.221681059234901D+03 0.101186258944104D+03 -.974729590600911D+02
 0.274930547421485D+03 -.204011289750785D+03 0.689453841162478D+02 -.170917329632667D+03
 0.000000000000000D+00 0.000000000000000D+00 -.000000000000000D+00 0.000000000000000D+00
 0.566730003222575D+03 0.000000000000000D+00 0.000000000000000D+00 0.566730003222575D+03
 0.544316510730281D+03 0.000000000000000D+00 0.000000000000000D+00 -.544316510730281D+03
 0.538868970169214D+03 0.417732043577019D+03 -.167992141826974D+03 0.268390288692758D+03
 0.266137809992331D+03 -.225560619752482D+03 0.102228973273040D+03 -.974729590600911D+02
 0.278229155314784D+03 -.208071164111164D+03 0.700365616220671D+02 -.170917329632667D+03
 0.278105784765275D+02 0.158997402866270D+02 -.427339306813335D+01 0.224134924922943D+02
0.458418153833D-03 0.000000000000D+00 0.000000000000D+00 0.188648485715D-03 0.444182015324D-05  6 2 -1 25 4 -3 21 2 0.11799245D+00 0.61879497D-01 0.22606566D+06 0.22606566D+06 0.22606566D+06 0.10937624D+01  1  2  1  1  6  1        2 0.740489760166D-02 0.100000000000D+01
  </mgrwgt>
  </event>
  <event>
  7     66 0.16549492E-05 0.49629659E+02 0.75467711E-02 0.93759380E-01
        2 -1    0    0  501    0 0.00000000E+00 0.00000000E+00 0.69480948E+03 0.69480955E+03 0.32000000E+00 0.0000E+00 0.9000E+01
       -1 -1    0    0    0  503 0.00000000E+00 0.00000000E+00 -.64154344E+03 0.64154352E+03 0.32000000E+00 0.0000E+00 0.9000E+01
       24  2    1    2    0    0 -.50505895E+03 -.15799368E+03 0.39544228E+03 0.66538563E+03 0.79478899E+02 0.0000E+00 0.0000E+00
       25  1    1    2    0    0 0.49531552E+03 0.16387059E+03 -.27505757E+03 0.60288697E+03 0.12500000E+03 0.0000E+00 0.9000E+01
        4  1    3    3  502    0 -.17189386E+03 -.25629639E+02 0.97757338E+02 0.19940732E+03 0.15500000E+01 0.0000E+00 0.9000E+01
       -3  1    3    3    0  502 -.33316509E+03 -.13236405E+03 0.29768494E+03 0.46597831E+03 0.50000000E+00 0.0000E+00 0.9000E+01
       21  1    1    2  501  503 0.97434312E+01 -.58769071E+01 -.67118661E+02 0.68080464E+02 0.75000000E+00 0.0000E+00 0.9000E+01
#aMCatNLO 2  0  0  2  1 0.51078509D+01 0.00000000D+00  -5  6  0 0.00000000D+00 0.00000000D+00 0.00000000D+00 0.00000000D+00 0.00000000D+00
  <mgrwgt>
 0.2853132837D-02    1    2    0
 0.631247465362487D+03 0.000000000000000D+00 0.000000000000000D+00 0.631247465362487D+03
 0.631247465362487D+03 0.000000000000000D+00 0.000000000000000D+00 -.631247465362487D+03
 0.634933858268435D+03 0.500203680178029D+03 0.160922219364769D+03 -.333790835744055D+03
 0.189631911911644D+03 -.170305799632433D+03 -.264657974336767D+02 0.790933511303125D+02
 0.437929160544894D+03 -.329897880545596D+03 -.134456421931092D+03 0.254697484613742D+03
 0.000000000000000D+00 0.000000000000000D+00 -.000000000000000D+00 -.000000000000000D+00
 0.631708452588464D+03 0.000000000000000D+00 0.000000000000000D+00 0.631708452588464D+03
 0.705622838622694D+03 0.000000000000000D+00 0.000000000000000D+00 -.705622838622694D+03
 0.631848365683448D+03 0.495315520017693D+03 0.163870591686647D+03 -.333790835744055D+03
 0.190830767630270D+03 -.171773899261136D+03 -.255802895597426D+02 0.790933511303125D+02
 0.439867072809096D+03 -.333285051991205D+03 -.132413395063699D+03 0.254697484613742D+03
 0.747850850883444D+02 0.974343123464777D+01 -.587690706320604D+01 -.739143860342291D+02
0.414754987150D-03 0.000000000000D+00 0.000000000000D+00 0.787033037824D-04 0.384093634337D-05  6 2 -1 25 4 -3 21 2 0.10689346D+00 0.98698708D-01 0.29168484D+06 0.29168484D+06 0.29168484D+06 0.10854562D+01  1  2  1  2  6  2       -1 0.285313283678D-02 0.100000000000D+01
  </mgrwgt>
  </event>
  <event>
  6     66 0.16549492E-05 0.18622858E+02 0.75467711E-02 0.93031341E-01
        2 -1    0    0  501    0 0.00000000E+00 0.00000000E+00 0.58841769E+03 0.58841777E+03 0.32000000E+00 0.0000E+00 0.9000E+01
       -1 -1    0    0    0  501 0.00000000E+00 0.00000000E+00 -.38557934E+03 0.38557948E+03 0.32000000E+00 0.0000E+00 0.9000E+01
       24  2    1    2    0    0 -.45058606E+03 0.93100503E+02 0.35893241E+02 0.46883276E+03 0.82585305E+02 0.0000E+00 0.0000E+00
       25  1    1    2    0    0 0.45058606E+03 -.93100503E+02 0.16694510E+03 0.50516449E+03 0.12500000E+03 0.0000E+00 0.9000E+01
        4  1    3    3  502    0 -.10957254E+02 0.18381829E+02 -.15476451E-01 0.21455904E+02 0.15500000E+01 0.0000E+00 0.9000E+01
       -3  1    3    3    0  502 -.43962880E+03 0.74718674E+02 0.35908718E+02 0.44737685E+03 0.50000000E+00 0.0000E+00 0.9000E+01
#aMCatNLO 1  0  0  2  1 0.51078509D+01 0.00000000D+00  -5  6  0 0.00000000D+00 0.00000000D+00 0.00000000D+00 0.00000000D+00 0.00000000D+00
  <mgrwgt>
 0.6160458187D-03    7    4    0
 0.476321124007475D+03 0.000000000000000D+00 0.000000000000000D+00 0.476321124007475D+03
 0.476321124007475D+03 0.000000000000000D+00 0.000000000000000D+00 -.476321124007475D+03
 0.480942307019596D+03 0.450586057160216D+03 -.931005030140665D+02 0.631268889829776D+02
 0.217824741073881D+02 -.108027292771342D+02 0.183561713822523D+02 -.456379125172925D+01
 0.449917466887967D+03 -.439783327883082D+03 0.747443316318142D+02 -.585630977312483D+02
 0.000000000000000D+00 -.000000000000000D+00 0.000000000000000D+00 -.000000000000000D+00
 0.510522027947649D+03 0.000000000000000D+00 0.000000000000000D+00 0.510522027947649D+03
 0.853818760177279D+03 0.000000000000000D+00 0.000000000000000D+00 -.853818760177279D+03
 0.581286953132496D+03 0.555883613340621D+03 -.963219922383628D+02 0.631268889829776D+02
 0.199397788067358D+02 -.666685067257671D+01 0.182296376920045D+02 -.456379125172925D+01
 0.370341521227305D+03 -.358472004495904D+03 0.722566808105903D+02 -.585630977312483D+02
 0.392772534958391D+03 -.190744758172140D+03 0.583567373576798D+01 -.343296732229629D+03
 0.476321124007475D+03 0.000000000000000D+00 0.000000000000000D+00 0.476321124007475D+03
 0.476321124007475D+03 0.000000000000000D+00 0.000000000000000D+00 -.476321124007475D+03
 0.480942307019596D+03 0.450586057160216D+03 -.931005030140665D+02 0.631268889829776D+02
 0.217824741073881D+02 -.108027292771342D+02 0.183561713822523D+02 -.456379125172925D+01
 0.000000000000000D+00 -.000000000000000D+00 0.000000000000000D+00 -.000000000000000D+00
 0.449917466887967D+03 -.439783327883082D+03 0.747443316318142D+02 -.585630977312483D+02
 0.510522027947649D+03 0.000000000000000D+00 0.000000000000000D+00 0.510522027947649D+03
 0.853818760177279D+03 0.000000000000000D+00 0.000000000000000D+00 -.853818760177279D+03
 0.581286953132496D+03 0.555883613340621D+03 -.963219922383628D+02 0.631268889829776D+02
 0.199397788067358D+02 -.666685067257671D+01 0.182296376920045D+02 -.456379125172925D+01
 0.392772534958391D+03 -.190744758172140D+03 0.583567373576798D+01 -.343296732229629D+03
 0.370341521227305D+03 -.358472004495904D+03 0.722566808105903D+02 -.585630977312483D+02
0.135864908117D-04 0.000000000000D+00 0.000000000000D+00 0.809849965424D-05 0.000000000000D+00  6 2 -1 25 4 -3 21 0 0.90525815D-01 0.59319916D-01 0.22286434D+06 0.22286434D+06 0.22286434D+06 0.10942330D+01  1  2  2  2  6  2       -1 0.273591278026D-03 0.100000000000D+01
0.468720277542D-05 0.000000000000D+00 -.521757021220D-07 0.809849965424D-05 0.000000000000D+00  6 2 -1 25 4 -3 21 2 0.90525815D-01 0.59319916D-01 0.22286434D+06 0.22286434D+06 0.22286434D+06 0.10942330D+01  1  2  3  2  6  2       -1 0.113012974490D-03 0.100000000000D+01
-.420907063551D-05 0.000000000000D+00 0.000000000000D+00 0.809849965424D-05 0.000000000000D+00  6 2 -1 25 4 -3 21 2 0.90525815D-01 0.59319916D-01 0.22286434D+06 0.22286434D+06 0.22286434D+06 0.10942330D+01  1  2 15  2  6  2       -1 -.101484747972D-03 0.100000000000D+01
-.124757535724D-05 0.000000000000D+00 0.000000000000D+00 0.809849965424D-05 0.000000000000D+00  6 2 -1 25 4 -3 21 2 0.90525815D-01 0.59319916D-01 0.22286434D+06 0.22286434D+06 0.22286434D+06 0.10942330D+01  1  2  4  2  6  2       -1 -.300802437566D-04 0.100000000000D+01
-.256744158957D-04 0.000000000000D+00 -.514576511797D-05 0.809849965424D-05 0.000000000000D+00  6 2 -1 25 4 -3 21 2 0.90525815D-01 0.11044393D+00 0.22286434D+06 0.22286434D+06 0.22286434D+06 0.10942330D+01  1  2  5  2  6  2       -1 -.170973767011D-03 0.100000000000D+01
0.247847511915D-04 0.000000000000D+00 0.429003238013D-05 0.809849965424D-05 0.000000000000D+00  6 2 -1 25 4 -3 21 2 0.90525815D-01 0.59319916D-01 0.22286434D+06 0.22286434D+06 0.22286434D+06 0.10942330D+01  1  2  6  2  6  2       -1 0.597584228448D-03 0.100000000000D+01
-.145221641428D-05 0.000000000000D+00 -.348530966867D-06 0.809849965424D-05 0.000000000000D+00  6 2 21 25 4 1 -3 2 0.90525815D-01 0.11044393D+00 0.22286434D+06 0.22286434D+06 0.22286434D+06 0.10942330D+01  3  4  5  6  5  2       -1 -.656039035643D-04 0.100000000000D+01
  </mgrwgt>
  </event>
  <event>
  7     66 0.16549492E-05 0.24432641E+02 0.75467711E-02 0.94067261E-01
        2 -1    0    0  501    0 0.00000000E+00 0.00000000E+00 0.36176302E+03 0.36176316E+03 0.32000000E+00 0.0000E+00 0.9000E+01
       21 -1    0    0  503  501 0.00000000E+00 0.00000000E+00 -.90397358E+03 0.90397389E+03 0.75000000E+00 0.0000E+00 0.9000E+01
       24  2    1    2    0    0 0.24273526E+03 0.44035415E+03 -.68445836E+02 0.51394183E+03 0.81358433E+02 0.0000E+00 0.0000E+00
       25  1    1    2    0    0 -.19932861E+03 -.43891734E+03 -.31984826E+03 0.59186843E+03 0.12500000E+03 0.0000E+00 0.9000E+01
        4  1    3    3  502    0 0.14061684E+02 0.89130964E+02 -.10819097E+02 0.90892876E+02 0.15500000E+01 0.0000E+00 0.9000E+01
        1  1    1    2  503    0 -.43406645E+02 -.14368113E+01 -.15391646E+03 0.15992680E+03 0.32000000E+00 0.0000E+00 0.9000E+01
       -3  1    3    3    0  502 0.22867358E+03 0.35122318E+03 -.57626739E+02 0.42304896E+03 0.50000000E+00 0.0000E+00 0.9000E+01
#aMCatNLO 2  0  0  2  4 0.21370159D+03 0.00000000D+00  -5  6  0 0.00000000D+00 0.00000000D+00 0.00000000D+00 0.00000000D+00 0.00000000D+00
  <mgrwgt>
 0.1125755205D-03    1    2    0
 0.517242163478181D+03 0.000000000000000D+00 0.000000000000000D+00 0.517242163478181D+03
 0.517242163478181D+03 0.000000000000000D+00 0.000000000000000D+00 -.517242163478181D+03
 0.521594962927481D+03 -.221007305651217D+03 -.439634925485935D+03 -.119637822167935D+03
 0.922358127325098D+02 0.100975197518603D+02 0.888783092135922D+02 0.224973642149586D+02
 0.000000000000000D+00 -.000000000000000D+00 -.000000000000000D+00 -.000000000000000D+00
 0.420653551296372D+03 0.210909785899356D+03 0.350756616272342D+03 0.971404579529766D+02
 0.522034110311796D+03 0.000000000000000D+00 0.000000000000000D+00 0.522034110311796D+03
 0.626442244535293D+03 0.000000000000000D+00 0.000000000000000D+00 -.626442244535293D+03
 0.512170413251517D+03 -.199328614599530D+03 -.438917335177109D+03 -.119637822167935D+03
 0.928641951264547D+02 0.139791799201192D+02 0.890067967552179D+02 0.224973642149586D+02
 0.113080766669817D+03 -.434066454809403D+02 -.143681129370157D+01 -.104408134223497D+03
 0.430360979799301D+03 0.228756080160352D+03 0.351347349715593D+03 0.971404579529766D+02
0.280699510630D-05 0.000000000000D+00 0.000000000000D+00 0.878321631061D-04 0.846247916439D-08  6 2 21 25 4 1 -3 2 0.55655860D-01 0.13907283D+00 0.27603680D+06 0.27603680D+06 0.27603680D+06 0.10872369D+01  1  2  1  6  5  2       -1 0.112575520525D-03 0.100000000000D+01
  </mgrwgt>
  </event>
  <event>
  7     66 0.16549492E-05 0.18102916E+02 0.75467711E-02 0.94164684E-01
        2 -1    0    0  503    0 0.00000000E+00 0.00000000E+00 0.24173174E+04 0.24173174E+04 0.32000000E+00 0.0000E+00 0.9000E+01
       -1 -1    0    0    0  501 0.00000000E+00 0.00000000E+00 -.17076871E+03 0.17076901E+03 0.32000000E+00 0.0000E+00 0.9000E+01
       24  2    1    2    0    0 0.49159652E+03 0.41110633E+02 0.53526209E+03 0.73247402E+03 0.81581049E+02 0.0000E+00 0.0000E+00
       25  1    1    2    0    0 -.49144525E+03 -.76472865E+02 0.84387460E+03 0.98747956E+03 0.12500000E+03 0.0000E+00 0.9000E+01
        4  1    3    3  502    0 0.41564695E+03 0.39775501E+02 0.40509891E+03 0.58176628E+03 0.15500000E+01 0.0000E+00 0.9000E+01
       -3  1    3    3    0  502 0.75949567E+02 0.13351317E+01 0.13016318E+03 0.15070774E+03 0.50000000E+00 0.0000E+00 0.9000E+01
       21  1    1    2  503  501 -.15126136E+00 0.35362232E+02 0.86741199E+03 0.86813285E+03 0.75000000E+00 0.0000E+00 0.9000E+01
#aMCatNLO 2  0  0  1  4 0.45009181D+03 0.00000000D+00  -5  6  0 0.00000000D+00 0.00000000D+00 0.00000000D+00 0.00000000D+00 0.00000000D+00
  <mgrwgt>
 0.5255454983D-03    1    2    0
 0.513559098857016D+03 0.000000000000000D+00 0.000000000000000D+00 0.513559098857016D+03
 0.513559098857016D+03 0.000000000000000D+00 0.000000000000000D+00 -.513559098857016D+03
 0.517925457457015D+03 -.491521671279211D+03 -.586079427058693D+02 0.871397452184402D+02
 0.431552839476606D+03 0.415571725451307D+03 0.546029720403700D+02 -.102744876807086D+03
 0.776399007804110D+02 0.759499458279043D+02 0.400497066549931D+01 0.156051315886454D+02
 0.000000000000000D+00 -.000000000000000D+00 0.000000000000000D+00 0.000000000000000D+00
 0.801635120468516D+03 0.000000000000000D+00 0.000000000000000D+00 0.801635120468516D+03
 0.514949755694859D+03 0.000000000000000D+00 0.000000000000000D+00 -.514949755694859D+03
 0.520177731479123D+03 -.491445254372558D+03 -.764728650223284D+02 0.871397452184402D+02
 0.429989831141561D+03 0.415635145375781D+03 0.397765144714634D+02 -.102744876807086D+03
 0.775592018428614D+02 0.759613703524258D+02 0.133411872948865D+01 0.156051315886454D+02
 0.288858111699830D+03 -.151261355648127D+00 0.353622318213764D+02 0.286685364773657D+03
0.647014708810D-04 0.000000000000D+00 0.000000000000D+00 0.393090342567D-04 0.218776270318D-06  6 2 -1 25 4 -3 21 2 0.37189466D+00 0.26272109D-01 0.27128304D+06 0.27128304D+06 0.27128304D+06 0.10877998D+01  1  2  1  1  6  1        2 0.525545498289D-03 0.100000000000D+01
  </mgrwgt>
  </event>
  <event>
  7     66 0.16549492E-05 0.48402064E+02 0.75467711E-02 0.89296197E-01
        2 -1    0    0  501    0 0.00000000E+00 0.00000000E+00 0.16663574E+04 0.16663574E+04 0.32000000E+00 0.0000E+00 0.9000E+01
       -1 -1    0    0    0  503 0.00000000E+00 0.00000000E+00 -.46144957E+03 0.46144968E+03 0.32000000E+00 0.0000E+00 0.9000E+01
       24  2    1    2    0    0 -.20026277E+03 -.75996674E+03 0.41858701E+03 0.89485046E+03 0.88812376E+02 0.0000E+00 0.0000E+00
       25  1    1    2    0    0 0.14185921E+03 0.77489956E+03 0.83553324E+03 0.11551338E+04 0.12500000E+03 0.0000E+00 0.9000E+01
        4  1    3    3  502    0 -.17255213E+03 -.71516935E+03 0.40752640E+03 0.84102414E+03 0.15500000E+01 0.0000E+00 0.9000E+01
       -3  1    3    3    0  502 -.27710633E+02 -.44797390E+02 0.11060609E+02 0.53826317E+02 0.50000000E+00 0.0000E+00 0.9000E+01
       21  1    1    2  501  503 0.58403552E+02 -.14932824E+02 -.49212431E+02 0.77822812E+02 0.75000000E+00 0.0000E+00 0.9000E+01
#aMCatNLO 2  0  0  2  1 0.86868116D+01 0.00000000D+00  -5  6  0 0.00000000D+00 0.00000000D+00 0.00000000D+00 0.00000000D+00 0.00000000D+00
  <mgrwgt>
 0.3386797502D-04    1    2    0
 0.810244411060340D+03 0.000000000000000D+00 0.000000000000000D+00 0.810244411060340D+03
 0.810244411060340D+03 0.000000000000000D+00 0.000000000000000D+00 -.810244411060340D+03
 0.812631766075227D+03 0.171163294886377D+03 0.767406995083210D+03 0.162895726204036D+03
 0.748916237851081D+03 -.145583043438399D+03 -.722073173235993D+03 -.135245854920342D+03
 0.589408181943706D+02 -.255802514479780D+02 -.453338218472170D+02 -.276498712836941D+02
 0.000000000000000D+00 0.000000000000000D+00 -.000000000000000D+00 -.000000000000000D+00
 0.817824615540936D+03 0.000000000000000D+00 0.000000000000000D+00 0.817824615540936D+03
 0.940223752456445D+03 0.000000000000000D+00 0.000000000000000D+00 -.940223752456445D+03
 0.814096670813092D+03 0.141859213339564D+03 0.774899564720551D+03 0.162895726204036D+03
 0.748027254049085D+03 -.172549163389879D+03 -.715178381762573D+03 -.135245854920342D+03
 0.594857651526636D+02 -.277136021517687D+02 -.447883593087140D+02 -.276498712836941D+02
 0.136438677982539D+03 0.584035522020841D+02 -.149328236492635D+02 -.122399136915509D+03
0.105113643227D-04 0.000000000000D+00 0.000000000000D+00 0.124936892718D-05 0.207808353483D-08  6 2 -1 25 4 -3 21 2 0.25636237D+00 0.70992164D-01 0.67756253D+06 0.67756253D+06 0.67756253D+06 0.10593060D+01  1  2  1  2  6  2       -1 0.338679750162D-04 0.100000000000D+01
  </mgrwgt>
  </event>
  <event>
  6     66 0.16549492E-05 0.29042022E+02 0.75467711E-02 0.92267674E-01
        2 -1    0    0  501    0 0.00000000E+00 0.00000000E+00 0.11471654E+04 0.11471654E+04 0.32000000E+00 0.0000E+00 0.9000E+01
       -1 -1    0    0    0  501 0.00000000E+00 0.00000000E+00 -.36647296E+03 0.36647310E+03 0.32000000E+00 0.0000E+00 0.9000E+01
       25  1    1    2    0    0 0.59973543E+03 -.44292858E+02 0.17135926E+03 0.63767816E+03 0.12500000E+03 0.0000E+00 0.9000E+01
        4  1    1    2  502    0 -.49681174E+03 0.46651623E+02 0.43916598E+03 0.66473110E+03 0.15500000E+01 0.0000E+00 0.9000E+01
       -3  1    1    2    0  503 -.11361641E+03 -.19932317E+00 0.14870351E+03 0.18714089E+03 0.50000000E+00 0.0000E+00 0.9000E+01
       21  1    1    2  503  502 0.10692727E+02 -.21594415E+01 0.21463684E+02 0.24088375E+02 0.75000000E+00 0.0000E+00 0.9000E+01
#aMCatNLO 2  0  0  5  4 0.38260726D+02 0.00000000D+00  -5  6  0 0.00000000D+00 0.00000000D+00 0.00000000D+00 0.00000000D+00 0.00000000D+00
  <mgrwgt>
 0.3981708093D-01    1    2    0
 0.648386640855713D+03 0.000000000000000D+00 0.000000000000000D+00 0.648386640855713D+03
 0.648386640855713D+03 -.000000000000000D+00 -.000000000000000D+00 -.648386640855713D+03
 0.649929699165441D+03 0.607470620513167D+03 -.441155892262734D+02 -.189253464586113D+03
 0.504724431816417D+03 -.490765352109901D+03 0.467979497084813D+02 0.108194607739628D+03
 0.142119150729569D+03 -.116705268403266D+03 -.268236048220783D+01 0.810588568464855D+02
 0.000000000000000D+00 0.000000000000000D+00 0.000000000000000D+00 0.000000000000000D+00
 0.648386640855713D+03 0.000000000000000D+00 0.000000000000000D+00 0.648386640855713D+03
 0.648386640855713D+03 -.000000000000000D+00 -.000000000000000D+00 -.648386640855713D+03
 0.641094773252429D+03 0.599680935427025D+03 -.442946277883691D+02 -.183843057867413D+03
 0.511595446771341D+03 -.496897545550168D+03 0.466570070280139D+02 0.112453786412796D+03
 0.128787954565218D+03 -.113557607792810D+03 -.186566295370068D+00 0.607533714824477D+02
 0.152951071224394D+02 0.107742179159526D+02 -.217581294427467D+01 0.106358999721693D+02
0.380310743689D-02 0.000000000000D+00 0.000000000000D+00 0.105879838673D-06 0.113357456883D-06  6 2 -1 25 4 -3 21 2 0.17648700D+00 0.56380469D-01 0.38303860D+06 0.38303860D+06 0.38303860D+06 0.10767868D+01  1  2  1  4  6  5       -3 0.398170809329D-01 0.100000000000D+01
  </mgrwgt>
  </event>
  <event>
  7     66 0.16549492E-05 0.24875245E+02 0.75467711E-02 0.93358963E-01
        2 -1    0    0  501    0 0.00000000E+00 0.00000000E+00 0.27147825E+04 0.27147826E+04 0.32000000E+00 0.0000E+00 0.9000E+01
       21 -1    0    0  503  501 0.00000000E+00 0.00000000E+00 -.16633133E+03 0.16633302E+03 0.75000000E+00 0.0000E+00 0.9000E+01
       24  2    1    2    0    0 0.51843261E+03 -.75153269E+02 0.67568518E+03 0.85897389E+03 0.82857025E+02 0.0000E+00 0.0000E+00
       25  1    1    2    0    0 -.53560134E+03 0.34606232E+02 0.18945095E+04 0.19730326E+04 0.12500000E+03 0.0000E+00 0.9000E+01
        4  1    3    3  502    0 0.42867932E+03 -.50072516E+02 0.59895997E+03 0.73826056E+03 0.15500000E+01 0.0000E+00 0.9000E+01
        1  1    1    2  503    0 0.17168730E+02 0.40547036E+02 -.21743434E+02 0.49109131E+02 0.32000000E+00 0.0000E+00 0.9000E+01
       -3  1    3    3    0  502 0.89753294E+02 -.25080753E+02 0.76725213E+02 0.12071332E+03 0.50000000E+00 0.0000E+00 0.9000E+01
#aMCatNLO 2  0  0  2  1 0.18607270D+01 0.00000000D+00  -5  6  0 0.00000000D+00 0.00000000D+00 0.00000000D+00 0.00000000D+00 0.00000000D+00
  <mgrwgt>
 0.3396849070D-03    1    2    0
 0.594226641121916D+03 0.000000000000000D+00 0.000000000000000D+00 0.594226641121916D+03
 0.594226641121916D+03 0.000000000000000D+00 0.000000000000000D+00 -.594226641121916D+03
 0.597911983298991D+03 -.526922350269025D+03 0.551032337897004D+02 0.247366550255725D+03
 0.468351624635834D+03 0.435392460583400D+03 -.341739582465154D+02 -.169170890356239D+03
 0.000000000000000D+00 0.000000000000000D+00 0.000000000000000D+00 -.000000000000000D+00
 0.122189674309007D+03 0.915298896856243D+02 -.209292755431849D+02 -.781956598994853D+02
 0.597646406259278D+03 0.000000000000000D+00 0.000000000000000D+00 0.597646406259278D+03
 0.755556492108573D+03 0.000000000000000D+00 0.000000000000000D+00 -.755556492108573D+03
 0.604054303438075D+03 -.535601344284648D+03 0.346062323450277D+02 0.247366550255725D+03
 0.463549094648658D+03 0.428663519135482D+03 -.500655606984602D+02 -.169170890356239D+03
 0.163934202263045D+03 0.171687301454389D+02 0.405470364377225D+02 -.157910085849296D+03
 0.121665298018074D+03 0.897690950037268D+02 -.250877080842901D+02 -.781956598994853D+02
0.549277764116D-05 0.000000000000D+00 0.000000000000D+00 0.289980478615D-04 0.320478141149D-08  6 2 21 25 4 1 -3 2 0.41765888D+00 0.25589560D-01 0.31354415D+06 0.31354415D+06 0.31354415D+06 0.10831359D+01  1  2  1  6  5  2       -1 0.339684907023D-03 0.100000000000D+01
  </mgrwgt>
  </event>
  <event>
  7     66 0.16549492E-05 0.46408916E+02 0.75467711E-02 0.87914580E-01
        2 -1    0    0  501    0 0.00000000E+00 0.00000000E+00 0.16908952E+04 0.16908953E+04 0.32000000E+00 0.0000E+00 0.9000E+01
       -1 -1    0    0    0  503 0.00000000E+00 0.00000000E+00 -.81838650E+03 0.81838657E+03 0.32000000E+00 0.0000E+00 0.9000E+01
       24  2    1    2    0    0 -.24892301E+03 0.88464078E+03 0.32853042E+03 0.97917351E+03 0.79350877E+02 0.0000E+00 0.0000E+00
       25  1    1    2    0    0 0.19672056E+03 -.88902955E+03 0.83056998E+03 0.12387671E+04 0.12500000E+03 0.0000E+00 0.9000E+01
        4  1    3    3  502    0 -.16362441E+03 0.47398619E+03 0.15051413E+03 0.52353870E+03 0.15500000E+01 0.0000E+00 0.9000E+01
       -3  1    3    3    0  502 -.85298604E+02 0.41065458E+03 0.17801629E+03 0.45563482E+03 0.50000000E+00 0.0000E+00 0.9000E+01
       21  1    1    2  501  503 0.52202453E+02 0.43887750E+01 -.28659165E+03 0.29134120E+03 0.75000000E+00 0.0000E+00 0.9000E+01
#aMCatNLO 2  0  0  2  1 0.18607270D+01 0.00000000D+00  -5  6  0 0.00000000D+00 0.00000000D+00 0.00000000D+00 0.00000000D+00 0.00000000D+00
  <mgrwgt>
 0.8860324339D-03    1    2    0
 0.945119388519866D+03 0.000000000000000D+00 0.000000000000000D+00 0.945119388519866D+03
 0.945119388519866D+03 0.000000000000000D+00 0.000000000000000D+00 -.945119388519866D+03
 0.947586917622278D+03 0.222833397251159D+03 -.886834190141939D+03 0.214863590944786D+03
 0.518446854994439D+03 -.149238802226075D+03 0.475055507034379D+03 -.144350914787751D+03
 0.424205004423015D+03 -.735945950250847D+02 0.411778683107561D+03 -.705126761570343D+02
 0.000000000000000D+00 0.000000000000000D+00 0.000000000000000D+00 -.000000000000000D+00
 0.946811759848636D+03 0.000000000000000D+00 0.000000000000000D+00 0.946811759848636D+03
 0.146154202239924D+04 0.000000000000000D+00 0.000000000000000D+00 -.146154202239924D+04
 0.943855862228116D+03 0.196720558728872D+03 -.889029553908132D+03 0.214863590944786D+03
 0.521664439514417D+03 -.163598347525597D+03 0.473848268479188D+03 -.144350914787751D+03
 0.425444264726930D+03 -.853246639450901D+02 0.410792510414770D+03 -.705126761570343D+02
 0.517389215778415D+03 0.522024527418150D+02 0.438877501417492D+01 -.514730262550607D+03
0.105469296065D-02 0.000000000000D+00 0.000000000000D+00 0.116123017714D-03 0.274070295679D-06  6 2 -1 25 4 -3 21 2 0.26013766D+00 0.12590559D+00 0.89521500D+06 0.89521500D+06 0.89521500D+06 0.10510791D+01  1  2  1  2  6  2       -1 0.886032433897D-03 0.100000000000D+01
  </mgrwgt>
  </event>
  <event>
  7     66 0.16549492E-05 0.39315910E+02 0.75467711E-02 0.94949355E-01
        2 -1    0    0  501    0 0.00000000E+00 0.00000000E+00 0.16846395E+04 0.16846396E+04 0.32000000E+00 0.0000E+00 0.9000E+01
       -1 -1    0    0    0  503 0.00000000E+00 0.00000000E+00 -.25877150E+03 0.25877170E+03 0.32000000E+00 0.0000E+00 0.9000E+01
       24  2    1    2    0    0 -.44093340E+03 0.11974573E+03 0.98225640E+03 0.10859774E+04 0.75880710E+02 0.0000E+00 0.0000E+00
       25  1    1    2    0    0 0.45407875E+03 -.13821693E+03 0.55664964E+03 0.74214234E+03 0.12500000E+03 0.0000E+00 0.9000E+01
        4  1    3    3  502    0 -.30968860E+03 0.66088508E+02 0.60318534E+03 0.68125595E+03 0.15500000E+01 0.0000E+00 0.9000E+01
       -3  1    3    3    0  502 -.13124481E+03 0.53657227E+02 0.37907106E+03 0.40472140E+03 0.50000000E+00 0.0000E+00 0.9000E+01
       21  1    1    2  501  503 -.13145350E+02 0.18471192E+02 -.11303802E+03 0.11529155E+03 0.75000000E+00 0.0000E+00 0.9000E+01
#aMCatNLO 2  0  0  2  1 0.18607270D+01 0.00000000D+00  -5  6  0 0.00000000D+00 0.00000000D+00 0.00000000D+00 0.00000000D+00 0.00000000D+00
  <mgrwgt>
 0.1929370006D-02    1    2    0
 0.493273719335054D+03 0.000000000000000D+00 0.000000000000000D+00 0.493273719335054D+03
 0.493273719335054D+03 0.000000000000000D+00 0.000000000000000D+00 -.493273719335054D+03
 0.498274552385769D+03 0.447383667677071D+03 -.128809326765170D+03 -.126129064015215D+03
 0.326807498803234D+03 -.313964979340556D+03 0.721360176864818D+02 0.550047995546351D+02
 0.161465387481104D+03 -.133418688336514D+03 0.566733090786884D+02 0.711242644605800D+02
 0.000000000000000D+00 -.000000000000000D+00 0.000000000000000D+00 -.000000000000000D+00
 0.493733822488447D+03 0.000000000000000D+00 0.000000000000000D+00 0.493733822488447D+03
 0.882937867440749D+03 0.000000000000000D+00 0.000000000000000D+00 -.882937867440749D+03
 0.506779017792373D+03 0.454078752357944D+03 -.138216926395796D+03 -.126129064015215D+03
 0.321359715488355D+03 -.309647264826813D+03 0.660689802402365D+02 0.550047995546351D+02
 0.158669167930476D+03 -.131286137374704D+03 0.536767546515380D+02 0.711242644605800D+02
 0.389863788717991D+03 -.131453501564272D+02 0.184711915040213D+02 -.389204044952302D+03
0.187285497259D-03 0.000000000000D+00 0.000000000000D+00 0.850862379747D-05 0.124772412845D-06  6 2 -1 25 4 -3 21 2 0.25917514D+00 0.39810989D-01 0.23617473D+06 0.23617473D+06 0.23617473D+06 0.10923227D+01  1  2  1  2  6  2       -1 0.192937000604D-02 0.100000000000D+01
  </mgrwgt>
  </event>
  <event>
  7     66 0.16549492E-05 0.30175151E+02 0.75467711E-02 0.88101242E-01
        2 -1    0    0  501    0 0.00000000E+00 0.00000000E+00 0.14218973E+04 0.14218974E+04 0.32000000E+00 0.0000E+00 0.9000E+01
       -1 -1    0    0    0  503 0.00000000E+00 0.00000000E+00 -.83214017E+03 0.83214024E+03 0.32000000E+00 0.0000E+00 0.9000E+01
       24  2    1    2    0    0 -.29026514E+01 0.91746077E+03 0.85788160E+03 0.12586931E+04 0.81269436E+02 0.0000E+00 0.0000E+00
       25  1    1    2    0    0 0.33796549E+02 -.86601276E+03 -.18860932E+03 0.89572249E+03 0.12500000E+03 0.0000E+00 0.9000E+01
        4  1    3    3  502    0 -.38915934E+02 0.31986745E+03 0.28937456E+03 0.43309315E+03 0.15500000E+01 0.0000E+00 0.9000E+01
       -3  1    3    3    0  502 0.36013283E+02 0.59759333E+03 0.56850704E+03 0.82559993E+03 0.50000000E+00 0.0000E+00 0.9000E+01
       21  1    1    2  501  503 -.30893898E+02 -.51448012E+02 -.79515128E+02 0.99622030E+02 0.75000000E+00 0.0000E+00 0.9000E+01
#aMCatNLO 2  0  0  2  1 0.15121792D+03 0.00000000D+00  -5  6  0 0.00000000D+00 0.00000000D+00 0.00000000D+00 0.00000000D+00 0.00000000D+00
  <mgrwgt>
 0.2439558497D-02    1    2    0
 0.102347199782341D+04 0.000000000000000D+00 0.000000000000000D+00 0.102347199782341D+04
 0.102347199782341D+04 0.000000000000000D+00 0.000000000000000D+00 -.102347199782341D+04
 0.102567535043105D+04 0.184832984508720D+02 -.891514119040514D+03 -.491167861032921D+03
 0.353535887397649D+03 -.443201913128996D+02 0.310686590423682D+03 0.162779565213015D+03
 0.667732757818128D+03 0.258368928620276D+02 0.580827528616832D+03 0.328388295819906D+03
 0.000000000000000D+00 -.000000000000000D+00 -.000000000000000D+00 -.000000000000000D+00
 0.103120174284981D+04 0.000000000000000D+00 0.000000000000000D+00 0.103120174284981D+04
 0.114741422318551D+04 0.000000000000000D+00 0.000000000000000D+00 -.114741422318551D+04
 0.100398763909387D+04 0.337965490907988D+02 -.866012762614489D+03 -.491167861032921D+03
 0.360827692758554D+03 -.389305140081329D+02 0.319662090479284D+03 0.162779565213015D+03
 0.683008159598154D+03 0.360278626559054D+02 0.597798683804675D+03 0.328388295819906D+03
 0.130792474584738D+03 -.308938977385713D+02 -.514480116694703D+02 -.116212480335702D+03
0.213469228288D-02 0.000000000000D+00 0.000000000000D+00 0.114493429916D-03 0.188280806470D-06  6 2 -1 25 4 -3 21 2 0.21875322D+00 0.12802144D+00 0.86170223D+06 0.86170223D+06 0.86170223D+06 0.10521943D+01  1  2  1  2  6  2       -1 0.243955849703D-02 0.100000000000D+01
  </mgrwgt>
  </event>
  <event>
  7     66 0.16549492E-05 0.34878922E+02 0.75467711E-02 0.91804084E-01
        2 -1    0    0  503    0 0.00000000E+00 0.00000000E+00 0.63689070E+03 0.63689078E+03 0.32000000E+00 0.0000E+00 0.9000E+01
       -1 -1    0    0    0  501 0.00000000E+00 0.00000000E+00 -.75957784E+03 0.75957791E+03 0.32000000E+00 0.0000E+00 0.9000E+01
       24  2    1    2    0    0 -.35622527E+03 0.51841020E+03 -.15280060E+02 0.63405885E+03 0.78431968E+02 0.0000E+00 0.0000E+00
       25  1    1    2    0    0 0.36939396E+03 -.51858861E+03 -.19210216E+03 0.67669364E+03 0.12500000E+03 0.0000E+00 0.9000E+01
        4  1    3    3  502    0 -.92369489E+02 0.10282134E+03 0.23696813E+02 0.14024369E+03 0.15500000E+01 0.0000E+00 0.9000E+01
       -3  1    3    3    0  502 -.26385578E+03 0.41558885E+03 -.38976873E+02 0.49381516E+03 0.50000000E+00 0.0000E+00 0.9000E+01
       21  1    1    2  503  501 -.13168696E+02 0.17841063E+00 0.84695081E+02 0.85716192E+02 0.75000000E+00 0.0000E+00 0.9000E+01
#aMCatNLO 2  0  0  1  1 0.63489867D+02 0.00000000D+00  -5  6  0 0.00000000D+00 0.00000000D+00 0.00000000D+00 0.00000000D+00 0.00000000D+00
  <mgrwgt>
 0.1229787187D-02    1    2    0
 0.647087951167419D+03 0.000000000000000D+00 0.000000000000000D+00 0.647087951167419D+03
 0.647087951167419D+03 0.000000000000000D+00 0.000000000000000D+00 -.647087951167419D+03
 0.650747973886356D+03 0.362753228797997D+03 -.518498639694819D+03 -.861230581693927D+02
 0.146603241606232D+03 -.937569624939631D+02 0.102683284078055D+03 0.464573525322558D+02
 0.496824686842249D+03 -.268996266304034D+03 0.415815355616764D+03 0.396657056371369D+02
 0.000000000000000D+00 -.000000000000000D+00 0.000000000000000D+00 0.000000000000000D+00
 0.747065247439259D+03 0.000000000000000D+00 0.000000000000000D+00 0.747065247439259D+03
 0.647555315289765D+03 0.000000000000000D+00 0.000000000000000D+00 -.647555315289765D+03
 0.654544288047253D+03 0.369393961205560D+03 -.518588608910475D+03 -.861230581693927D+02
 0.145642666601211D+03 -.922701484445670D+02 0.102663140593023D+03 0.464573525322558D+02
 0.494055956308754D+03 -.263955116983764D+03 0.415747057690795D+03 0.396657056371369D+02
 0.100377651771805D+03 -.131686957772291D+02 0.178410626657210D+00 0.995099321494935D+02
0.247048268487D-03 0.000000000000D+00 0.000000000000D+00 0.526343980412D-04 0.188606982006D-05  6 2 -1 25 4 -3 21 2 0.97982984D-01 0.11685789D+00 0.41765137D+06 0.41765137D+06 0.41765137D+06 0.10740783D+01  1  2  1  1  6  1        2 0.122978718699D-02 0.100000000000D+01
  </mgrwgt>
  </event>
  <event>
  7     66 0.16549492E-05 0.52434557E+02 0.75467711E-02 0.88108707E-01
        2 -1    0    0  501    0 0.00000000E+00 0.00000000E+00 0.11124941E+04 0.11124942E+04 0.32000000E+00 0.0000E+00 0.9000E+01
       -1 -1    0    0    0  503 0.00000000E+00 0.00000000E+00 -.10528576E+04 0.10528576E+04 0.32000000E+00 0.0000E+00 0.9000E+01
       24  2    1    2    0    0 -.50310656E+03 -.74997295E+03 0.18224722E+03 0.92479129E+03 0.80307159E+02 0.0000E+00 0.0000E+00
       25  1    1    2    0    0 0.49908002E+03 0.77214174E+03 0.17321131E+03 0.94388076E+03 0.12500000E+03 0.0000E+00 0.9000E+01
        4  1    3    3  502    0 -.33126851E+03 -.44581565E+03 0.82717111E+02 0.56154692E+03 0.15500000E+01 0.0000E+00 0.9000E+01
       -3  1    3    3    0  502 -.17183805E+03 -.30415730E+03 0.99530105E+02 0.36324437E+03 0.50000000E+00 0.0000E+00 0.9000E+01
       21  1    1    2  501  503 0.40265452E+01 -.22168792E+02 -.29582197E+03 0.29667974E+03 0.75000000E+00 0.0000E+00 0.9000E+01
#aMCatNLO 2  0  0  2  1 0.15121792D+03 0.00000000D+00  -5  6  0 0.00000000D+00 0.00000000D+00 0.00000000D+00 0.00000000D+00 0.00000000D+00
  <mgrwgt>
 0.1151759047D-02    1    2    0
 0.917207282889199D+03 0.000000000000000D+00 0.000000000000000D+00 0.917207282889199D+03
 0.917207282889199D+03 0.000000000000000D+00 0.000000000000000D+00 -.917207282889199D+03
 0.919708287951999D+03 0.501107664119721D+03 0.760978202072833D+03 -.645134544661562D+01
 0.560555793420203D+03 -.329992105985955D+03 -.452465209225905D+03 -.245609845907222D+02
 0.354150484406197D+03 -.171115558133766D+03 -.308512992846928D+03 0.310123300373379D+02
 0.000000000000000D+00 0.000000000000000D+00 -.000000000000000D+00 -.000000000000000D+00
 0.917629838197365D+03 0.000000000000000D+00 0.000000000000000D+00 0.917629838197365D+03
 0.127643731243832D+04 0.000000000000000D+00 0.000000000000000D+00 -.127643731243832D+04
 0.927874104767162D+03 0.499080016289977D+03 0.772141743321385D+03 -.645134544661562D+01
 0.555854393793796D+03 -.331217321544476D+03 -.445719587907808D+03 -.245609845907222D+02
 0.350824435412593D+03 -.171889239931032D+03 -.304253363275005D+03 0.310123300373379D+02
 0.359514216662133D+03 0.402654518553106D+01 -.221687921385721D+02 -.358807474240954D+03
0.129466641295D-02 0.000000000000D+00 0.000000000000D+00 0.236558092391D-03 0.290443230237D-05  6 2 -1 25 4 -3 21 2 0.17115288D+00 0.16197803D+00 0.86039140D+06 0.86039140D+06 0.86039140D+06 0.10522389D+01  1  2  1  2  6  2       -1 0.115175904692D-02 0.100000000000D+01
  </mgrwgt>
  </event>
  <event>
  7     66 0.16549492E-05 0.74228113E+02 0.75467711E-02 0.92401254E-01
        2 -1    0    0  501    0 0.00000000E+00 0.00000000E+00 0.35527637E+04 0.35527637E+04 0.32000000E+00 0.0000E+00 0.9000E+01
       -1 -1    0    0    0  503 0.00000000E+00 0.00000000E+00 -.15810271E+03 0.15810303E+03 0.32000000E+00 0.0000E+00 0.9000E+01
       24  2    1    2    0    0 0.93620688E+02 0.52897004E+03 0.23264206E+04 0.23890100E+04 0.81005771E+02 0.0000E+00 0.0000E+00
       25  1    1    2    0    0 0.77232204E+01 -.55960413E+03 0.10721895E+04 0.12159078E+04 0.12500000E+03 0.0000E+00 0.9000E+01
        4  1    3    3  502    0 -.35029004E+01 0.20498409E+03 0.86982759E+03 0.89366279E+03 0.15500000E+01 0.0000E+00 0.9000E+01
       -3  1    3    3    0  502 0.97123589E+02 0.32398595E+03 0.14565930E+04 0.14953472E+04 0.50000000E+00 0.0000E+00 0.9000E+01
       21  1    1    2  501  503 -.10134391E+03 0.30634089E+02 -.39490324E+01 0.10594901E+03 0.75000000E+00 0.0000E+00 0.9000E+01
#aMCatNLO 2  0  0  2  1 0.15121792D+03 0.00000000D+00  -5  6  0 0.00000000D+00 0.00000000D+00 0.00000000D+00 0.00000000D+00 0.00000000D+00
  <mgrwgt>
 0.6762878526D-03    1    2    0
 0.598680375098141D+03 0.000000000000000D+00 0.000000000000000D+00 0.598680375098141D+03
 0.598680375098141D+03 0.000000000000000D+00 0.000000000000000D+00 -.598680375098141D+03
 0.602464975975720D+03 -.437007588614698D+02 -.544059759625249D+03 -.222324692530706D+03
 0.227049095306840D+03 -.224480915006899D+02 0.210589159849898D+03 0.818509659157734D+02
 0.367846678913721D+03 0.661488503621597D+02 0.333470599775351D+03 0.140473726614932D+03
 0.000000000000000D+00 -.000000000000000D+00 0.000000000000000D+00 -.000000000000000D+00
 0.609769010578732D+03 0.000000000000000D+00 0.000000000000000D+00 0.609769010578732D+03
 0.921170813878070D+03 0.000000000000000D+00 0.000000000000000D+00 -.921170813878070D+03
 0.615036335387010D+03 0.772322035919636D+01 -.559604125078339D+03 -.222324692530706D+03
 0.220647099123118D+03 -.353860895256111D+01 0.204873229038795D+03 0.818509659157734D+02
 0.366348928331511D+03 0.971592971670378D+02 0.324096807134175D+03 0.140473726614932D+03
 0.328907461615164D+03 -.101343908573673D+03 0.306340889053685D+02 -.311401803299338D+03
0.401927827445D-03 0.000000000000D+00 0.000000000000D+00 0.172089407679D-03 0.103765799087D-06  6 2 -1 25 4 -3 21 2 0.54657868D+00 0.24323503D-01 0.37366963D+06 0.37366963D+06 0.37366963D+06 0.10775660D+01  1  2  1  2  6  2       -1 0.676287852555D-03 0.100000000000D+01
  </mgrwgt>
  </event>
  <event>
  5     66 -.16549492E-05 0.39072481E+02 0.75467711E-02 0.93764847E-01
        2 -1    0    0  501    0 0.00000000E+00 0.00000000E+00 0.17920834E+04 0.17920835E+04 0.32000000E+00 0.0000E+00 0.9000E+01
       -1 -1    0    0    0  501 0.00000000E+00 0.00000000E+00 -.17039713E+03 0.17039743E+03 0.32000000E+00 0.0000E+00 0.9000E+01
       25  1    1    2    0    0 0.58338543E+02 0.52403279E+03 0.10004790E+04 0.11378036E+04 0.12500000E+03 0.0000E+00 0.9000E+01
        4  1    1    2  502    0 0.26120106E+02 -.36447211E+02 0.77067582E+02 0.89176644E+02 0.15500000E+01 0.0000E+00 0.9000E+01
       -3  1    1    2    0  502 -.84458649E+02 -.48758558E+03 0.54413974E+03 0.73550069E+03 0.50000000E+00 0.0000E+00 0.9000E+01
#aMCatNLO 1  0  0  4  1 0.27698489D+01 0.00000000D+00  -5  6  0 0.00000000D+00 0.00000000D+00 0.00000000D+00 0.00000000D+00 0.00000000D+00
  <mgrwgt>
 -.3026217136D-02    5    2    0
 0.552599492657815D+03 0.000000000000000D+00 0.000000000000000D+00 0.552599492657815D+03
 0.552599492657815D+03 -.000000000000000D+00 -.000000000000000D+00 -.552599492657815D+03
 0.552348403580797D+03 0.583385637274447D+02 0.524032976793153D+03 0.107003785698360D+03
 0.451912156842977D+02 0.261326562725643D+02 -.363754610469411D+02 0.601299299743411D+01
 0.507659366050535D+03 -.844712200000089D+02 -.487657515746212D+03 -.113016778695794D+03
 0.000000000000000D+00 0.000000000000000D+00 0.000000000000000D+00 -.000000000000000D+00
 0.552599492657815D+03 0.000000000000000D+00 0.000000000000000D+00 0.552599492657815D+03
 0.552599492657815D+03 -.000000000000000D+00 -.000000000000000D+00 -.552599492657815D+03
 0.551293918918431D+03 0.592405439404585D+02 0.522777461633829D+03 0.107211326816573D+03
 0.425337608611298D+02 0.253134907244597D+02 -.332007219651796D+02 0.812773408308314D+01
 0.508590346219935D+03 -.836406636564707D+02 -.488813612149369D+03 -.112825671851332D+03
 0.278095931613376D+01 -.913371008447518D+00 -.763127519280436D+00 -.251338904832411D+01
0.119714606950D-04 0.000000000000D+00 0.000000000000D+00 0.350069073292D-07 0.000000000000D+00  6 2 -1 25 4 -3 21 0 0.27570517D+00 0.26214969D-01 0.29246110D+06 0.29246110D+06 0.29246110D+06 0.10853706D+01  1  2  2  3  6  4        4 0.182551247440D-03 0.100000000000D+01
0.258556790915D-05 0.000000000000D+00 -.459735612268D-07 0.350069073292D-07 0.000000000000D+00  6 2 -1 25 4 -3 21 2 0.27570517D+00 0.26214969D-01 0.29246110D+06 0.29246110D+06 0.29246110D+06 0.10853706D+01  1  2  3  3  6  4        4 0.464461474317D-04 0.100000000000D+01
-.358980332989D-05 0.000000000000D+00 0.000000000000D+00 0.350069073292D-07 0.000000000000D+00  6 2 -1 25 4 -3 21 2 0.27570517D+00 0.26214969D-01 0.29246110D+06 0.29246110D+06 0.29246110D+06 0.10853706D+01  1  2 15  3  6  4        4 -.644858462704D-04 0.100000000000D+01
-.740839390070D-03 0.000000000000D+00 0.000000000000D+00 0.350069073292D-07 0.000000000000D+00  6 2 -1 25 4 -3 21 2 0.27570517D+00 0.26214969D-01 0.29246110D+06 0.29246110D+06 0.29246110D+06 0.10853706D+01  1  2  4  3  6  4        4 -.133081538538D-01 0.100000000000D+01
0.563020415874D-03 0.000000000000D+00 0.000000000000D+00 0.350069073292D-07 0.141121418989D-06  6 2 -1 25 4 -3 21 2 0.27570517D+00 0.26214969D-01 0.29139844D+06 0.29139844D+06 0.29139844D+06 0.10854878D+01  1  2 11  3  6  4        4 0.101174251697D-01 0.100000000000D+01
  </mgrwgt>
  </event>
  <event>
  6     66 -.16549492E-05 0.19995566E+02 0.75467711E-02 0.95154629E-01
        2 -1    0    0  501    0 0.00000000E+00 0.00000000E+00 0.78961568E+03 0.78961575E+03 0.32000000E+00 0.0000E+00 0.9000E+01
       -1 -1    0    0    0  501 0.00000000E+00 0.00000000E+00 -.30033822E+03 0.30033839E+03 0.32000000E+00 0.0000E+00 0.9000E+01
       24  2    1    2    0    0 0.80772025E+02 -.45924149E+03 0.13861604E+03 0.49328396E+03 0.81778929E+02 0.0000E+00 0.0000E+00
       25  1    1    2    0    0 -.80772025E+02 0.45924149E+03 0.35066142E+03 0.59667018E+03 0.12500000E+03 0.0000E+00 0.9000E+01
        4  1    3    3  502    0 0.19106313E+02 -.17649589E+02 0.17023148E+02 0.31124737E+02 0.15500000E+01 0.0000E+00 0.9000E+01
       -3  1    3    3    0  502 0.61665712E+02 -.44159190E+03 0.12159290E+03 0.46215922E+03 0.50000000E+00 0.0000E+00 0.9000E+01
#aMCatNLO 1  0  0  4  5 0.81909620D+01 0.00000000D+00  -5  6  0 0.00000000D+00 0.00000000D+00 0.00000000D+00 0.00000000D+00 0.00000000D+00
  <mgrwgt>
 -.5270491520D-02    7    2    0
 0.486982438758527D+03 0.000000000000000D+00 0.000000000000000D+00 0.486982438758527D+03
 0.486982438758527D+03 -.000000000000000D+00 -.000000000000000D+00 -.486982438758527D+03
 0.491570492882310D+03 -.807720250300293D+02 0.459241489921109D+03 0.926805447769136D+02
 0.261167465194802D+02 0.190848646827267D+02 -.174915447517302D+02 0.344938414836808D+01
 0.456277638115263D+03 0.616871603473026D+02 -.441749945169379D+03 -.961299289252817D+02
 0.000000000000000D+00 0.000000000000000D+00 -.000000000000000D+00 0.000000000000000D+00
 0.486982438758527D+03 0.000000000000000D+00 0.000000000000000D+00 0.486982438758527D+03
 0.486982438758527D+03 -.000000000000000D+00 -.000000000000000D+00 -.486982438758527D+03
 0.489484885144173D+03 -.786536438240576D+02 0.457299963990406D+03 0.930634194094329D+02
 0.129959101029693D+02 0.928226364756060D+01 -.326285776102633D+01 0.849040754103982D+01
 0.458225452664688D+03 0.636618359912081D+02 -.443559762947484D+03 -.957730275284161D+02
 0.132586296052231D+02 0.570954418528880D+01 -.104773432818956D+02 -.578079942205667D+01
0.311060637033D-04 0.000000000000D+00 0.000000000000D+00 0.289389954242D-04 0.000000000000D+00  6 2 -1 25 4 -3 21 0 0.12147935D+00 0.46205898D-01 0.22785283D+06 0.22785283D+06 0.22785283D+06 0.10935028D+01  1  2  2  3  6  4        4 0.692853650665D-03 0.100000000000D+01
0.997757309214D-05 0.000000000000D+00 -.119455475035D-06 0.289389954242D-04 0.000000000000D+00  6 2 -1 25 4 -3 21 2 0.12147935D+00 0.46205898D-01 0.22785283D+06 0.22785283D+06 0.22785283D+06 0.10935028D+01  1  2  3  3  6  4        4 0.265742584480D-03 0.100000000000D+01
-.102252954916D-04 0.000000000000D+00 0.000000000000D+00 0.289389954242D-04 0.000000000000D+00  6 2 -1 25 4 -3 21 2 0.12147935D+00 0.46205898D-01 0.22785283D+06 0.22785283D+06 0.22785283D+06 0.10935028D+01  1  2 15  3  6  4        4 -.272340420452D-03 0.100000000000D+01
0.459470169218D-05 0.000000000000D+00 0.000000000000D+00 0.289389954242D-04 0.000000000000D+00  6 2 -1 25 4 -3 21 2 0.12147935D+00 0.46205898D-01 0.22583057D+06 0.22583057D+06 0.22583057D+06 0.10937967D+01  1  2 12  3  6  4        4 0.122466499280D-03 0.100000000000D+01
-.301989877478D-03 0.000000000000D+00 0.000000000000D+00 0.289389954242D-04 0.000000000000D+00  6 2 -1 25 4 -3 21 2 0.12147935D+00 0.46205898D-01 0.22785283D+06 0.22785283D+06 0.22785283D+06 0.10935028D+01  1  2  4  3  6  4        4 -.804319545311D-02 0.100000000000D+01
-.302919692683D-04 0.000000000000D+00 0.000000000000D+00 0.289389954242D-04 0.000000000000D+00  6 2 -1 25 4 -3 21 2 0.12147935D+00 0.46205898D-01 0.22785283D+06 0.22785283D+06 0.22785283D+06 0.10935028D+01  1  2  5  3  6  4        4 -.806796014223D-03 0.100000000000D+01
0.104031638040D-03 0.000000000000D+00 -.000000000000D+00 0.289389954242D-04 0.000000000000D+00  6 2 -1 25 4 -3 21 2 0.12147935D+00 0.46205898D-01 0.22785283D+06 0.22785283D+06 0.22785283D+06 0.10935028D+01  1  2  6  3  6  4        4 0.277077763352D-02 0.100000000000D+01
  </mgrwgt>
  </event>
  <event>
  7     66 0.16549492E-05 0.57385002E+02 0.75467711E-02 0.94937704E-01
        2 -1    0    0  501    0 0.00000000E+00 0.00000000E+00 0.60882987E+03 0.60882995E+03 0.32000000E+00 0.0000E+00 0.9000E+01
       -1 -1    0    0    0  503 0.00000000E+00 0.00000000E+00 -.52543691E+03 0.52543701E+03 0.32000000E+00 0.0000E+00 0.9000E+01
       24  2    1    2    0    0 0.19671660E+02 -.47712725E+03 0.23467454E+03 0.53824732E+03 0.81244443E+02 0.0000E+00 0.0000E+00
       25  1    1    2    0    0 -.21650022E+02 0.46434766E+03 -.38944329E+02 0.48293803E+03 0.12500000E+03 0.0000E+00 0.9000E+01
        4  1    3    3  502    0 -.83453007E+01 -.18343695E+03 0.13086532E+03 0.22549255E+03 0.15500000E+01 0.0000E+00 0.9000E+01
       -3  1    3    3    0  502 0.28016960E+02 -.29369030E+03 0.10380922E+03 0.31275477E+03 0.50000000E+00 0.0000E+00 0.9000E+01
       21  1    1    2  501  503 0.19783622E+01 0.12779585E+02 -.11233725E+03 0.11308161E+03 0.75000000E+00 0.0000E+00 0.9000E+01
#aMCatNLO 2  0  0  2  1 0.43729357D+01 0.00000000D+00  -5  6  0 0.00000000D+00 0.00000000D+00 0.00000000D+00 0.00000000D+00 0.00000000D+00
  <mgrwgt>
 0.3893036037D-02    1    2    0
 0.501084317609258D+03 0.000000000000000D+00 0.000000000000000D+00 0.501084317609258D+03
 0.501084317609258D+03 0.000000000000000D+00 0.000000000000000D+00 -.501084317609258D+03
 0.505586723898322D+03 -.206578372554286D+02 0.470756856433582D+03 -.133993176180498D+03
 0.201757215188309D+03 -.795524329960481D+01 -.180749366861158D+03 0.892880415502332D+02
 0.294824696131885D+03 0.286130805550335D+02 -.290007489572424D+03 0.447051346302650D+02
 0.000000000000000D+00 0.000000000000000D+00 0.000000000000000D+00 -.000000000000000D+00
 0.501431538853985D+03 0.000000000000000D+00 0.000000000000000D+00 0.501431538853985D+03
 0.637974393717911D+03 0.000000000000000D+00 0.000000000000000D+00 -.637974393717911D+03
 0.499666535712088D+03 -.216500216842126D+02 0.464347663080859D+03 -.133993176180498D+03
 0.204094619422188D+03 -.835581884297582D+01 -.183336956461797D+03 0.892880415502332D+02
 0.298490911530854D+03 0.280274783680725D+02 -.293790291978032D+03 0.447051346302650D+02
 0.137153865906766D+03 0.197836215911585D+01 0.127795853589698D+02 -.136542854863926D+03
0.309419800682D-03 0.000000000000D+00 0.000000000000D+00 0.205326256534D-03 0.802765337461D-05  6 2 -1 25 4 -3 21 2 0.93665957D-01 0.80836297D-01 0.23665718D+06 0.23665718D+06 0.23665718D+06 0.10922556D+01  1  2  1  2  6  2       -1 0.389303603676D-02 0.100000000000D+01
  </mgrwgt>
  </event>
  <event>
  7     66 0.16549492E-05 0.55040845E+02 0.75467711E-02 0.93284393E-01
        2 -1    0    0  503    0 0.00000000E+00 0.00000000E+00 0.14947219E+04 0.14947219E+04 0.32000000E+00 0.0000E+00 0.9000E+01
       -1 -1    0    0    0  501 0.00000000E+00 0.00000000E+00 -.23721162E+03 0.23721184E+03 0.32000000E+00 0.0000E+00 0.9000E+01
       24  2    1    2    0    0 -.17591583E+03 -.50038766E+03 0.39603535E+03 0.66678707E+03 0.80167373E+02 0.0000E+00 0.0000E+00
       25  1    1    2    0    0 0.20014187E+03 0.51546169E+03 0.69807520E+03 0.89927277E+03 0.12500000E+03 0.0000E+00 0.9000E+01
        4  1    3    3  502    0 -.12017770E+03 -.27935123E+03 0.26793039E+03 0.40530098E+03 0.15500000E+01 0.0000E+00 0.9000E+01
       -3  1    3    3    0  502 -.55738126E+02 -.22103643E+03 0.12810495E+03 0.26148609E+03 0.50000000E+00 0.0000E+00 0.9000E+01
       21  1    1    2  503  501 -.24226044E+02 -.15074028E+02 0.16339973E+03 0.16587393E+03 0.75000000E+00 0.0000E+00 0.9000E+01
#aMCatNLO 2  0  0  1  1 0.63489867D+02 0.00000000D+00  -5  6  0 0.00000000D+00 0.00000000D+00 0.00000000D+00 0.00000000D+00 0.00000000D+00
  <mgrwgt>
 0.1372729175D-02    1    2    0
 0.560056111570289D+03 0.000000000000000D+00 0.000000000000000D+00 0.560056111570289D+03
 0.560056111570289D+03 0.000000000000000D+00 0.000000000000000D+00 -.560056111570289D+03
 0.564162036061505D+03 0.187822234601674D+03 0.507796116073145D+03 0.975690300419456D+02
 0.311230951745462D+03 -.126822010450827D+03 -.283423747072380D+03 -.212570596519833D+02
 0.244719235333612D+03 -.610002241508476D+02 -.224372369000765D+03 -.763119703899623D+02
 0.000000000000000D+00 -.000000000000000D+00 -.000000000000000D+00 0.000000000000000D+00
 0.629581387395582D+03 0.000000000000000D+00 0.000000000000000D+00 0.629581387395582D+03
 0.563172910253067D+03 0.000000000000000D+00 0.000000000000000D+00 -.563172910253067D+03
 0.575241027193219D+03 0.200141871888066D+03 0.515461690972399D+03 0.975690300419456D+02
 0.304774771894101D+03 -.120161534166076D+03 -.279279438385479D+03 -.212570596519833D+02
 0.240459778498578D+03 -.557542934857959D+02 -.221108224651835D+03 -.763119703899623D+02
 0.722787200627516D+02 -.242260442361941D+02 -.150740279350850D+02 0.664084771425143D+02
0.928813062820D-04 0.000000000000D+00 0.000000000000D+00 0.327592824338D-03 0.253463992680D-05  6 2 -1 25 4 -3 21 2 0.22995644D+00 0.36493989D-01 0.31781459D+06 0.31781459D+06 0.31781459D+06 0.10827032D+01  1  2  1  1  6  1        2 0.137272917490D-02 0.100000000000D+01
  </mgrwgt>
  </event>
  <event>
  7     66 0.16549492E-05 0.39332806E+02 0.75467711E-02 0.94094471E-01
        2 -1    0    0  501    0 0.00000000E+00 0.00000000E+00 0.17569220E+04 0.17569221E+04 0.32000000E+00 0.0000E+00 0.9000E+01
       -1 -1    0    0    0  503 0.00000000E+00 0.00000000E+00 -.18152515E+03 0.18152543E+03 0.32000000E+00 0.0000E+00 0.9000E+01
       24  2    1    2    0    0 -.50564648E+02 -.47897680E+03 0.10559776E+04 0.11629612E+04 0.73582198E+02 0.0000E+00 0.0000E+00
       25  1    1    2    0    0 0.11550563E+03 0.46691606E+03 0.50368109E+03 0.70758165E+03 0.12500000E+03 0.0000E+00 0.9000E+01
        4  1    3    3  502    0 0.43934559E+01 -.23833336E+03 0.46612827E+03 0.52354566E+03 0.15500000E+01 0.0000E+00 0.9000E+01
       -3  1    3    3    0  502 -.54958104E+02 -.24064344E+03 0.58984938E+03 0.63941551E+03 0.50000000E+00 0.0000E+00 0.9000E+01
       21  1    1    2  501  503 -.64940983E+02 0.12060742E+02 0.15738161E+02 0.67904676E+02 0.75000000E+00 0.0000E+00 0.9000E+01
#aMCatNLO 2  0  0  2  1 0.43729357D+01 0.00000000D+00  -5  6  0 0.00000000D+00 0.00000000D+00 0.00000000D+00 0.00000000D+00 0.00000000D+00
  <mgrwgt>
 0.4708436046D-03    1    2    0
 0.515274759325518D+03 0.000000000000000D+00 0.000000000000000D+00 0.515274759325518D+03
 0.515274759325518D+03 0.000000000000000D+00 0.000000000000000D+00 -.515274759325518D+03
 0.520228747574456D+03 0.827330998774797D+02 0.473002526776864D+03 -.156322722757289D+03
 0.241659816630486D+03 -.108754890552510D+02 -.235397245195285D+03 0.535661055720856D+02
 0.268660954446095D+03 -.718576108222288D+02 -.237605281581579D+03 0.102756617185203D+03
 0.000000000000000D+00 -.000000000000000D+00 0.000000000000000D+00 -.000000000000000D+00
 0.528921009049202D+03 0.000000000000000D+00 0.000000000000000D+00 0.528921009049202D+03
 0.602971242161143D+03 0.000000000000000D+00 0.000000000000000D+00 -.602971242161143D+03
 0.520974042268186D+03 0.115505631575208D+03 0.466916061130278D+03 -.156322722757289D+03
 0.244225249134241D+03 0.441805786430161D+01 -.238237539890820D+03 0.535661055720856D+02
 0.267464789130951D+03 -.549827060517541D+02 -.240739263695692D+03 0.102756617185203D+03
 0.992281706769671D+02 -.649409833877559D+02 0.120607424562335D+02 -.740502331119419D+02
0.277069066338D-04 0.000000000000D+00 0.000000000000D+00 0.516411641594D-05 0.758425049715D-08  6 2 -1 25 4 -3 21 2 0.27029501D+00 0.27926896D-01 0.27469975D+06 0.27469975D+06 0.27469975D+06 0.10873941D+01  1  2  1  2  6  2       -1 0.470843604647D-03 0.100000000000D+01
  </mgrwgt>
  </event>
  <event>
  6     66 0.16549492E-05 0.54752107E+02 0.75467711E-02 0.95479786E-01
        2 -1    0    0  501    0 0.00000000E+00 0.00000000E+00 0.10644817E+04 0.10644817E+04 0.32000000E+00 0.0000E+00 0.9000E+01
       -1 -1    0    0    0  501 0.00000000E+00 0.00000000E+00 -.31052280E+03 0.31052297E+03 0.32000000E+00 0.0000E+00 0.9000E+01
       25  1    1    2    0    0 -.43995234E+03 -.10725109E+03 0.77329009E+03 0.90480021E+03 0.12500000E+03 0.0000E+00 0.9000E+01
        4  1    1    2  503    0 0.26719826E+03 0.41911239E+02 0.13762574E+02 0.27081963E+03 0.15500000E+01 0.0000E+00 0.9000E+01
       -3  1    1    2    0  502 0.15700048E+03 0.47455454E+02 -.48449945E+02 0.17102286E+03 0.50000000E+00 0.0000E+00 0.9000E+01
       21  1    1    2  502  503 0.15753604E+02 0.17884401E+02 0.15356135E+02 0.28361968E+02 0.75000000E+00 0.0000E+00 0.9000E+01
#aMCatNLO 2  0  0  4  5 0.86771989D+02 0.00000000D+00  -5  6  0 0.00000000D+00 0.00000000D+00 0.00000000D+00 0.00000000D+00 0.00000000D+00
  <mgrwgt>
 0.1765817860D-01    1    2    0
 0.574931276022950D+03 0.000000000000000D+00 0.000000000000000D+00 0.574931276022950D+03
 0.574931276022950D+03 -.000000000000000D+00 -.000000000000000D+00 -.574931276022950D+03
 0.578569336903326D+03 -.443174064437743D+03 -.107931934812735D+03 0.333264044958446D+03
 0.336325955641655D+03 0.287385696777048D+03 0.607222217444913D+02 -.163821309702542D+03
 0.234967259500919D+03 0.155788367660695D+03 0.472097130682435D+02 -.169442735255905D+03
 0.000000000000000D+00 0.000000000000000D+00 0.000000000000000D+00 0.000000000000000D+00
 0.574931276022950D+03 0.000000000000000D+00 0.000000000000000D+00 0.574931276022950D+03
 0.574931276022950D+03 -.000000000000000D+00 -.000000000000000D+00 -.574931276022950D+03
 0.574902544159526D+03 -.439939172219547D+03 -.107248428831763D+03 0.331420027368585D+03
 0.314591410628235D+03 0.267020215606063D+03 0.418029643833035D+02 -.160998361070921D+03
 0.236443863802197D+03 0.157110432116171D+03 0.474890543574107D+02 -.170196364726808D+03
 0.239247334559427D+02 0.158085244973131D+02 0.179564100910490D+02 -.225301570856415D+00
0.105275218108D-02 0.000000000000D+00 0.000000000000D+00 0.102475791575D-04 0.428493600503D-06  6 2 -1 25 4 -3 21 2 0.16376642D+00 0.47772755D-01 0.21533600D+06 0.21533600D+06 0.21533600D+06 0.10953695D+01  1  2  1  3  6  4        4 0.176581785961D-01 0.100000000000D+01
  </mgrwgt>
  </event>
  <event>
  7     66 0.16549492E-05 0.56528395E+02 0.75467711E-02 0.94444119E-01
        2 -1    0    0  501    0 0.00000000E+00 0.00000000E+00 0.30123816E+04 0.30123816E+04 0.32000000E+00 0.0000E+00 0.9000E+01
       -1 -1    0    0    0  503 0.00000000E+00 0.00000000E+00 -.20382143E+03 0.20382168E+03 0.32000000E+00 0.0000E+00 0.9000E+01
       24  2    1    2    0    0 0.49231983E+03 -.75624202E+02 0.24059421E+04 0.24582765E+04 0.80424990E+02 0.0000E+00 0.0000E+00
       25  1    1    2    0    0 -.46107015E+03 0.82400572E+02 0.47506121E+03 0.67873683E+03 0.12500000E+03 0.0000E+00 0.9000E+01
        4  1    3    3  502    0 0.27388222E+03 -.23747893E+02 0.14956649E+04 0.15207207E+04 0.15500000E+01 0.0000E+00 0.9000E+01
       -3  1    3    3    0  502 0.21843761E+03 -.51876309E+02 0.91027723E+03 0.93755588E+03 0.50000000E+00 0.0000E+00 0.9000E+01
       21  1    1    2  501  503 -.31249682E+02 -.67763702E+01 -.72443197E+02 0.79189905E+02 0.75000000E+00 0.0000E+00 0.9000E+01
#aMCatNLO 2  0  0  2  1 0.43729357D+01 0.00000000D+00  -5  6  0 0.00000000D+00 0.00000000D+00 0.00000000D+00 0.00000000D+00 0.00000000D+00
  <mgrwgt>
 0.1862121624D-02    1    2    0
 0.620413209425016D+03 0.000000000000000D+00 0.000000000000000D+00 0.620413209425016D+03
 0.620413209425016D+03 0.000000000000000D+00 0.000000000000000D+00 -.620413209425016D+03
 0.624103016833839D+03 -.476642216121131D+03 0.790238306487522D+02 -.374762601685166D+03
 0.365086686740499D+03 0.264534981706866D+03 -.257411415767961D+02 0.250293679342541D+03
 0.251636715275694D+03 0.212107234414265D+03 -.532826890719560D+02 0.124468922342624D+03
 0.000000000000000D+00 -.000000000000000D+00 -.000000000000000D+00 -.000000000000000D+00
 0.621314564889857D+03 0.000000000000000D+00 0.000000000000000D+00 0.621314564889857D+03
 0.988207333997377D+03 0.000000000000000D+00 0.000000000000000D+00 -.988207333997377D+03
 0.612737744656812D+03 -.461070148497367D+03 0.824005720240927D+02 -.374762601685166D+03
 0.371729514668270D+03 0.273811642107994D+03 -.237295343992322D+02 0.250293679342541D+03
 0.256771099548071D+03 0.218508188457325D+03 -.518946674629391D+02 0.124468922342624D+03
 0.368283540014082D+03 -.312496820679521D+02 -.677637016192138D+01 -.366892769107521D+03
0.697566077678D-03 0.000000000000D+00 0.000000000000D+00 0.237464218532D-03 0.161132548314D-05  6 2 -1 25 4 -3 21 2 0.46344306D+00 0.31357145D-01 0.25814960D+06 0.25814960D+06 0.25814960D+06 0.10894126D+01  1  2  1  2  6  2       -1 0.186212162358D-02 0.100000000000D+01
  </mgrwgt>
  </event>
  <event>
  6     66 0.16549492E-05 0.44148994E+02 0.75467711E-02 0.95111190E-01
        2 -1    0    0  501    0 0.00000000E+00 0.00000000E+00 0.50915242E+03 0.50915252E+03 0.32000000E+00 0.0000E+00 0.9000E+01
       21 -1    0    0  503  501 0.00000000E+00 0.00000000E+00 -.66420262E+03 0.66420304E+03 0.75000000E+00 0.0000E+00 0.9000E+01
       25  1    1    2    0    0 -.32643355E+03 0.33890698E+03 0.51581842E+02 0.48959421E+03 0.12500000E+03 0.0000E+00 0.9000E+01
        4  1    1    2  502    0 0.29056221E+03 -.29544540E+03 -.32612832E+03 0.52732956E+03 0.15500000E+01 0.0000E+00 0.9000E+01
        1  1    1    2  503    0 0.26763698E+01 -.81725588E+01 0.10570746E+03 0.10605717E+03 0.32000000E+00 0.0000E+00 0.9000E+01
       -3  1    1    2    0  502 0.33194966E+02 -.35289018E+02 0.13788816E+02 0.50374617E+02 0.50000000E+00 0.0000E+00 0.9000E+01
#aMCatNLO 2  0  0  2  1 0.85996321D+01 0.00000000D+00  -5  6  0 0.00000000D+00 0.00000000D+00 0.00000000D+00 0.00000000D+00 0.00000000D+00
  <mgrwgt>
 0.1586284266D-01    1    2    0
 0.517459500347126D+03 0.000000000000000D+00 0.000000000000000D+00 0.517459500347126D+03
 0.517459500347126D+03 0.000000000000000D+00 0.000000000000000D+00 -.517459500347126D+03
 0.514388794015620D+03 -.325099229194117D+03 0.334831636972538D+03 0.176547720088722D+03
 0.464740564725035D+03 0.291760047470513D+03 -.299102959963594D+03 -.203463231425154D+03
 0.000000000000000D+00 0.000000000000000D+00 -.000000000000000D+00 0.000000000000000D+00
 0.557896419535962D+02 0.333391817236038D+02 -.357286770089436D+02 0.269155113364313D+02
 0.653345529885176D+03 0.000000000000000D+00 0.000000000000000D+00 0.653345529885176D+03
 0.517613440801229D+03 0.000000000000000D+00 0.000000000000000D+00 -.517613440801229D+03
 0.517891382493087D+03 -.326433978950178D+03 0.338907426856996D+03 0.176547720088722D+03
 0.461640138738416D+03 0.290562226911612D+03 -.295445296873421D+03 -.203463231425154D+03
 0.136004241401115D+03 0.267636976766558D+01 -.817255877109784D+01 0.135732089083947D+03
 0.554232080537867D+02 0.331953822709007D+02 -.352895712124776D+02 0.269155113364313D+02
0.243182229625D-03 0.000000000000D+00 0.000000000000D+00 0.372089536904D-08 0.866439484017D-10  6 2 21 25 4 1 -3 2 0.78331153D-01 0.10218502D+00 0.22958602D+06 0.22958602D+06 0.22958602D+06 0.10932532D+01  1  2  1  6  5  2       -1 0.158628426630D-01 0.100000000000D+01
  </mgrwgt>
  </event>
  <event>
  6     66 0.16549492E-05 0.33695588E+03 0.75467711E-02 0.88354303E-01
        2 -1    0    0  501    0 0.00000000E+00 0.00000000E+00 0.73698573E+03 0.73698580E+03 0.32000000E+00 0.0000E+00 0.9000E+01
       -1 -1    0    0    0  501 -.00000000E+00 -.00000000E+00 -.11370665E+04 0.11370665E+04 0.32000000E+00 0.0000E+00 0.9000E+01
       25  1    1    2    0    0 -.61289745E+03 0.59891883E+03 -.72633827E+02 0.86904989E+03 0.12500000E+03 0.0000E+00 0.9000E+01
        4  1    1    2  503    0 0.14816560E+03 -.40360304E+02 -.44928989E+02 0.16000942E+03 0.15500000E+01 0.0000E+00 0.9000E+01
       -3  1    1    2    0  502 0.34505093E+03 -.17277532E+03 -.19215856E+03 0.43108772E+03 0.50000000E+00 0.0000E+00 0.9000E+01
       21  1    1    2  502  503 0.11968091E+03 -.38578320E+03 -.90359361E+02 0.41390527E+03 0.75000000E+00 0.0000E+00 0.9000E+01
#aMCatNLO 2  0  0  4  5 0.86771989D+02 0.00000000D+00  -5  6  0 0.00000000D+00 0.00000000D+00 0.00000000D+00 0.00000000D+00 0.00000000D+00
  <mgrwgt>
 0.4371769291D+00    1    2    0
 0.915424414844439D+03 0.000000000000000D+00 0.000000000000000D+00 0.915424414844439D+03
 0.915424414844439D+03 -.000000000000000D+00 -.000000000000000D+00 -.915424414844439D+03
 0.899298487752846D+03 -.627119628383027D+03 0.621545690081260D+03 0.116252728624753D+03
 0.542101947121529D+03 0.288374071197562D+03 -.458821412749795D+03 -.140651105996060D+02
 0.389448394814502D+03 0.338745557185465D+03 -.162724277331465D+03 -.102187618025147D+03
 0.000000000000000D+00 0.000000000000000D+00 -.000000000000000D+00 0.000000000000000D+00
 0.915424414844439D+03 0.000000000000000D+00 0.000000000000000D+00 0.915424414844439D+03
 0.915424414844439D+03 -.000000000000000D+00 -.000000000000000D+00 -.915424414844439D+03
 0.873834724623518D+03 -.612981125843954D+03 0.599050437015669D+03 0.115563139574326D+03
 0.152678887064129D+03 0.147021179934476D+03 -.396967755864132D+02 -.109444604187395D+02
 0.399236097733136D+03 0.345034321967818D+03 -.172730100427514D+03 -.102494345227878D+03
 0.405099120268094D+03 0.120925623941660D+03 -.386623561001742D+03 -.212433392770815D+01
0.352420846497D+00 0.000000000000D+00 0.000000000000D+00 0.209941254169D-08 0.670914992767D-10  6 2 -1 25 4 -3 21 2 0.11338243D+00 0.17493331D+00 0.81847716D+06 0.81847716D+06 0.81847716D+06 0.10537044D+01  1  2  1  3  6  4        4 0.437176929114D+00 0.100000000000D+01
  </mgrwgt>
  </event>
  <event>
  7     66 0.16549492E-05 0.74031335E+02 0.75467711E-02 0.92695477E-01
        2 -1    0    0  501    0 0.00000000E+00 0.00000000E+00 0.11198052E+04 0.11198052E+04 0.32000000E+00 0.0000E+00 0.9000E+01
       21 -1    0    0  503  501 0.00000000E+00 0.00000000E+00 -.33901419E+03 0.33901502E+03 0.75000000E+00 0.0000E+00 0.9000E+01
       24  2    1    2    0    0 -.20493941E+03 0.45944129E+03 0.25243939E+03 0.56914830E+03 0.84366381E+02 0.0000E+00 0.0000E+00
       25  1    1    2    0    0 0.16287654E+03 -.54781715E+03 0.53336701E+03 0.79166771E+03 0.12500000E+03 0.0000E+00 0.9000E+01
        4  1    3    3  502    0 -.24500735E+02 0.12028314E+03 0.89136349E+02 0.15171029E+03 0.15500000E+01 0.0000E+00 0.9000E+01
        1  1    1    2  503    0 0.42062866E+02 0.88375861E+02 -.50153896E+01 0.98004256E+02 0.32000000E+00 0.0000E+00 0.9000E+01
       -3  1    3    3    0  502 -.18043867E+03 0.33915815E+03 0.16330304E+03 0.41743801E+03 0.50000000E+00 0.0000E+00 0.9000E+01
#aMCatNLO 2  0  0  2  1 0.19427720D+02 0.00000000D+00  -5  6  0 0.00000000D+00 0.00000000D+00 0.00000000D+00 0.00000000D+00 0.00000000D+00
  <mgrwgt>
 0.2139409630D-03    1    2    0
 0.553341880965167D+03 0.000000000000000D+00 0.000000000000000D+00 0.553341880965167D+03
 0.553341880965167D+03 0.000000000000000D+00 0.000000000000000D+00 -.553341880965167D+03
 0.557185488283237D+03 0.184681280912857D+03 -.502004471446536D+03 0.933541829887611D+02
 0.131794215455100D+03 -.196146674210225D+02 0.130312478832441D+03 0.190733057765412D+01
 0.000000000000000D+00 0.000000000000000D+00 0.000000000000000D+00 -.000000000000000D+00
 0.417704058191997D+03 -.165066613491835D+03 0.371691992614095D+03 -.952615135664152D+02
 0.579565095987075D+03 0.000000000000000D+00 0.000000000000000D+00 0.579565095987075D+03
 0.655026040388193D+03 0.000000000000000D+00 0.000000000000000D+00 -.655026040388193D+03
 0.592429238543460D+03 0.162876541433720D+03 -.547817151475083D+03 0.933541829887611D+02
 0.122647856620018D+03 -.244406695282190D+02 0.120172844255948D+03 0.190733057765412D+01
 0.123587749107754D+03 0.420628662856184D+02 0.883758614071213D+02 -.754609444011180D+02
 0.395926292104036D+03 -.180498738191120D+03 0.339268445812014D+03 -.952615135664152D+02
0.191757907354D-05 0.000000000000D+00 0.000000000000D+00 0.157911349073D-04 0.271846567798D-09  6 2 21 25 4 1 -3 2 0.17227773D+00 0.52156079D-01 0.35392465D+06 0.35392465D+06 0.35392465D+06 0.10792802D+01  1  2  1  6  5  2       -1 0.213940962972D-03 0.100000000000D+01
  </mgrwgt>
  </event>
  <event>
  7     66 0.16549492E-05 0.41294612E+02 0.75467711E-02 0.94403211E-01
        2 -1    0    0  501    0 0.00000000E+00 0.00000000E+00 0.25124589E+04 0.25124589E+04 0.32000000E+00 0.0000E+00 0.9000E+01
       -1 -1    0    0    0  503 0.00000000E+00 0.00000000E+00 -.12673969E+03 0.12674009E+03 0.32000000E+00 0.0000E+00 0.9000E+01
       24  2    1    2    0    0 -.39022893E+03 -.28957180E+03 0.13971290E+04 0.14813964E+04 0.80221297E+02 0.0000E+00 0.0000E+00
       25  1    1    2    0    0 0.40999752E+03 0.27677212E+03 0.10063462E+04 0.11282989E+04 0.12500000E+03 0.0000E+00 0.9000E+01
        4  1    3    3  502    0 -.12301576E+03 -.84302567E+02 0.54581000E+03 0.56581867E+03 0.15500000E+01 0.0000E+00 0.9000E+01
       -3  1    3    3    0  502 -.26721317E+03 -.20526923E+03 0.85131903E+03 0.91557778E+03 0.50000000E+00 0.0000E+00 0.9000E+01
       21  1    1    2  501  503 -.19768585E+02 0.12799678E+02 -.17755994E+02 0.29503670E+02 0.75000000E+00 0.0000E+00 0.9000E+01
#aMCatNLO 2  0  0  2  1 0.19427720D+02 0.00000000D+00  -5  6  0 0.00000000D+00 0.00000000D+00 0.00000000D+00 0.00000000D+00 0.00000000D+00
  <mgrwgt>
 0.1414092860D-02    1    2    0
 0.508247498823585D+03 0.000000000000000D+00 0.000000000000000D+00 0.508247498823585D+03
 0.508247498823585D+03 0.000000000000000D+00 0.000000000000000D+00 -.508247498823585D+03
 0.512767709753258D+03 0.399984365475115D+03 0.283255394719371D+03 -.841701425889489D+02
 0.163309798455313D+03 -.126082981282058D+03 -.821817076408116D+02 0.633982573244979D+02
 0.340417489438599D+03 -.273901384193057D+03 -.201073687078560D+03 0.207718852644510D+02
 0.000000000000000D+00 -.000000000000000D+00 0.000000000000000D+00 -.000000000000000D+00
 0.509574023333373D+03 0.000000000000000D+00 0.000000000000000D+00 0.509574023333373D+03
 0.624889247031279D+03 0.000000000000000D+00 0.000000000000000D+00 -.624889247031279D+03
 0.517117380665761D+03 0.409997518512679D+03 0.276772121602987D+03 -.841701425889489D+02
 0.161936416896931D+03 -.122920744873834D+03 -.842291788235830D+02 0.633982573244979D+02
 0.337713977779278D+03 -.267308188287990D+03 -.205342621109830D+03 0.207718852644510D+02
 0.117695495022683D+03 -.197685853508555D+02 0.127996783304262D+02 -.115315223697906D+03
0.120561037902D-03 0.000000000000D+00 0.000000000000D+00 0.317230209564D-03 0.369780705897D-05  6 2 -1 25 4 -3 21 2 0.38653127D+00 0.19498400D-01 0.26002692D+06 0.26002692D+06 0.26002692D+06 0.10891766D+01  1  2  1  2  6  2       -1 0.141409286020D-02 0.100000000000D+01
  </mgrwgt>
  </event>
  <event>
  7     66 0.16549492E-05 0.47777138E+02 0.75467711E-02 0.94386446E-01
        2 -1    0    0  501    0 0.00000000E+00 0.00000000E+00 0.68814684E+03 0.68814691E+03 0.32000000E+00 0.0000E+00 0.9000E+01
       21 -1    0    0  503  501 0.00000000E+00 0.00000000E+00 -.42247439E+03 0.42247505E+03 0.75000000E+00 0.0000E+00 0.9000E+01
       24  2    1    2    0    0 0.44840190E+03 -.20651532E+03 0.26343594E+03 0.56564071E+03 0.82692656E+02 0.0000E+00 0.0000E+00
       25  1    1    2    0    0 -.43489451E+03 0.17250710E+03 -.43715507E+02 0.48623860E+03 0.12500000E+03 0.0000E+00 0.9000E+01
        4  1    3    3  502    0 0.29293931E+03 -.90743271E+02 0.16487173E+03 0.34818511E+03 0.15500000E+01 0.0000E+00 0.9000E+01
        1  1    1    2  503    0 -.13507395E+02 0.34008218E+02 0.45952019E+02 0.58742651E+02 0.32000000E+00 0.0000E+00 0.9000E+01
       -3  1    3    3    0  502 0.15546259E+03 -.11577205E+03 0.98564209E+02 0.21745560E+03 0.50000000E+00 0.0000E+00 0.9000E+01
#aMCatNLO 2  0  0  2  1 0.25408300D+01 0.00000000D+00  -5  6  0 0.00000000D+00 0.00000000D+00 0.00000000D+00 0.00000000D+00 0.00000000D+00
  <mgrwgt>
 0.1220993155D-03    1    2    0
 0.514012162970239D+03 0.000000000000000D+00 0.000000000000000D+00 0.514012162970239D+03
 0.514012162970239D+03 0.000000000000000D+00 0.000000000000000D+00 -.514012162970239D+03
 0.518285858257716D+03 -.441625090748566D+03 0.189453006714108D+03 -.148559982290796D+03
 0.314118363269081D+03 0.288725789617744D+03 -.802079033688230D+02 0.942043353016925D+02
 0.000000000000000D+00 -.000000000000000D+00 0.000000000000000D+00 0.000000000000000D+00
 0.195620104413682D+03 0.152899301130822D+03 -.109245103345285D+03 0.543556469891036D+02
 0.556684132914038D+03 0.000000000000000D+00 0.000000000000000D+00 0.556684132914038D+03
 0.522242769108511D+03 0.000000000000000D+00 0.000000000000000D+00 -.522242769108511D+03
 0.506544175769316D+03 -.434894509547197D+03 0.172507099080812D+03 -.148559982290796D+03
 0.320764282951040D+03 0.292895387562619D+03 -.907059004255184D+02 0.942043353016925D+02
 0.502515288663724D+02 -.135073952479790D+02 0.340082179221149D+02 0.344413638055272D+02
 0.201366914435821D+03 0.155506517232556D+03 -.115809416577408D+03 0.543556469891036D+02
0.896042074221D-06 0.000000000000D+00 0.000000000000D+00 0.421563197308D-04 0.621499268045D-09  6 2 21 25 4 1 -3 2 0.10586870D+00 0.64996054D-01 0.26080071D+06 0.26080071D+06 0.26080071D+06 0.10890799D+01  1  2  1  6  5  2       -1 0.122099315497D-03 0.100000000000D+01
  </mgrwgt>
  </event>
  <event>
  6     66 -.16549492E-05 0.12639976E+02 0.75467711E-02 0.94964428E-01
        2 -1    0    0  501    0 0.00000000E+00 0.00000000E+00 0.50411925E+03 0.50411936E+03 0.32000000E+00 0.0000E+00 0.9000E+01
       -1 -1    0    0    0  501 -.00000000E+00 -.00000000E+00 -.57394073E+03 0.57394082E+03 0.32000000E+00 0.0000E+00 0.9000E+01
       24  2    1    2    0    0 0.21906936E+03 0.42153546E+03 -.26469947E+03 0.54958504E+03 0.79337115E+02 0.0000E+00 0.0000E+00
       25  1    1    2    0    0 -.21906936E+03 -.42153546E+03 0.19487800E+03 0.52847513E+03 0.12500000E+03 0.0000E+00 0.9000E+01
        4  1    3    3  502    0 -.44775638E+01 0.11943515E+02 0.50919311E+00 0.12859157E+02 0.15500000E+01 0.0000E+00 0.9000E+01
       -3  1    3    3    0  502 0.22354692E+03 0.40959195E+03 -.26520867E+03 0.53672589E+03 0.50000000E+00 0.0000E+00 0.9000E+01
#aMCatNLO 1  0  0  4  1 0.26672189D+01 0.00000000D+00  -5  6  0 0.00000000D+00 0.00000000D+00 0.00000000D+00 0.00000000D+00 0.00000000D+00
  <mgrwgt>
 -.8449289822D-02    6    2    0
 0.537898386752271D+03 0.000000000000000D+00 0.000000000000000D+00 0.537898386752271D+03
 0.537898386752271D+03 -.000000000000000D+00 -.000000000000000D+00 -.537898386752271D+03
 0.542234996837421D+03 -.219069356490932D+03 -.421535461857725D+03 0.229587158260913D+03
 0.127209570955877D+02 -.456310668823519D+01 0.117875808403270D+02 0.143308921994488D+01
 0.520840819571533D+03 0.223632463179167D+03 0.409747881017398D+03 -.231020247480857D+03
 0.000000000000000D+00 -.000000000000000D+00 0.000000000000000D+00 0.000000000000000D+00
 0.537898386752271D+03 0.000000000000000D+00 0.000000000000000D+00 0.537898386752271D+03
 0.537898386752271D+03 -.000000000000000D+00 -.000000000000000D+00 -.537898386752271D+03
 0.541750382432687D+03 -.219399133232236D+03 -.420683570753054D+03 0.229690727939476D+03
 0.955501316268559D+01 -.240139363335224D+01 0.854078653774939D+01 0.354775287659514D+01
 0.521305385588228D+03 0.223315415010371D+03 0.410566891217093D+03 -.230920675337590D+03
 0.318599232094107D+01 -.151488814478375D+01 0.157589299821204D+01 -.231780547848075D+01
0.191163054719D-04 0.000000000000D+00 0.000000000000D+00 0.204978324686D-04 0.000000000000D+00  6 2 -1 25 4 -3 21 0 0.77556823D-01 0.88298588D-01 0.23555218D+06 0.23555218D+06 0.23555218D+06 0.10924094D+01  1  2  2  3  6  4        4 0.208466424586D-03 0.100000000000D+01
0.880721156826D-05 0.000000000000D+00 -.734116464509D-07 0.204978324686D-04 0.000000000000D+00  6 2 -1 25 4 -3 21 2 0.77556823D-01 0.88298588D-01 0.23555218D+06 0.23555218D+06 0.23555218D+06 0.10924094D+01  1  2  3  3  6  4        4 0.114614986373D-03 0.100000000000D+01
-.583517659070D-05 0.000000000000D+00 0.000000000000D+00 0.204978324686D-04 0.000000000000D+00  6 2 -1 25 4 -3 21 2 0.77556823D-01 0.88298588D-01 0.23555218D+06 0.23555218D+06 0.23555218D+06 0.10924094D+01  1  2 15  3  6  4        4 -.759376200111D-04 0.100000000000D+01
-.733912481263D-03 0.000000000000D+00 0.000000000000D+00 0.204978324686D-04 0.000000000000D+00  6 2 -1 25 4 -3 21 2 0.77556823D-01 0.88298588D-01 0.23555218D+06 0.23555218D+06 0.23555218D+06 0.10924094D+01  1  2  4  3  6  4        4 -.955096495493D-02 0.100000000000D+01
-.521490304948D-04 0.000000000000D+00 0.000000000000D+00 0.204978324686D-04 0.000000000000D+00  6 2 -1 25 4 -3 21 2 0.77556823D-01 0.88298588D-01 0.23555218D+06 0.23555218D+06 0.23555218D+06 0.10924094D+01  1  2  5  3  6  4        4 -.678655255777D-03 0.100000000000D+01
0.117812680254D-03 0.000000000000D+00 -.000000000000D+00 0.204978324686D-04 0.000000000000D+00  6 2 -1 25 4 -3 21 2 0.77556823D-01 0.88298588D-01 0.23555218D+06 0.23555218D+06 0.23555218D+06 0.10924094D+01  1  2  6  3  6  4        4 0.153318659797D-02 0.100000000000D+01
  </mgrwgt>
  </event>
  <event>
  7     66 0.16549492E-05 0.27022777E+02 0.75467711E-02 0.95141374E-01
        4 -1    0    0  503    0 0.00000000E+00 0.00000000E+00 0.36909740E+03 0.36910066E+03 0.15500000E+01 0.0000E+00 0.9000E+01
       -3 -1    0    0    0  501 0.00000000E+00 0.00000000E+00 -.97243107E+03 0.97243120E+03 0.50000000E+00 0.0000E+00 0.9000E+01
       24  2    1    2    0    0 -.35124000E+03 0.25011589E+03 -.62381913E+03 0.76230987E+03 0.77707981E+02 0.0000E+00 0.0000E+00
       25  1    1    2    0    0 0.38831899E+03 -.25813402E+03 -.63646209E+02 0.48692983E+03 0.12500000E+03 0.0000E+00 0.9000E+01
        2  1    3    3  502    0 -.24704360E+03 0.20709923E+03 -.42072604E+03 0.53002937E+03 0.32000000E+00 0.0000E+00 0.9000E+01
       -1  1    3    3    0  502 -.10419640E+03 0.43016658E+02 -.20309309E+03 0.23228050E+03 0.32000000E+00 0.0000E+00 0.9000E+01
       21  1    1    2  503  501 -.37078996E+02 0.80181327E+01 0.84131674E+02 0.92292164E+02 0.75000000E+00 0.0000E+00 0.9000E+01
#aMCatNLO 2  0  0  1  1 0.65956092D+02 0.00000000D+00  -5  6  0 0.00000000D+00 0.00000000D+00 0.00000000D+00 0.00000000D+00 0.00000000D+00
  <mgrwgt>
 0.1532586524D-03    1    2    0
 0.521189043484125D+03 0.000000000000000D+00 0.000000000000000D+00 0.521189043484125D+03
 0.521189043484125D+03 0.000000000000000D+00 0.000000000000000D+00 -.521189043484125D+03
 0.525787408472350D+03 0.369347585733823D+03 -.254031559204103D+03 0.244699257761436D+03
 0.368123355430499D+03 -.259947621680588D+03 0.209891917750214D+03 -.154555561721839D+03
 0.148467323065402D+03 -.109399964053235D+03 0.441396414538891D+02 -.901436960395977D+02
 0.000000000000000D+00 -.000000000000000D+00 0.000000000000000D+00 0.000000000000000D+00
 0.685319465911027D+03 0.000000000000000D+00 0.000000000000000D+00 0.685319465911027D+03
 0.523730777101158D+03 0.000000000000000D+00 0.000000000000000D+00 -.523730777101158D+03
 0.541227810078132D+03 0.388318994338662D+03 -.258134023888333D+03 0.244699257761436D+03
 0.357505806412135D+03 -.247046018136822D+03 0.207102015639585D+03 -.154555561721839D+03
 0.144334558941505D+03 -.104193980064211D+03 0.430138755233513D+02 -.901436960395977D+02
 0.165982067580414D+03 -.370789961376290D+02 0.801813272539673D+01 0.161588688809869D+03
0.561038316212D-03 0.000000000000D+00 0.000000000000D+00 0.282734207891D-04 0.131042196487D-06  6 4 -3 25 2 -1 21 2 0.56784385D-01 0.14960480D+00 0.22838014D+06 0.22838014D+06 0.22838014D+06 0.10934266D+01  1  2  1  1  6  1        4 0.153258652448D-03 0.100000000000D+01
  </mgrwgt>
  </event>
  <event>
  7     66 0.16549492E-05 0.63342971E+02 0.75467711E-02 0.90564176E-01
        2 -1    0    0  503    0 0.00000000E+00 0.00000000E+00 0.15904912E+04 0.15904912E+04 0.32000000E+00 0.0000E+00 0.9000E+01
       -1 -1    0    0    0  501 0.00000000E+00 0.00000000E+00 -.38659484E+03 0.38659498E+03 0.32000000E+00 0.0000E+00 0.9000E+01
       24  2    1    2    0    0 -.70913566E+03 -.37491189E+01 0.41379109E+03 0.82497291E+03 0.80435061E+02 0.0000E+00 0.0000E+00
       25  1    1    2    0    0 0.71627921E+03 -.77140413E+01 0.55024455E+03 0.91187141E+03 0.12500000E+03 0.0000E+00 0.9000E+01
        4  1    3    3  502    0 -.40469804E+03 0.37303865E+02 0.24186775E+03 0.47294238E+03 0.15500000E+01 0.0000E+00 0.9000E+01
       -3  1    3    3    0  502 -.30443762E+03 -.41052984E+02 0.17192334E+03 0.35203053E+03 0.50000000E+00 0.0000E+00 0.9000E+01
       21  1    1    2  503  501 -.71435520E+01 0.11463160E+02 0.23986071E+03 0.24024188E+03 0.75000000E+00 0.0000E+00 0.9000E+01
#aMCatNLO 2  0  0  1  1 0.65956092D+02 0.00000000D+00  -5  6  0 0.00000000D+00 0.00000000D+00 0.00000000D+00 0.00000000D+00 0.00000000D+00
  <mgrwgt>
 0.2038308016D-02    1    2    0
 0.722336671323515D+03 0.000000000000000D+00 0.000000000000000D+00 0.722336671323515D+03
 0.722336671323515D+03 0.000000000000000D+00 0.000000000000000D+00 -.722336671323515D+03
 0.725505277242606D+03 0.712683016392814D+03 -.194327688235629D+01 0.530287575478588D+02
 0.409389039436505D+03 -.406619153768106D+03 0.405597163391002D+02 -.248023952501739D+02
 0.309779025967919D+03 -.306063862624708D+03 -.386164394567439D+02 -.282263622976849D+02
 0.000000000000000D+00 -.000000000000000D+00 0.000000000000000D+00 0.000000000000000D+00
 0.850773575071808D+03 0.000000000000000D+00 0.000000000000000D+00 0.850773575071808D+03
 0.722723433178398D+03 0.000000000000000D+00 0.000000000000000D+00 -.722723433178398D+03
 0.729076445764122D+03 0.716279211067833D+03 -.771404128969816D+01 0.530287575478588D+02
 0.407074468310628D+03 -.404600592918298D+03 0.373205593526770D+02 -.248023952501739D+02
 0.308585567548546D+03 -.304535066116921D+03 -.410696783023751D+02 -.282263622976849D+02
 0.128760526626910D+03 -.714355203261372D+01 0.114631602393962D+02 0.128050141893410D+03
0.396521459428D-03 0.000000000000D+00 0.000000000000D+00 0.290285605663D-03 0.979128133423D-05  6 2 -1 25 4 -3 21 2 0.24469060D+00 0.59476053D-01 0.52871972D+06 0.52871972D+06 0.52871972D+06 0.10668004D+01  1  2  1  1  6  1        2 0.203830801571D-02 0.100000000000D+01
  </mgrwgt>
  </event>
  <event>
  7     66 0.16549492E-05 0.34987656E+02 0.75467711E-02 0.90297002E-01
        2 -1    0    0  501    0 0.00000000E+00 0.00000000E+00 0.13941255E+04 0.13941255E+04 0.32000000E+00 0.0000E+00 0.9000E+01
       -1 -1    0    0    0  503 0.00000000E+00 0.00000000E+00 -.82947345E+03 0.82947351E+03 0.32000000E+00 0.0000E+00 0.9000E+01
       24  2    1    2    0    0 -.22370947E+03 0.70196420E+03 0.10448805E+04 0.12809194E+04 0.78610570E+02 0.0000E+00 0.0000E+00
       25  1    1    2    0    0 0.21328930E+03 -.69761380E+03 -.36199702E+03 0.82390787E+03 0.12500000E+03 0.0000E+00 0.9000E+01
        4  1    3    3  502    0 -.14716652E+03 0.56662121E+03 0.82179475E+03 0.10089929E+04 0.15500000E+01 0.0000E+00 0.9000E+01
       -3  1    3    3    0  502 -.76542955E+02 0.13534299E+03 0.22308571E+03 0.27192652E+03 0.50000000E+00 0.0000E+00 0.9000E+01
       21  1    1    2  501  503 0.10420174E+02 -.43504019E+01 -.11823141E+03 0.11877177E+03 0.75000000E+00 0.0000E+00 0.9000E+01
#aMCatNLO 2  0  0  2  4 0.18234766D+03 0.00000000D+00  -5  6  0 0.00000000D+00 0.00000000D+00 0.00000000D+00 0.00000000D+00 0.00000000D+00
  <mgrwgt>
 0.3499522365D-02    1    2    0
 0.995469798154531D+03 0.000000000000000D+00 0.000000000000000D+00 0.995469798154531D+03
 0.995469798154531D+03 0.000000000000000D+00 0.000000000000000D+00 -.995469798154531D+03
 0.997841888776170D+03 0.218504805381571D+03 -.699791259338420D+03 -.665290371473317D+03
 0.782779847495975D+03 -.143040602468233D+03 0.564878889672733D+03 0.522681084116737D+03
 0.210317860036917D+03 -.754642029133384D+02 0.134912369665687D+03 0.142609287356581D+03
 0.000000000000000D+00 0.000000000000000D+00 -.000000000000000D+00 -.000000000000000D+00
 0.995677926129500D+03 0.000000000000000D+00 0.000000000000000D+00 0.995677926129500D+03
 0.116140790610586D+04 0.000000000000000D+00 0.000000000000000D+00 -.116140790610586D+04
 0.995185213892987D+03 0.213289297290583D+03 -.697613795188580D+03 -.665290371473317D+03
 0.784775399688520D+03 -.147142702767728D+03 0.566591508306502D+03 0.522681084116737D+03
 0.211011004042481D+03 -.765667690031974D+02 0.135372688793107D+03 0.142609287356581D+03
 0.166114214611368D+03 0.104201744803427D+02 -.435040191102889D+01 -.165729979976356D+03
0.277962270590D-02 0.000000000000D+00 0.000000000000D+00 0.255901584282D-04 0.122742559836D-05  6 2 -1 25 4 -3 21 2 0.21448067D+00 0.12761120D+00 0.55675985D+06 0.55675985D+06 0.55675985D+06 0.10652256D+01  1  2  1  2  6  2       -1 0.349952236478D-02 0.100000000000D+01
  </mgrwgt>
  </event>
  <event>
  7     66 0.16549492E-05 0.76282562E+02 0.75467711E-02 0.93625012E-01
        2 -1    0    0  503    0 0.00000000E+00 0.00000000E+00 0.16203749E+04 0.16203749E+04 0.32000000E+00 0.0000E+00 0.9000E+01
       -1 -1    0    0    0  501 0.00000000E+00 0.00000000E+00 -.25034454E+03 0.25034474E+03 0.32000000E+00 0.0000E+00 0.9000E+01
       24  2    1    2    0    0 0.37774802E+03 0.37881683E+03 0.72462154E+03 0.90441226E+03 0.81788746E+02 0.0000E+00 0.0000E+00
       25  1    1    2    0    0 -.37967015E+03 -.36848899E+03 0.30037886E+03 0.62111676E+03 0.12500000E+03 0.0000E+00 0.9000E+01
        4  1    3    3  502    0 0.16441763E+03 0.21222455E+03 0.32152280E+03 0.41886959E+03 0.15500000E+01 0.0000E+00 0.9000E+01
       -3  1    3    3    0  502 0.21333038E+03 0.16659228E+03 0.40309874E+03 0.48554267E+03 0.50000000E+00 0.0000E+00 0.9000E+01
       21  1    1    2  503  501 0.19221367E+01 -.10327834E+02 0.34502993E+03 0.34519064E+03 0.75000000E+00 0.0000E+00 0.9000E+01
#aMCatNLO 2  0  0  1  1 0.65956092D+02 0.00000000D+00  -5  6  0 0.00000000D+00 0.00000000D+00 0.00000000D+00 0.00000000D+00 0.00000000D+00
  <mgrwgt>
 0.2718224699D-02    1    2    0
 0.564912068489732D+03 0.000000000000000D+00 0.000000000000000D+00 0.564912068489732D+03
 0.564912068489732D+03 0.000000000000000D+00 0.000000000000000D+00 -.564912068489732D+03
 0.568866489772322D+03 -.378704713723890D+03 -.373676391886810D+03 -.157901162553179D+03
 0.272126605827027D+03 0.164811485830151D+03 0.209677610013337D+03 0.540866304782528D+02
 0.288831041380115D+03 0.213893227893739D+03 0.163998781873473D+03 0.103814532074926D+03
 0.000000000000000D+00 0.000000000000000D+00 -.000000000000000D+00 0.000000000000000D+00
 0.717817612193660D+03 0.000000000000000D+00 0.000000000000000D+00 0.717817612193660D+03
 0.565116952392535D+03 0.000000000000000D+00 0.000000000000000D+00 -.565116952392535D+03
 0.566119546227605D+03 -.379670152094326D+03 -.368488994535760D+03 -.157901162553179D+03
 0.273774663485966D+03 0.164347132952540D+03 0.212172624673031D+03 0.540866304782528D+02
 0.289978765118452D+03 0.213400882456303D+03 0.166644203369207D+03 0.103814532074926D+03
 0.153061589754171D+03 0.192213668548210D+01 -.103278335064783D+02 0.152700659801125D+03
0.235296428173D-03 0.000000000000D+00 0.000000000000D+00 0.784548107827D-04 0.459055261160D-05  6 2 -1 25 4 -3 21 2 0.24928806D+00 0.38514500D-01 0.29882383D+06 0.29882383D+06 0.29882383D+06 0.10846781D+01  1  2  1  1  6  1        2 0.271822469904D-02 0.100000000000D+01
  </mgrwgt>
  </event>
  <event>
  7     66 0.16549492E-05 0.27430650E+02 0.75467711E-02 0.92323840E-01
        2 -1    0    0  501    0 0.00000000E+00 0.00000000E+00 0.21610953E+04 0.21610954E+04 0.32000000E+00 0.0000E+00 0.9000E+01
       21 -1    0    0  503  501 0.00000000E+00 0.00000000E+00 -.31870083E+03 0.31870171E+03 0.75000000E+00 0.0000E+00 0.9000E+01
       24  2    1    2    0    0 0.51845274E+03 0.31191248E+03 0.81634801E+03 0.10193890E+04 0.81530212E+02 0.0000E+00 0.0000E+00
       25  1    1    2    0    0 -.51543593E+03 -.29795674E+03 0.11684300E+04 0.13173102E+04 0.12500000E+03 0.0000E+00 0.9000E+01
        4  1    3    3  502    0 0.88995984E+02 0.25634340E+02 0.15370864E+03 0.17946073E+03 0.15500000E+01 0.0000E+00 0.9000E+01
        1  1    1    2  503    0 -.30168076E+01 -.13955742E+02 -.14238348E+03 0.14309794E+03 0.32000000E+00 0.0000E+00 0.9000E+01
       -3  1    3    3    0  502 0.42945676E+03 0.28627814E+03 0.66263937E+03 0.83992825E+03 0.50000000E+00 0.0000E+00 0.9000E+01
#aMCatNLO 2  0  0  2  4 0.37154403D+03 0.00000000D+00  -5  6  0 0.00000000D+00 0.00000000D+00 0.00000000D+00 0.00000000D+00 0.00000000D+00
  <mgrwgt>
 0.8252204830D-03    1    2    0
 0.616566156833099D+03 0.000000000000000D+00 0.000000000000000D+00 0.616566156833099D+03
 0.616566156833099D+03 0.000000000000000D+00 0.000000000000000D+00 -.616566156833099D+03
 0.620206408835035D+03 -.516947474690733D+03 -.304949125560190D+03 0.938207268731211D+02
 0.919723252446521D+02 0.886184360526109D+02 0.244881156253248D+02 0.245226336638553D+01
 0.000000000000000D+00 -.000000000000000D+00 -.000000000000000D+00 -.000000000000000D+00
 0.520953579586510D+03 0.428329038638122D+03 0.280461009934865D+03 -.962729902395067D+02
 0.616709377693768D+03 0.000000000000000D+00 0.000000000000000D+00 0.616709377693768D+03
 0.111680462953256D+04 0.000000000000000D+00 0.000000000000000D+00 -.111680462953256D+04
 0.615532087079659D+03 -.515435933573188D+03 -.297956741516578D+03 0.938207268731211D+02
 0.924724312391009D+02 0.888440467576771D+02 0.255317899758679D+02 0.245226336638553D+01
 0.500299035347615D+03 -.301680763735320D+01 -.139557418195381D+02 -.500095251838787D+03
 0.525210453559948D+03 0.429608694452864D+03 0.286380693360248D+03 -.962729902395067D+02
0.247900889320D-04 0.000000000000D+00 0.000000000000D+00 0.816130394137D-04 0.190258204135D-06  6 2 21 25 4 1 -3 2 0.33247625D+00 0.49030963D-01 0.37906762D+06 0.37906762D+06 0.37906762D+06 0.10771145D+01  1  2  1  6  5  2       -1 0.825220483022D-03 0.100000000000D+01
  </mgrwgt>
  </event>
  <event>
  7     66 0.16549492E-05 0.37848030E+02 0.75467711E-02 0.91818572E-01
        2 -1    0    0  501    0 0.00000000E+00 0.00000000E+00 0.15500981E+04 0.15500982E+04 0.32000000E+00 0.0000E+00 0.9000E+01
       -1 -1    0    0    0  503 0.00000000E+00 0.00000000E+00 -.30191032E+03 0.30191049E+03 0.32000000E+00 0.0000E+00 0.9000E+01
       24  2    1    2    0    0 0.34802915E+03 0.52972866E+03 0.54773948E+03 0.84445166E+03 0.10650504E+03 0.0000E+00 0.0000E+00
       25  1    1    2    0    0 -.34857093E+03 -.51426079E+03 0.73453121E+03 0.97011698E+03 0.12500000E+03 0.0000E+00 0.9000E+01
        4  1    3    3  502    0 0.79937839E+02 0.57247768E+02 0.66510661E+02 0.11871578E+03 0.15500000E+01 0.0000E+00 0.9000E+01
       -3  1    3    3    0  502 0.26809131E+03 0.47248089E+03 0.48122882E+03 0.72573588E+03 0.50000000E+00 0.0000E+00 0.9000E+01
       21  1    1    2  501  503 0.54178644E+00 -.15467867E+02 -.34082885E+02 0.37440005E+02 0.75000000E+00 0.0000E+00 0.9000E+01
#aMCatNLO 2  0  0  2  4 0.37154403D+03 0.00000000D+00  -5  6  0 0.00000000D+00 0.00000000D+00 0.00000000D+00 0.00000000D+00 0.00000000D+00
  <mgrwgt>
 0.3065968275D-03    1    2    0
 0.641911534928063D+03 0.000000000000000D+00 0.000000000000000D+00 0.641911534928063D+03
 0.641911534928063D+03 0.000000000000000D+00 0.000000000000000D+00 -.641911534928063D+03
 0.643579108609515D+03 -.348300646559697D+03 -.521977839630396D+03 0.692449534587148D+02
 0.100595747731198D+03 0.799253258482056D+02 0.559331456626748D+02 -.245546322704091D+02
 0.539648213515413D+03 0.268375320711491D+03 0.466044693967722D+03 -.446903211883057D+02
 0.000000000000000D+00 0.000000000000000D+00 -.000000000000000D+00 -.000000000000000D+00
 0.642652478214727D+03 0.000000000000000D+00 0.000000000000000D+00 0.642652478214727D+03
 0.728213875459934D+03 0.000000000000000D+00 0.000000000000000D+00 -.728213875459934D+03
 0.637483923774177D+03 -.348570947575785D+03 -.514260813203904D+03 0.692449534587148D+02
 0.101243226947711D+03 0.798827383419217D+02 0.571490083190150D+02 -.245546322704091D+02
 0.545189210708095D+03 0.268146422795741D+03 0.472579672231518D+03 -.446903211883057D+02
 0.869499922446783D+02 0.541786438121759D+00 -.154678673466299D+02 -.855613972452072D+02
0.349964663987D-04 0.000000000000D+00 0.000000000000D+00 0.143401243427D-06 0.371249894432D-08  6 2 -1 25 4 -3 21 2 0.23847605D+00 0.46447640D-01 0.41651809D+06 0.41651809D+06 0.41651809D+06 0.10741630D+01  1  2  1  2  6  2       -1 0.306596827481D-03 0.100000000000D+01
  </mgrwgt>
  </event>
  <event>
  7     66 0.16549492E-05 0.27867620E+02 0.75467711E-02 0.93360232E-01
        2 -1    0    0  503    0 0.00000000E+00 0.00000000E+00 0.22077658E+04 0.22077658E+04 0.32000000E+00 0.0000E+00 0.9000E+01
       -1 -1    0    0    0  501 0.00000000E+00 0.00000000E+00 -.14854539E+03 0.14854573E+03 0.32000000E+00 0.0000E+00 0.9000E+01
       24  2    1    2    0    0 0.39593711E+03 0.35201404E+03 0.83922962E+03 0.99577171E+03 0.81085567E+02 0.0000E+00 0.0000E+00
       25  1    1    2    0    0 -.38815755E+03 -.37847232E+03 0.10496608E+04 0.11879901E+04 0.12500000E+03 0.0000E+00 0.9000E+01
        4  1    3    3  502    0 0.33813976E+03 0.25740273E+03 0.65676149E+03 0.78226128E+03 0.15500000E+01 0.0000E+00 0.9000E+01
       -3  1    3    3    0  502 0.57797349E+02 0.94611312E+02 0.18246813E+03 0.21351043E+03 0.50000000E+00 0.0000E+00 0.9000E+01
       21  1    1    2  503  501 -.77795530E+01 0.26458279E+02 0.17032993E+03 0.17254973E+03 0.75000000E+00 0.0000E+00 0.9000E+01
#aMCatNLO 2  0  0  1  1 0.65956092D+02 0.00000000D+00  -5  6  0 0.00000000D+00 0.00000000D+00 0.00000000D+00 0.00000000D+00 0.00000000D+00
  <mgrwgt>
 0.7930208016D-03    1    2    0
 0.547756308064878D+03 0.000000000000000D+00 0.000000000000000D+00 0.547756308064878D+03
 0.547756308064878D+03 0.000000000000000D+00 0.000000000000000D+00 -.547756308064878D+03
 0.551886854235209D+03 -.392098078651364D+03 -.365070585813626D+03 0.440075444581827D+02
 0.430733894767346D+03 0.335087236622699D+03 0.267731469544585D+03 -.395991435451227D+02
 0.112891867127201D+03 0.570108420286655D+02 0.973391162690408D+02 -.440840091306000D+01
 0.000000000000000D+00 -.000000000000000D+00 0.000000000000000D+00 0.000000000000000D+00
 0.594057477453053D+03 0.000000000000000D+00 0.000000000000000D+00 0.594057477453053D+03
 0.552051895346675D+03 0.000000000000000D+00 0.000000000000000D+00 -.552051895346675D+03
 0.558094300420598D+03 -.388157553714014D+03 -.378472320900049D+03 0.440075444581827D+02
 0.426783789892182D+03 0.338131495353080D+03 0.257377938051257D+03 -.395991435451227D+02
 0.110981596906483D+03 0.578056113489691D+02 0.946361038392581D+02 -.440840091306000D+01
 0.502496855804649D+02 -.777955298803451D+01 0.264582790095335D+02 0.420055821063776D+02
0.599536920773D-04 0.000000000000D+00 0.000000000000D+00 0.125427538616D-03 0.103468736202D-05  6 2 -1 25 4 -3 21 2 0.33965459D+00 0.22853050D-01 0.31347207D+06 0.31347207D+06 0.31347207D+06 0.10831432D+01  1  2  1  1  6  1        2 0.793020801622D-03 0.100000000000D+01
  </mgrwgt>
  </event>
  <event>
  7     66 0.16549492E-05 0.82529542E+02 0.75467711E-02 0.91152926E-01
        2 -1    0    0  501    0 0.00000000E+00 0.00000000E+00 0.17309371E+04 0.17309371E+04 0.32000000E+00 0.0000E+00 0.9000E+01
       -1 -1    0    0    0  503 0.00000000E+00 0.00000000E+00 -.83660628E+03 0.83660634E+03 0.32000000E+00 0.0000E+00 0.9000E+01
       24  2    1    2    0    0 -.10316676E+03 0.59446374E+03 0.76030123E+03 0.97375752E+03 0.78199956E+02 0.0000E+00 0.0000E+00
       25  1    1    2    0    0 0.10933617E+02 -.64918413E+03 0.73192025E+03 0.98635279E+03 0.12500000E+03 0.0000E+00 0.9000E+01
        4  1    3    3  502    0 -.99462706E+02 0.42160347E+03 0.58052345E+03 0.72432879E+03 0.15500000E+01 0.0000E+00 0.9000E+01
       -3  1    3    3    0  502 -.37040494E+01 0.17286026E+03 0.17977778E+03 0.24942873E+03 0.50000000E+00 0.0000E+00 0.9000E+01
       21  1    1    2  501  503 0.92233138E+02 0.54720395E+02 -.59789064E+03 0.60743317E+03 0.75000000E+00 0.0000E+00 0.9000E+01
#aMCatNLO 2  0  0  2  4 0.37154403D+03 0.00000000D+00  -5  6  0 0.00000000D+00 0.00000000D+00 0.00000000D+00 0.00000000D+00 0.00000000D+00
  <mgrwgt>
 0.3558249862D-03    1    2    0
 0.633207356582955D+03 0.000000000000000D+00 0.000000000000000D+00 0.633207356582955D+03
 0.633207356582955D+03 0.000000000000000D+00 0.000000000000000D+00 -.633207356582955D+03
 0.636961958808386D+03 0.581453455691799D+02 -.621174195466957D+03 -.292792527847837D+02
 0.447976658189636D+03 -.673528495943767D+02 0.440604577293755D+03 0.448808021548472D+02
 0.181476096167888D+03 0.920750402519682D+01 0.180569618173202D+03 -.156015493700635D+02
 0.000000000000000D+00 0.000000000000000D+00 0.000000000000000D+00 -.000000000000000D+00
 0.637230156302983D+03 0.000000000000000D+00 0.000000000000000D+00 0.637230156302983D+03
 0.227251107001287D+04 0.000000000000000D+00 0.000000000000000D+00 -.227251107001287D+04
 0.661847306086259D+03 0.109336172155145D+02 -.649184132542215D+03 -.292792527847837D+02
 0.435447336385303D+03 -.994653196700850D+02 0.421552780261168D+03 0.448808021548472D+02
 0.173652838391891D+03 -.370143591089367D+01 0.172910957752859D+03 -.156015493700635D+02
 0.163879374545240D+04 0.922331383654642D+02 0.547203945281875D+02 -.163528091370989D+04
0.435020997456D-03 0.000000000000D+00 0.000000000000D+00 0.507908480540D-04 0.528014179111D-07  6 2 -1 25 4 -3 21 2 0.26629799D+00 0.12870865D+00 0.47232781D+06 0.47232781D+06 0.47232781D+06 0.10702623D+01  1  2  1  2  6  2       -1 0.355824986165D-03 0.100000000000D+01
  </mgrwgt>
  </event>
  <event>
  5     66 0.16549492E-05 0.24939359E+02 0.75467711E-02 0.84484524E-01
        2 -1    0    0  501    0 0.00000000E+00 0.00000000E+00 0.34142836E+03 0.34142851E+03 0.32000000E+00 0.0000E+00 0.9000E+01
       -1 -1    0    0    0  501 0.00000000E+00 0.00000000E+00 -.10432222E+04 0.10432223E+04 0.32000000E+00 0.0000E+00 0.9000E+01
       25  1    1    2    0    0 0.38863206E+03 0.25745170E+03 -.72007803E+03 0.86686425E+03 0.12500000E+03 0.0000E+00 0.9000E+01
        4  1    1    2  502    0 -.36770925E+03 -.24387870E+03 0.82511984E+02 0.44888478E+03 0.15500000E+01 0.0000E+00 0.9000E+01
       -3  1    1    2    0  502 -.20922810E+02 -.13572996E+02 -.64227833E+02 0.68901776E+02 0.50000000E+00 0.0000E+00 0.9000E+01
#aMCatNLO 1  0  0  2  4 0.37154403D+03 0.00000000D+00  -5  6  0 0.00000000D+00 0.00000000D+00 0.00000000D+00 0.00000000D+00 0.00000000D+00
  <mgrwgt>
 0.1200895742D-01    3    2    0
 0.596813038352358D+03 0.000000000000000D+00 0.000000000000000D+00 0.596813038352358D+03
 0.596813038352358D+03 0.000000000000000D+00 0.000000000000000D+00 -.596813038352358D+03
 0.582226894149872D+03 0.388633983531244D+03 0.257452968195659D+03 -.325645132442184D+03
 0.569236866953933D+03 -.367711485695223D+03 -.243880175573761D+03 0.359640562158183D+03
 0.421623156009102D+02 -.209224978360211D+02 -.135727926218982D+02 -.339954297159985D+02
 0.000000000000000D+00 -.000000000000000D+00 0.000000000000000D+00 0.000000000000000D+00
 0.213403729593347D+04 0.000000000000000D+00 0.000000000000000D+00 0.213403729593347D+04
 0.112721489964043D+04 0.000000000000000D+00 0.000000000000000D+00 -.112721489964043D+04
 0.910971432279611D+03 0.819816973861953D+03 -.189998230292046D+03 -.325645132442184D+03
 0.727626782856095D+03 0.677697754421962D+01 -.632497805336447D+03 0.359640562158183D+03
 0.550484417282310D+02 0.714853887463480D+01 -.427029283198340D+02 -.339954297159985D+02
 0.156760553870996D+04 -.833742490280807D+03 0.865198963948326D+03 0.100682239629304D+04
0.358963979569D-02 0.000000000000D+00 0.000000000000D+00 0.325435338167D-08 0.000000000000D+00  6 2 -1 25 4 -3 21 0 0.52527456D-01 0.16049575D+00 0.22506368D+06 0.22506368D+06 0.22506368D+06 0.10939089D+01  1  2  2  2  6  2       -1 0.136797128621D-01 0.100000000000D+01
0.505724703500D-03 0.000000000000D+00 -.137851619893D-04 0.325435338167D-08 0.000000000000D+00  6 2 -1 25 4 -3 21 2 0.52527456D-01 0.16049575D+00 0.22506368D+06 0.22506368D+06 0.22506368D+06 0.10939089D+01  1  2  3  2  6  2       -1 0.230622976446D-02 0.100000000000D+01
-.872098562746D-03 0.000000000000D+00 0.000000000000D+00 0.325435338167D-08 0.000000000000D+00  6 2 -1 25 4 -3 21 2 0.52527456D-01 0.16049575D+00 0.22506368D+06 0.22506368D+06 0.22506368D+06 0.10939089D+01  1  2 15  2  6  2       -1 -.397698520366D-02 0.100000000000D+01
  </mgrwgt>
  </event>
  <event>
  7     66 0.16549492E-05 0.63220646E+02 0.75467711E-02 0.95234338E-01
        2 -1    0    0  503    0 0.00000000E+00 0.00000000E+00 0.68775462E+03 0.68775469E+03 0.32000000E+00 0.0000E+00 0.9000E+01
       -1 -1    0    0    0  501 0.00000000E+00 0.00000000E+00 -.42801154E+03 0.42801166E+03 0.32000000E+00 0.0000E+00 0.9000E+01
       24  2    1    2    0    0 -.36450881E+03 0.26793124E+03 0.25627162E+03 0.52610600E+03 0.80365114E+02 0.0000E+00 0.0000E+00
       25  1    1    2    0    0 0.37583592E+03 -.26645045E+03 -.98191243E+02 0.48735511E+03 0.12500000E+03 0.0000E+00 0.9000E+01
        4  1    3    3  502    0 -.17598283E+03 0.80783390E+02 0.11535808E+03 0.22540142E+03 0.15500000E+01 0.0000E+00 0.9000E+01
       -3  1    3    3    0  502 -.18852598E+03 0.18714785E+03 0.14091355E+03 0.30070458E+03 0.50000000E+00 0.0000E+00 0.9000E+01
       21  1    1    2  503  501 -.11327113E+02 -.14807954E+01 0.10166270E+03 0.10230524E+03 0.75000000E+00 0.0000E+00 0.9000E+01
#aMCatNLO 2  0  0  1  1 0.65956092D+02 0.00000000D+00  -5  6  0 0.00000000D+00 0.00000000D+00 0.00000000D+00 0.00000000D+00 0.00000000D+00
  <mgrwgt>
 0.4568431219D-02    1    2    0
 0.500495631490023D+03 0.000000000000000D+00 0.000000000000000D+00 0.500495631490023D+03
 0.500495631490023D+03 0.000000000000000D+00 0.000000000000000D+00 -.500495631490023D+03
 0.505074317083923D+03 0.370099094484496D+03 -.267200425142029D+03 -.176367964334416D+03
 0.211765959773630D+03 -.178305062746618D+03 0.804050044680947D+02 0.811613305352802D+02
 0.284150986122493D+03 -.191794031737879D+03 0.186795420673934D+03 0.952066337991360D+02
 0.000000000000000D+00 -.000000000000000D+00 -.000000000000000D+00 0.000000000000000D+00
 0.587669399792348D+03 0.000000000000000D+00 0.000000000000000D+00 0.587669399792348D+03
 0.500902603849758D+03 0.000000000000000D+00 0.000000000000000D+00 -.500902603849758D+03
 0.508899931342617D+03 0.375835921122877D+03 -.266450448809479D+03 -.176367964334416D+03
 0.209881013263368D+03 -.175919483832099D+03 0.807168716096516D+02 0.811613305352802D+02
 0.282275499756779D+03 -.188589324559251D+03 0.187214372594259D+03 0.952066337991360D+02
 0.875155592793416D+02 -.113271127315273D+02 -.148079539443247D+01 0.867667959425900D+02
0.278264556532D-03 0.000000000000D+00 0.000000000000D+00 0.258532397105D-03 0.128005488951D-04  6 2 -1 25 4 -3 21 2 0.10580808D+00 0.65847733D-01 0.22471054D+06 0.22471054D+06 0.22471054D+06 0.10939607D+01  1  2  1  1  6  1        2 0.456843121856D-02 0.100000000000D+01
  </mgrwgt>
  </event>
  <event>
  7     66 0.16549492E-05 0.16222054E+02 0.75467711E-02 0.95525742E-01
        2 -1    0    0  503    0 0.00000000E+00 0.00000000E+00 0.19159821E+04 0.19159822E+04 0.32000000E+00 0.0000E+00 0.9000E+01
       -1 -1    0    0    0  501 0.00000000E+00 0.00000000E+00 -.21982437E+03 0.21982461E+03 0.32000000E+00 0.0000E+00 0.9000E+01
       24  2    1    2    0    0 0.42381988E+03 -.93189305E+02 0.52281724E+03 0.68420190E+03 0.80540922E+02 0.0000E+00 0.0000E+00
       25  1    1    2    0    0 -.44039042E+03 0.10125207E+03 0.25620932E+03 0.53428823E+03 0.12500000E+03 0.0000E+00 0.9000E+01
        4  1    3    3  502    0 0.42167267E+03 -.97046816E+02 0.52404090E+03 0.67959341E+03 0.15500000E+01 0.0000E+00 0.9000E+01
       -3  1    3    3    0  502 0.21472068E+01 0.38575104E+01 -.12236632E+01 0.46084960E+01 0.50000000E+00 0.0000E+00 0.9000E+01
       21  1    1    2  503  501 0.16570536E+02 -.80627664E+01 0.91713121E+03 0.91731663E+03 0.75000000E+00 0.0000E+00 0.9000E+01
#aMCatNLO 2  0  0  1  1 0.65956092D+02 0.00000000D+00  -5  6  0 0.00000000D+00 0.00000000D+00 0.00000000D+00 0.00000000D+00 0.00000000D+00
  <mgrwgt>
 0.1297243442D-02    1    2    0
 0.468373847661844D+03 0.000000000000000D+00 0.000000000000000D+00 0.468373847661844D+03
 0.468373847661844D+03 0.000000000000000D+00 0.000000000000000D+00 -.468373847661844D+03
 0.473251447106589D+03 -.431943898425120D+03 0.971422279625693D+02 -.111039580097633D+03
 0.456494262299507D+03 0.429688361985659D+03 -.100944674176104D+03 0.116469291411652D+03
 0.700198591759166D+01 0.225553643946097D+01 0.380244621353511D+01 -.542971131401925D+01
 0.000000000000000D+00 0.000000000000000D+00 -.000000000000000D+00 0.000000000000000D+00
 0.898684844683814D+03 0.000000000000000D+00 0.000000000000000D+00 0.898684844683814D+03
 0.468661804588141D+03 0.000000000000000D+00 0.000000000000000D+00 -.468661804588141D+03
 0.481819976694596D+03 -.440390417260755D+03 0.101252071478171D+03 -.111039580097633D+03
 0.448112791779157D+03 0.421688143016994D+03 -.970519878882282D+02 0.116469291411652D+03
 0.699616989041781D+01 0.213173869643361D+01 0.386268278688893D+01 -.542971131401925D+01
 0.430417710907785D+03 0.165705355473276D+02 -.806276637683211D+01 0.430023040095673D+03
0.125503272755D-03 0.000000000000D+00 0.000000000000D+00 0.376331790910D-04 0.872493294465D-06  6 2 -1 25 4 -3 21 2 0.29476630D+00 0.33819131D-01 0.21363005D+06 0.21363005D+06 0.21363005D+06 0.10956331D+01  1  2  1  1  6  1        2 0.129724344244D-02 0.100000000000D+01
  </mgrwgt>
  </event>
  <event>
  7     66 0.16549492E-05 0.48296279E+02 0.75467711E-02 0.89030745E-01
        2 -1    0    0  503    0 0.00000000E+00 0.00000000E+00 0.37340892E+04 0.37340892E+04 0.32000000E+00 0.0000E+00 0.9000E+01
       -1 -1    0    0    0  501 0.00000000E+00 0.00000000E+00 -.62994712E+03 0.62994720E+03 0.32000000E+00 0.0000E+00 0.9000E+01
       24  2    1    2    0    0 -.43278728E+03 0.70940093E+03 -.26933320E+03 0.87812239E+03 0.89465302E+02 0.0000E+00 0.0000E+00
       25  1    1    2    0    0 0.40385759E+03 -.70920676E+03 0.30068410E+04 0.31181394E+04 0.12500000E+03 0.0000E+00 0.9000E+01
        4  1    3    3  502    0 -.17731141E+03 0.21021991E+03 -.91704179E+02 0.28990310E+03 0.15500000E+01 0.0000E+00 0.9000E+01
       -3  1    3    3    0  502 -.25547587E+03 0.49918102E+03 -.17762902E+03 0.58821929E+03 0.50000000E+00 0.0000E+00 0.9000E+01
       21  1    1    2  503  501 0.28929686E+02 -.19417699E+00 0.36663423E+03 0.36777464E+03 0.75000000E+00 0.0000E+00 0.9000E+01
#aMCatNLO 2  0  0  1  1 0.65956092D+02 0.00000000D+00  -5  6  0 0.00000000D+00 0.00000000D+00 0.00000000D+00 0.00000000D+00 0.00000000D+00
  <mgrwgt>
 0.1436519740D-02    1    2    0
 0.145562031304862D+04 0.000000000000000D+00 0.000000000000000D+00 0.145562031304862D+04
 0.145562031304862D+04 0.000000000000000D+00 0.000000000000000D+00 -.145562031304862D+04
 0.145692919835836D+04 0.418314554734866D+03 -.709303793288498D+03 0.119537389596421D+04
 0.482128987496332D+03 -.172440627216014D+03 0.210044379123897D+03 -.398238558489811D+03
 0.972182440242544D+03 -.245873927518852D+03 0.499259414164600D+03 -.797135337474397D+03
 0.000000000000000D+00 0.000000000000000D+00 -.000000000000000D+00 0.000000000000000D+00
 0.161445418076786D+04 0.000000000000000D+00 0.000000000000000D+00 0.161445418076786D+04
 0.145701013939722D+04 0.000000000000000D+00 0.000000000000000D+00 -.145701013939722D+04
 0.145279693431679D+04 0.403857593769831D+03 -.709206757696263D+03 0.119537389596421D+04
 0.483880385775040D+03 -.177240240363250D+03 0.210076594283457D+03 -.398238558489811D+03
 0.974707049491509D+03 -.255547039032768D+03 0.499324340403716D+03 -.797135337474397D+03
 0.160079950581746D+03 0.289296856261868D+02 -.194176990910240D+00 0.157444041370642D+03
0.167128311566D-01 0.000000000000D+00 0.000000000000D+00 0.922327571826D-06 0.659900818033D-08  6 2 -1 25 4 -3 21 2 0.57447492D+00 0.96914890D-01 0.71432637D+06 0.71432637D+06 0.71432637D+06 0.10577303D+01  1  2  1  1  6  1        2 0.143651974048D-02 0.100000000000D+01
  </mgrwgt>
  </event>
  <event>
  7     66 0.16549492E-05 0.63692965E+02 0.75467711E-02 0.93457352E-01
        2 -1    0    0  503    0 0.00000000E+00 0.00000000E+00 0.13346074E+04 0.13346074E+04 0.32000000E+00 0.0000E+00 0.9000E+01
       -1 -1    0    0    0  501 0.00000000E+00 0.00000000E+00 -.29091470E+03 0.29091487E+03 0.32000000E+00 0.0000E+00 0.9000E+01
       24  2    1    2    0    0 0.54490501E+03 0.50793485E+02 0.33097298E+03 0.64456214E+03 0.80098644E+02 0.0000E+00 0.0000E+00
       25  1    1    2    0    0 -.51778511E+03 -.53604591E+02 0.40310004E+03 0.67014141E+03 0.12500000E+03 0.0000E+00 0.9000E+01
        4  1    3    3  502    0 0.26433581E+03 0.19767303E+02 0.20667894E+03 0.33612908E+03 0.15500000E+01 0.0000E+00 0.9000E+01
       -3  1    3    3    0  502 0.28056919E+03 0.31026183E+02 0.12429404E+03 0.30843306E+03 0.50000000E+00 0.0000E+00 0.9000E+01
       21  1    1    2  503  501 -.27119896E+02 0.28111053E+01 0.30961968E+03 0.31081875E+03 0.75000000E+00 0.0000E+00 0.9000E+01
#aMCatNLO 2  0  0  1  1 0.65956092D+02 0.00000000D+00  -5  6  0 0.00000000D+00 0.00000000D+00 0.00000000D+00 0.00000000D+00 0.00000000D+00
  <mgrwgt>
 0.2075219724D-02    1    2    0
 0.545169431474619D+03 0.000000000000000D+00 0.000000000000000D+00 0.545169431474619D+03
 0.545169431474619D+03 0.000000000000000D+00 0.000000000000000D+00 -.545169431474619D+03
 0.549392525582767D+03 -.531287453603681D+03 -.522050087392691D+02 0.348629584525012D+02
 0.259529948847265D+03 0.257706698099770D+03 0.204337623761005D+02 0.229240803160128D+02
 0.281416388519207D+03 0.273580755503911D+03 0.317712463631686D+02 -.577870387685141D+02
 0.000000000000000D+00 -.000000000000000D+00 0.000000000000000D+00 0.000000000000000D+00
 0.710486000317032D+03 0.000000000000000D+00 0.000000000000000D+00 0.710486000317032D+03
 0.546465207761313D+03 0.000000000000000D+00 0.000000000000000D+00 -.546465207761313D+03
 0.536484200296762D+03 -.517785109067672D+03 -.536045905102771D+02 0.348629584525012D+02
 0.265968311643149D+03 0.264241011247027D+03 0.197564499624993D+02 0.229240803160128D+02
 0.288227196840617D+03 0.280663994115573D+03 0.310370352330834D+02 -.577870387685141D+02
 0.166271499297818D+03 -.271198962949283D+02 0.281110531469440D+01 0.164020792555719D+03
0.163250370077D-03 0.000000000000D+00 0.000000000000D+00 0.343927746271D-03 0.299645432027D-05  6 2 -1 25 4 -3 21 2 0.20532391D+00 0.44756054D-01 0.30800772D+06 0.30800772D+06 0.30800772D+06 0.10837065D+01  1  2  1  1  6  1        2 0.207521972395D-02 0.100000000000D+01
  </mgrwgt>
  </event>
  <event>
  7     66 0.16549492E-05 0.49209717E+02 0.75467711E-02 0.94106097E-01
        2 -1    0    0  503    0 0.00000000E+00 0.00000000E+00 0.11787838E+04 0.11787838E+04 0.32000000E+00 0.0000E+00 0.9000E+01
       -1 -1    0    0    0  501 0.00000000E+00 0.00000000E+00 -.32151876E+03 0.32151892E+03 0.32000000E+00 0.0000E+00 0.9000E+01
       24  2    1    2    0    0 0.23419774E+03 0.40063091E+03 0.37372740E+02 0.47301003E+03 0.83594590E+02 0.0000E+00 0.0000E+00
       25  1    1    2    0    0 -.30895336E+03 -.36078222E+03 0.51841793E+03 0.71414154E+03 0.12500000E+03 0.0000E+00 0.9000E+01
        4  1    3    3  502    0 0.62082852E+02 0.18636696E+03 0.78786161E+01 0.19659959E+03 0.15500000E+01 0.0000E+00 0.9000E+01
       -3  1    3    3    0  502 0.17211489E+03 0.21426395E+03 0.29494124E+02 0.27641044E+03 0.50000000E+00 0.0000E+00 0.9000E+01
       21  1    1    2  503  501 0.74755616E+02 -.39848692E+02 0.30147436E+03 0.31315120E+03 0.75000000E+00 0.0000E+00 0.9000E+01
#aMCatNLO 2  0  0  1  1 0.36062510D+03 0.00000000D+00  -5  6  0 0.00000000D+00 0.00000000D+00 0.00000000D+00 0.00000000D+00 0.00000000D+00
  <mgrwgt>
 0.1320227642D-02    1    2    0
 0.522792799245041D+03 0.000000000000000D+00 0.000000000000000D+00 0.522792799245041D+03
 0.522792799245041D+03 0.000000000000000D+00 0.000000000000000D+00 -.522792799245041D+03
 0.526922994822565D+03 -.271106648042787D+03 -.380956513052870D+03 0.208317457315472D+03
 0.216269808426844D+03 0.775327155478710D+02 0.178033971630930D+03 -.952114121420016D+02
 0.302392795240674D+03 0.193573932494916D+03 0.202922541421940D+03 -.113106045173470D+03
 0.000000000000000D+00 0.000000000000000D+00 -.000000000000000D+00 0.000000000000000D+00
 0.709464973017392D+03 0.000000000000000D+00 0.000000000000000D+00 0.709464973017392D+03
 0.534205727917549D+03 0.000000000000000D+00 0.000000000000000D+00 -.534205727917549D+03
 0.533513963288354D+03 -.308953358670667D+03 -.360782217088617D+03 0.208317457315472D+03
 0.218220274409154D+03 0.620258810208368D+02 0.186299933560700D+03 -.952114121420016D+02
 0.297277470618600D+03 0.172171861536780D+03 0.214330975777112D+03 -.113106045173470D+03
 0.194658992618834D+03 0.747556161130497D+02 -.398486922491956D+02 0.175259245099842D+03
0.100167962972D-03 0.000000000000D+00 0.000000000000D+00 0.196012938963D-04 0.179515331320D-07  6 2 -1 25 4 -3 21 2 0.18135113D+00 0.49464375D-01 0.27413070D+06 0.27413070D+06 0.27413070D+06 0.10874613D+01  1  2  1  1  6  1        2 0.132022764187D-02 0.100000000000D+01
  </mgrwgt>
  </event>
  <event>
  7     66 0.16549492E-05 0.54823534E+02 0.75467711E-02 0.90910113E-01
       21 -1    0    0  501  503 0.00000000E+00 0.00000000E+00 0.32022858E+04 0.32022859E+04 0.75000000E+00 0.0000E+00 0.9000E+01
       -1 -1    0    0    0  501 0.00000000E+00 0.00000000E+00 -.15638428E+03 0.15638460E+03 0.32000000E+00 0.0000E+00 0.9000E+01
       24  2    1    2    0    0 -.40482732E+03 -.54414342E+03 0.15277030E+04 0.16733686E+04 0.79428377E+02 0.0000E+00 0.0000E+00
       25  1    1    2    0    0 0.42732041E+03 0.45516629E+03 0.12698115E+04 0.14205018E+04 0.12500000E+03 0.0000E+00 0.9000E+01
        4  1    3    3  502    0 -.21393968E+03 -.29309264E+03 0.91332853E+03 0.98277408E+03 0.15500000E+01 0.0000E+00 0.9000E+01
       -3  1    3    3    0  502 -.19088765E+03 -.25105078E+03 0.61437450E+03 0.69059457E+03 0.50000000E+00 0.0000E+00 0.9000E+01
       -2  1    1    2    0  503 -.22493082E+02 0.88977126E+02 0.24838698E+03 0.26480004E+03 0.32000000E+00 0.0000E+00 0.9000E+01
#aMCatNLO 2  0  0  1  1 0.36062510D+03 0.00000000D+00  -5  6  0 0.00000000D+00 0.00000000D+00 0.00000000D+00 0.00000000D+00 0.00000000D+00
  <mgrwgt>
 0.8392262366D-06    1    2    0
 0.659075843402269D+03 0.000000000000000D+00 0.000000000000000D+00 0.659075843402269D+03
 0.659075843402269D+03 0.000000000000000D+00 0.000000000000000D+00 -.659075843402269D+03
 0.662609629776697D+03 0.416240073696174D+03 0.498997373477498D+03 -.342395061993336D+02
 0.352103279434461D+03 -.220006368964507D+03 -.268756152102259D+03 0.578277417053685D+02
 0.303438777593381D+03 -.196233704731667D+03 -.230241221375239D+03 -.235882355060349D+02
 0.000000000000000D+00 -.000000000000000D+00 0.000000000000000D+00 0.000000000000000D+00
 0.718220905035846D+03 0.000000000000000D+00 0.000000000000000D+00 0.718220905035846D+03
 0.697261043865891D+03 0.000000000000000D+00 0.000000000000000D+00 -.697261043865891D+03
 0.637633458496590D+03 0.427320405490301D+03 0.455166293415004D+03 -.342395061993336D+02
 0.367342893074485D+03 -.213875436701679D+03 -.293008619254206D+03 0.578277417053685D+02
 0.316366426489221D+03 -.190951886761704D+03 -.251134800251611D+03 -.235882355060349D+02
 0.941391708414404D+02 -.224930820269180D+02 0.889771260908131D+02 0.209598611699552D+02
0.570992886120D-05 0.000000000000D+00 0.000000000000D+00 0.187105856866D-03 0.199965267942D-08  6 21 -1 25 4 -3 -2 2 0.49265920D+00 0.24059142D-01 0.49472808D+06 0.49472808D+06 0.49472808D+06 0.10688359D+01  1  2  1  5  6  1        2 0.839226236627D-06 0.100000000000D+01
  </mgrwgt>
  </event>
  <event>
  7     66 0.16549492E-05 0.26995256E+02 0.75467711E-02 0.94795332E-01
        2 -1    0    0  501    0 0.00000000E+00 0.00000000E+00 0.14328947E+04 0.14328947E+04 0.32000000E+00 0.0000E+00 0.9000E+01
       -1 -1    0    0    0  503 0.00000000E+00 0.00000000E+00 -.18506297E+03 0.18506325E+03 0.32000000E+00 0.0000E+00 0.9000E+01
       24  2    1    2    0    0 0.99629234E+01 -.48141603E+03 0.45501247E+03 0.66744566E+03 0.81158541E+02 0.0000E+00 0.0000E+00
       25  1    1    2    0    0 0.31239207E+01 0.46785441E+03 0.79564934E+03 0.93143995E+03 0.12500000E+03 0.0000E+00 0.9000E+01
        4  1    3    3  502    0 0.10197642E+02 -.81240646E+02 0.12145064E+03 0.14648104E+03 0.15500000E+01 0.0000E+00 0.9000E+01
       -3  1    3    3    0  502 -.23471816E+00 -.40017539E+03 0.33356184E+03 0.52096463E+03 0.50000000E+00 0.0000E+00 0.9000E+01
       21  1    1    2  501  503 -.13086844E+02 0.13561623E+02 -.28300916E+01 0.19072363E+02 0.75000000E+00 0.0000E+00 0.9000E+01
#aMCatNLO 2  0  0  2  1 0.14570858D+03 0.00000000D+00  -5  6  0 0.00000000D+00 0.00000000D+00 0.00000000D+00 0.00000000D+00 0.00000000D+00
  <mgrwgt>
 0.1738714616D-02    1    2    0
 0.497977171339074D+03 0.000000000000000D+00 0.000000000000000D+00 0.497977171339074D+03
 0.497977171339074D+03 0.000000000000000D+00 0.000000000000000D+00 -.497977171339074D+03
 0.502514674262892D+03 -.343636804643321D+01 0.474652699440509D+03 0.107652237032159D+03
 0.812596201922158D+02 0.912242047601493D+01 -.799829844033760D+02 0.110738215793495D+02
 0.412180048223039D+03 -.568605242958172D+01 -.394669715037133D+03 -.118726058611508D+03
 0.000000000000000D+00 -.000000000000000D+00 0.000000000000000D+00 -.000000000000000D+00
 0.500901174771681D+03 0.000000000000000D+00 0.000000000000000D+00 0.500901174771681D+03
 0.529389184775959D+03 0.000000000000000D+00 0.000000000000000D+00 -.529389184775959D+03
 0.496096272168218D+03 0.312392067817312D+01 0.467854409235150D+03 0.107652237032159D+03
 0.824831412797311D+02 0.101981144644088D+02 -.810977036195947D+02 0.110738215793495D+02
 0.417553226220485D+03 -.235191046361316D+00 -.400318328857029D+03 -.118726058611508D+03
 0.341577198792055D+02 -.130868440962207D+02 0.135616232414733D+02 -.284880100042775D+02
0.694977429032D-04 0.000000000000D+00 0.000000000000D+00 0.151954911706D-03 0.272313336300D-05  6 2 -1 25 4 -3 21 2 0.22044356D+00 0.28471018D-01 0.24264310D+06 0.24264310D+06 0.24264310D+06 0.10914363D+01  1  2  1  2  6  2       -1 0.173871461649D-02 0.100000000000D+01
  </mgrwgt>
  </event>
  <event>
  7     66 0.16549492E-05 0.39024318E+02 0.75467711E-02 0.89278441E-01
        2 -1    0    0  503    0 0.00000000E+00 0.00000000E+00 0.10568138E+04 0.10568138E+04 0.32000000E+00 0.0000E+00 0.9000E+01
       -1 -1    0    0    0  501 0.00000000E+00 0.00000000E+00 -.75405910E+03 0.75405916E+03 0.32000000E+00 0.0000E+00 0.9000E+01
       24  2    1    2    0    0 -.80633121E+03 -.62229117E+01 0.20985041E+03 0.83692672E+03 0.78742551E+02 0.0000E+00 0.0000E+00
       25  1    1    2    0    0 0.76940425E+03 0.51579195E+02 -.85817430E+02 0.78589627E+03 0.12500000E+03 0.0000E+00 0.9000E+01
        4  1    3    3  502    0 -.15648966E+03 0.27021120E+02 0.54961324E+02 0.16805447E+03 0.15500000E+01 0.0000E+00 0.9000E+01
       -3  1    3    3    0  502 -.64984155E+03 -.33244031E+02 0.15488908E+03 0.66887225E+03 0.50000000E+00 0.0000E+00 0.9000E+01
       21  1    1    2  503  501 0.36926961E+02 -.45356284E+02 0.17872169E+03 0.18804999E+03 0.75000000E+00 0.0000E+00 0.9000E+01
#aMCatNLO 2  0  0  1  1 0.36062510D+03 0.00000000D+00  -5  6  0 0.00000000D+00 0.00000000D+00 0.00000000D+00 0.00000000D+00 0.00000000D+00
  <mgrwgt>
 0.5779776240D-03    1    2    0
 0.808509350144650D+03 0.000000000000000D+00 0.000000000000000D+00 0.808509350144650D+03
 0.808509350144650D+03 0.000000000000000D+00 0.000000000000000D+00 -.808509350144650D+03
 0.811423543633454D+03 0.787738248928792D+03 0.290600936502848D+02 -.146311753780444D+03
 0.159866550666029D+03 -.152546312323360D+03 0.224932621407779D+02 0.422017745677120D+02
 0.645728605989818D+03 -.635191936605431D+03 -.515533557910627D+02 0.104109979212732D+03
 0.000000000000000D+00 0.000000000000000D+00 -.000000000000000D+00 0.000000000000000D+00
 0.978903554199084D+03 0.000000000000000D+00 0.000000000000000D+00 0.978903554199084D+03
 0.814072611726695D+03 0.000000000000000D+00 0.000000000000000D+00 -.814072611726695D+03
 0.794780123290318D+03 0.769404251142069D+03 0.515791954917442D+02 -.146311753780444D+03
 0.164085627200227D+03 -.156244061640157D+03 0.270350971741299D+02 0.422017745677120D+02
 0.659210350948011D+03 -.650087150980161D+03 -.332580088974453D+02 0.104109979212732D+03
 0.174900064487222D+03 0.369269614782485D+02 -.453562837684288D+02 0.164830942472389D+03
0.234649965312D-03 0.000000000000D+00 0.000000000000D+00 0.537495510827D-04 0.957614276997D-07  6 2 -1 25 4 -3 21 2 0.16258658D+00 0.11600899D+00 0.67995474D+06 0.67995474D+06 0.67995474D+06 0.10592006D+01  1  2  1  1  6  1        2 0.577977624023D-03 0.100000000000D+01
  </mgrwgt>
  </event>
</LesHouchesEvents>
