<LesHouchesEvents version="3.0">
  <!--
  <scalesfunctionalform>
    muR  H_T/2 := sum_i mT(i)/2, i=final state
    muF1 H_T/2 := sum_i mT(i)/2, i=final state
    muF2 H_T/2 := sum_i mT(i)/2, i=final state
    QES  H_T/2 := sum_i mT(i)/2, i=final state
  </scalesfunctionalform>
HERWIG6   
  -->
  <header>
      204
  </header>
  <init>
   2212   2212 0.65000000D+04 0.65000000D+04 -1 -1   244800   244800 -4   1
 0.34409081D-03 0.14022544D-04 0.18082911D-05     66
  </init>
  <event>
  6     66 -.18082911E-05 0.14028215E+02 0.75467711E-02 0.93645843E-01
       -1 -1    0    0    0  501 0.00000000E+00 0.00000000E+00 0.16691206E+03 0.16691237E+03 0.32000000E+00 0.0000E+00 0.9000E+01
        2 -1    0    0  501    0 -.00000000E+00 -.00000000E+00 -.18099208E+04 0.18099209E+04 0.32000000E+00 0.0000E+00 0.9000E+01
       24  2    1    2    0    0 0.41111475E+03 0.34518092E+03 -.91653142E+03 0.10649344E+04 0.76747196E+02 0.0000E+00 0.0000E+00
       25  1    1    2    0    0 -.41111475E+03 -.34518092E+03 -.72647736E+03 0.91189887E+03 0.12500000E+03 0.0000E+00 0.9000E+01
        4  1    3    3  502    0 0.39390226E+03 0.34373875E+03 -.90105027E+03 0.10417338E+04 0.15500000E+01 0.0000E+00 0.9000E+01
       -3  1    3    3    0  502 0.17212491E+02 0.14421666E+01 -.15481145E+02 0.23200550E+02 0.50000000E+00 0.0000E+00 0.9000E+01
#aMCatNLO 1  0  0  5  4 0.27277897D+01 0.00000000D+00  -5  6  0 0.00000000D+00 0.00000000D+00 0.00000000D+00 0.00000000D+00 0.00000000D+00
  <mgrwgt>
 -.1841757544D-01    7    2    0
 0.549634373383753D+03 0.000000000000000D+00 0.000000000000000D+00 0.549634373383753D+03
 0.549634373383753D+03 -.000000000000000D+00 -.000000000000000D+00 -.549634373383753D+03
 0.554062256970469D+03 -.411114754559918D+03 -.345180916262933D+03 0.565223692906680D+02
 0.526638049997454D+03 0.393911972996866D+03 0.343752763165874D+03 -.633642726673617D+02
 0.185684397995830D+02 0.172027815630520D+02 0.142815309705926D+01 0.684190337669378D+01
 0.000000000000000D+00 0.000000000000000D+00 0.000000000000000D+00 0.000000000000000D+00
 0.549634373383753D+03 0.000000000000000D+00 0.000000000000000D+00 0.549634373383753D+03
 0.549634373383753D+03 -.000000000000000D+00 -.000000000000000D+00 -.549634373383753D+03
 0.553586923613796D+03 -.410483340328419D+03 -.345128497054624D+03 0.567734958394037D+02
 0.527091351221537D+03 0.394512650315769D+03 0.343802630634700D+03 -.631253708268982D+02
 0.394334862122518D+01 0.204003924017790D+01 -.165042762098352D+01 0.294352287488098D+01
 0.146471233109472D+02 0.139306507724727D+02 0.297629404090763D+01 0.340835211261364D+01
0.295881418691D-04 0.000000000000D+00 0.000000000000D+00 0.437432431456D-05 0.000000000000D+00  6 -1 2 25 4 -3 21 0 0.25678804D-01 0.27844938D+00 0.29770437D+06 0.29770437D+06 0.29770437D+06 0.10847988D+01  1  2  2  4  6  5       -3 0.456330731103D-03 0.100000000000D+01
0.127206752487D-04 0.000000000000D+00 -.113626255514D-06 0.437432431456D-05 0.000000000000D+00  6 -1 2 25 4 -3 21 2 0.25678804D-01 0.27844938D+00 0.29770437D+06 0.29770437D+06 0.29770437D+06 0.10847988D+01  1  2  3  4  6  5       -3 0.230871623122D-03 0.100000000000D+01
-.102355805481D-04 0.000000000000D+00 0.000000000000D+00 0.437432431456D-05 0.000000000000D+00  6 -1 2 25 4 -3 21 2 0.25678804D-01 0.27844938D+00 0.29770437D+06 0.29770437D+06 0.29770437D+06 0.10847988D+01  1  2 15  4  6  5       -3 -.185768840767D-03 0.100000000000D+01
0.245583746181D-07 0.000000000000D+00 0.000000000000D+00 0.437432431456D-05 0.000000000000D+00  6 -1 2 25 4 -3 21 2 0.25678804D-01 0.27844938D+00 0.29748014D+06 0.29748014D+06 0.29748014D+06 0.10848230D+01  1  2 12  4  6  5       -3 0.445750141427D-06 0.100000000000D+01
-.115792777884D-02 0.000000000000D+00 0.000000000000D+00 0.437432431456D-05 0.000000000000D+00  6 -1 2 25 4 -3 21 2 0.25678804D-01 0.27844938D+00 0.29770437D+06 0.29770437D+06 0.29770437D+06 0.10847988D+01  1  2  4  4  6  5       -3 -.210156033804D-01 0.100000000000D+01
-.231717680283D-04 0.000000000000D+00 0.000000000000D+00 0.437432431456D-05 0.000000000000D+00  6 -1 2 25 4 -3 21 2 0.25678804D-01 0.27844938D+00 0.29770437D+06 0.29770437D+06 0.29770437D+06 0.10847988D+01  1  2  5  4  6  5       -3 -.420551864636D-03 0.100000000000D+01
0.138666371586D-03 0.000000000000D+00 -.000000000000D+00 0.437432431456D-05 0.000000000000D+00  6 -1 2 25 4 -3 21 2 0.25678804D-01 0.27844938D+00 0.29770437D+06 0.29770437D+06 0.29770437D+06 0.10847988D+01  1  2  6  4  6  5       -3 0.251670054101D-02 0.100000000000D+01
  </mgrwgt>
  </event>
  <event>
  6     66 0.18082911E-05 0.76822399E+02 0.75467711E-02 0.88552884E-01
       -1 -1    0    0    0  501 0.00000000E+00 0.00000000E+00 0.49618413E+03 0.49618423E+03 0.32000000E+00 0.0000E+00 0.9000E+01
        2 -1    0    0  501    0 -.00000000E+00 -.00000000E+00 -.16458042E+04 0.16458043E+04 0.32000000E+00 0.0000E+00 0.9000E+01
       25  1    1    2    0    0 0.65340012E+03 0.58044246E+03 -.70833285E+03 0.11319035E+04 0.12500000E+03 0.0000E+00 0.9000E+01
        4  1    1    2  503    0 -.52431688E+02 -.24131861E+02 -.55951407E+02 0.80401438E+02 0.15500000E+01 0.0000E+00 0.9000E+01
       -3  1    1    2    0  502 -.55962376E+03 -.44850236E+03 -.38550675E+03 0.81421670E+03 0.50000000E+00 0.0000E+00 0.9000E+01
       21  1    1    2  502  503 -.41344670E+02 -.10780824E+03 0.17091372E+00 0.11546683E+03 0.75000000E+00 0.0000E+00 0.9000E+01
#aMCatNLO 2  0  0  0  0 0.00000000D+00 0.00000000D+00  -5  6  0 0.00000000D+00 0.00000000D+00 0.00000000D+00 0.00000000D+00 0.00000000D+00
  <mgrwgt>
 0.8257371857D-02    1    2    0
 0.903671447441116D+03 0.000000000000000D+00 0.000000000000000D+00 0.903671447441116D+03
 0.903671447441116D+03 -.000000000000000D+00 -.000000000000000D+00 -.903671447441116D+03
 0.902511147833725D+03 0.660076751838763D+03 0.589836233444551D+03 -.123665966870761D+03
 0.193964246708782D+03 -.105631724586966D+03 -.148710274699262D+03 0.659493893903409D+02
 0.710867500339726D+03 -.554445027251797D+03 -.441125958745289D+03 0.577165774804201D+02
 0.000000000000000D+00 0.000000000000000D+00 0.000000000000000D+00 0.000000000000000D+00
 0.903671447441116D+03 0.000000000000000D+00 0.000000000000000D+00 0.903671447441116D+03
 0.903671447441116D+03 -.000000000000000D+00 -.000000000000000D+00 -.903671447441116D+03
 0.891127970428159D+03 0.653518495687943D+03 0.580603400433919D+03 -.119571430023017D+03
 0.581787108217160D+02 -.511553081186594D+02 -.232241480374899D+02 -.151174003087376D+02
 0.719791473901307D+03 -.559676084002296D+03 -.448490336155351D+03 0.609824997202637D+02
 0.138244739731050D+03 -.426871035669879D+02 -.108888916241078D+03 0.737063306114914D+02
0.293737846203D-02 0.000000000000D+00 0.000000000000D+00 0.213061743544D-07 0.113814480098D-08  6 -1 2 25 4 -3 21 2 0.76336030D-01 0.25320066D+00 0.78624622D+06 0.78624622D+06 0.78624622D+06 0.10548878D+01  1  2  1  3  6  4        4 0.825737185734D-02 0.100000000000D+01
  </mgrwgt>
  </event>
  <event>
  7     66 0.18082911E-05 0.18386544E+02 0.75467711E-02 0.93341431E-01
       -1 -1    0    0    0  501 0.00000000E+00 0.00000000E+00 0.21694881E+03 0.21694905E+03 0.32000000E+00 0.0000E+00 0.9000E+01
        2 -1    0    0  503    0 0.00000000E+00 0.00000000E+00 -.15231769E+04 0.15231769E+04 0.32000000E+00 0.0000E+00 0.9000E+01
       24  2    1    2    0    0 0.65837469E+02 0.54650052E+03 -.70219033E+03 0.89530892E+03 0.74225469E+02 0.0000E+00 0.0000E+00
       25  1    1    2    0    0 -.75917107E+02 -.51309041E+03 -.48589613E+03 0.72162679E+03 0.12500000E+03 0.0000E+00 0.9000E+01
        4  1    3    3  502    0 -.97507013E+01 0.90972537E+02 -.88502126E+02 0.12730321E+03 0.15500000E+01 0.0000E+00 0.9000E+01
       -3  1    3    3    0  502 0.75588170E+02 0.45552798E+03 -.61368820E+03 0.76800571E+03 0.50000000E+00 0.0000E+00 0.9000E+01
       21  1    1    2  503  501 0.10079638E+02 -.33410109E+02 -.11814164E+03 0.12319028E+03 0.75000000E+00 0.0000E+00 0.9000E+01
#aMCatNLO 2  0  0  0  0 0.00000000D+00 0.00000000D+00  -5  6  0 0.00000000D+00 0.00000000D+00 0.00000000D+00 0.00000000D+00 0.00000000D+00
  <mgrwgt>
 0.4898128641D-03    1    2    0
 0.548113547806527D+03 0.000000000000000D+00 0.000000000000000D+00 0.548113547806527D+03
 0.548113547806527D+03 0.000000000000000D+00 0.000000000000000D+00 -.548113547806527D+03
 0.552727363689548D+03 -.709060693384875D+02 -.529700067686794D+03 0.653659406324804D+02
 0.887975601236124D+02 -.895493338233479D+01 0.880294782115405D+02 0.745833881158844D+01
 0.454702171799895D+03 0.798610027208223D+02 0.441670589475254D+03 -.728242794440689D+02
 0.000000000000000D+00 0.000000000000000D+00 -.000000000000000D+00 -.000000000000000D+00
 0.554844557233822D+03 0.000000000000000D+00 0.000000000000000D+00 0.554844557233822D+03
 0.595569618571631D+03 0.000000000000000D+00 0.000000000000000D+00 -.595569618571631D+03
 0.537515474060283D+03 -.759171071605151D+02 -.513090412597878D+03 0.653659406324804D+02
 0.916077884973051D+02 -.978412298481025D+01 0.907779215060394D+02 0.745833881158844D+01
 0.467659158722379D+03 0.756215916898246D+02 0.455722599758529D+03 -.728242794440689D+02
 0.536317545254857D+02 0.100796384555008D+02 -.334101086666906D+02 -.407250613378086D+02
0.294328069398D-04 0.000000000000D+00 0.000000000000D+00 0.347520091840D-05 0.178959356614D-07  6 -1 2 25 4 -3 21 2 0.33376605D-01 0.23433383D+00 0.31454238D+06 0.31454238D+06 0.31454238D+06 0.10830342D+01  1  2  1  2  6  2        2 0.489812864061D-03 0.100000000000D+01
  </mgrwgt>
  </event>
  <event>
  7     66 0.18082911E-05 0.42726374E+02 0.75467711E-02 0.91071707E-01
       -1 -1    0    0    0  503 0.00000000E+00 0.00000000E+00 0.64873718E+03 0.64873726E+03 0.32000000E+00 0.0000E+00 0.9000E+01
        2 -1    0    0  501    0 0.00000000E+00 0.00000000E+00 -.99940118E+03 0.99940123E+03 0.32000000E+00 0.0000E+00 0.9000E+01
       24  2    1    2    0    0 -.62868437E+03 -.18421837E+03 -.13649277E+03 0.67423225E+03 0.82331063E+02 0.0000E+00 0.0000E+00
       25  1    1    2    0    0 0.65220897E+03 0.14444540E+03 -.39581847E+03 0.78647204E+03 0.12500000E+03 0.0000E+00 0.9000E+01
        4  1    3    3  502    0 -.37476311E+03 -.14780774E+03 -.66271309E+02 0.40827541E+03 0.15500000E+01 0.0000E+00 0.9000E+01
       -3  1    3    3    0  502 -.25392126E+03 -.36410635E+02 -.70221459E+02 0.26595685E+03 0.50000000E+00 0.0000E+00 0.9000E+01
       21  1    1    2  501  503 -.23524592E+02 0.39772967E+02 0.18164724E+03 0.18743419E+03 0.75000000E+00 0.0000E+00 0.9000E+01
#aMCatNLO 2  0  0  1  2 0.93274152D+02 0.00000000D+00  -5  6  0 0.00000000D+00 0.00000000D+00 0.00000000D+00 0.00000000D+00 0.00000000D+00
  <mgrwgt>
 0.5480537212D-03    1    2    0
 0.679736435437024D+03 0.000000000000000D+00 0.000000000000000D+00 0.679736435437024D+03
 0.679736435437024D+03 0.000000000000000D+00 0.000000000000000D+00 -.679736435437024D+03
 0.682990121680562D+03 0.640336158745073D+03 0.164518730540080D+03 -.117276158780522D+03
 0.414811360044992D+03 -.381842077232759D+03 -.135703057229714D+03 0.885989431960468D+02
 0.261671389148494D+03 -.258494081512313D+03 -.288156733103660D+02 0.286772155844751D+02
 0.000000000000000D+00 -.000000000000000D+00 0.000000000000000D+00 0.000000000000000D+00
 0.950512654436996D+03 0.000000000000000D+00 0.000000000000000D+00 0.950512654436996D+03
 0.682103311654803D+03 0.000000000000000D+00 0.000000000000000D+00 -.682103311654803D+03
 0.689651875200165D+03 0.652208967065314D+03 0.144445404317289D+03 -.117276158780522D+03
 0.412413598152904D+03 -.374686909761035D+03 -.147800280309932D+03 0.885989431960468D+02
 0.258192510255881D+03 -.253997465173699D+03 -.364180908874987D+02 0.286772155844751D+02
 0.272357982482849D+03 -.235245921305797D+02 0.397729668801420D+02 0.268409342782194D+03
0.138773370166D-03 0.000000000000D+00 0.000000000000D+00 0.523038735365D-04 0.158221449482D-06  6 -1 2 25 4 -3 21 2 0.99805655D-01 0.15375392D+00 0.47969186D+06 0.47969186D+06 0.47969186D+06 0.10697854D+01  1  2  1  1  6  1       -1 0.548053721222D-03 0.100000000000D+01
  </mgrwgt>
  </event>
  <event>
  6     66 0.18082911E-05 0.30121811E+02 0.75467711E-02 0.90889522E-01
       -1 -1    0    0    0  501 0.00000000E+00 0.00000000E+00 0.26016381E+03 0.26016401E+03 0.32000000E+00 0.0000E+00 0.9000E+01
        2 -1    0    0  501    0 -.00000000E+00 -.00000000E+00 -.20329568E+04 0.20329568E+04 0.32000000E+00 0.0000E+00 0.9000E+01
       25  1    1    2    0    0 -.39799989E+03 -.49882837E+03 -.54958330E+03 0.85141087E+03 0.12500000E+03 0.0000E+00 0.9000E+01
        4  1    1    2  502    0 0.13729593E+03 0.20610008E+03 -.46857447E+03 0.52999231E+03 0.15500000E+01 0.0000E+00 0.9000E+01
       -3  1    1    2    0  503 0.29457736E+03 0.34226205E+03 -.66937619E+03 0.80745518E+03 0.50000000E+00 0.0000E+00 0.9000E+01
       21  1    1    2  503  502 -.33873399E+02 -.49533758E+02 -.85259029E+02 0.10426248E+03 0.75000000E+00 0.0000E+00 0.9000E+01
#aMCatNLO 2  0  0  5  4 0.41642898D+01 0.00000000D+00  -5  6  0 0.00000000D+00 0.00000000D+00 0.00000000D+00 0.00000000D+00 0.00000000D+00
  <mgrwgt>
 0.4510911291D-02    1    2    0
 0.727256523483109D+03 0.000000000000000D+00 0.000000000000000D+00 0.727256523483109D+03
 0.727256523483109D+03 -.000000000000000D+00 -.000000000000000D+00 -.727256523483109D+03
 0.730545489500601D+03 -.436624502593312D+03 -.542197548524738D+03 0.182900449257459D+03
 0.243391393590073D+03 0.123218876749727D+03 0.190307237070137D+03 -.885417099732323D+02
 0.480576163875544D+03 0.313405625843584D+03 0.351890311454601D+03 -.943587392842271D+02
 0.000000000000000D+00 0.000000000000000D+00 -.000000000000000D+00 0.000000000000000D+00
 0.727256523483109D+03 0.000000000000000D+00 0.000000000000000D+00 0.727256523483109D+03
 0.727256523483109D+03 -.000000000000000D+00 -.000000000000000D+00 -.727256523483109D+03
 0.672371704844432D+03 -.397945150110988D+03 -.498768559797330D+03 0.171255045870911D+03
 0.264345661023939D+03 0.137217522274149D+03 0.206024848138133D+03 -.927563584493590D+02
 0.457254334818774D+03 0.294648888799274D+03 0.342347525380135D+03 -.711458425068570D+02
 0.605413462790731D+02 -.339212609624351D+02 -.496038137209374D+02 -.735284491469473D+01
0.741023780378D-03 0.000000000000D+00 0.000000000000D+00 0.392495442699D-04 0.274637245550D-06  6 -1 2 25 4 -3 21 2 0.40025219D-01 0.31276260D+00 0.49668157D+06 0.49668157D+06 0.49668157D+06 0.10687148D+01  1  2  1  4  6  5       -3 0.451091129065D-02 0.100000000000D+01
  </mgrwgt>
  </event>
  <event>
  7     66 0.18082911E-05 0.64657604E+02 0.75467711E-02 0.95211785E-01
       -1 -1    0    0    0  501 0.00000000E+00 0.00000000E+00 0.18890617E+03 0.18890644E+03 0.32000000E+00 0.0000E+00 0.9000E+01
        2 -1    0    0  503    0 0.00000000E+00 0.00000000E+00 -.12580666E+04 0.12580667E+04 0.32000000E+00 0.0000E+00 0.9000E+01
       24  2    1    2    0    0 0.34629961E+03 -.30341876E+03 -.66651278E+03 0.81407398E+03 0.80565465E+02 0.0000E+00 0.0000E+00
       25  1    1    2    0    0 -.35307468E+03 0.29441149E+03 -.38809824E+03 0.61447953E+03 0.12500000E+03 0.0000E+00 0.9000E+01
        4  1    3    3  502    0 0.13653533E+03 -.14674157E+03 -.34973514E+03 0.40310304E+03 0.15500000E+01 0.0000E+00 0.9000E+01
       -3  1    3    3    0  502 0.20976428E+03 -.15667719E+03 -.31677764E+03 0.41097095E+03 0.50000000E+00 0.0000E+00 0.9000E+01
       21  1    1    2  503  501 0.67750642E+01 0.90072721E+01 -.14549442E+02 0.18419588E+02 0.75000000E+00 0.0000E+00 0.9000E+01
#aMCatNLO 2  0  0  0  0 0.00000000D+00 0.00000000D+00  -5  6  0 0.00000000D+00 0.00000000D+00 0.00000000D+00 0.00000000D+00 0.00000000D+00
  <mgrwgt>
 0.6500149616D-02    1    2    0
 0.481776327152699D+03 0.000000000000000D+00 0.000000000000000D+00 0.481776327152699D+03
 0.481776327152699D+03 0.000000000000000D+00 0.000000000000000D+00 -.481776327152699D+03
 0.486516185361305D+03 -.349655000840152D+03 0.298957864360648D+03 0.971523254632099D+02
 0.214349765966906D+03 0.137971426648871D+03 -.144683683225215D+03 -.773067875863966D+02
 0.262686702977186D+03 0.211683574191281D+03 -.154274181135434D+03 -.198455378768133D+02
 0.000000000000000D+00 0.000000000000000D+00 0.000000000000000D+00 -.000000000000000D+00
 0.486783455079921D+03 0.000000000000000D+00 0.000000000000000D+00 0.486783455079921D+03
 0.488193890975078D+03 0.000000000000000D+00 0.000000000000000D+00 -.488193890975078D+03
 0.486213357793368D+03 -.353074678851542D+03 0.294411491127083D+03 0.971523254632099D+02
 0.214746806260828D+03 0.136462916782860D+03 -.146689207971861D+03 -.773067875863966D+02
 0.262658406783867D+03 0.209836697911144D+03 -.156729555254797D+03 -.198455378768133D+02
 0.113587752169356D+02 0.677506415753822D+01 0.900727209957406D+01 -.141043589515683D+01
0.213277786173D-03 0.000000000000D+00 0.000000000000D+00 0.351203375856D-03 0.176441339088D-04  6 -1 2 25 4 -3 21 2 0.29061774D-01 0.19354383D+00 0.22559464D+06 0.22559464D+06 0.22559464D+06 0.10938311D+01  1  2  1  2  6  2        2 0.650014961610D-02 0.100000000000D+01
  </mgrwgt>
  </event>
  <event>
  7     66 0.18082911E-05 0.56238333E+02 0.75467711E-02 0.94580597E-01
       21 -1    0    0  503  501 0.00000000E+00 0.00000000E+00 0.19784378E+03 0.19784520E+03 0.75000000E+00 0.0000E+00 0.9000E+01
        2 -1    0    0  501    0 0.00000000E+00 0.00000000E+00 -.15812479E+04 0.15812479E+04 0.32000000E+00 0.0000E+00 0.9000E+01
       24  2    1    2    0    0 0.44809357E+03 0.19678203E+03 -.40155725E+03 0.63835833E+03 0.82110411E+02 0.0000E+00 0.0000E+00
       25  1    1    2    0    0 -.43524769E+03 -.17771291E+03 -.99959842E+03 0.11116854E+04 0.12500000E+03 0.0000E+00 0.9000E+01
        4  1    3    3  502    0 0.16611032E+03 0.11098223E+03 -.13649558E+03 0.24195690E+03 0.15500000E+01 0.0000E+00 0.9000E+01
        1  1    1    2  503    0 -.12845876E+02 -.19069112E+02 0.17751551E+02 0.29049398E+02 0.32000000E+00 0.0000E+00 0.9000E+01
       -3  1    3    3    0  502 0.28198325E+03 0.85799796E+02 -.26506167E+03 0.39640143E+03 0.50000000E+00 0.0000E+00 0.9000E+01
#aMCatNLO 2  0  0  1  2 0.93274152D+02 0.00000000D+00  -5  6  0 0.00000000D+00 0.00000000D+00 0.00000000D+00 0.00000000D+00 0.00000000D+00
  <mgrwgt>
 0.6276657725D-03    1    2    0
 0.524139105904519D+03 0.000000000000000D+00 0.000000000000000D+00 0.524139105904519D+03
 0.524139105904519D+03 0.000000000000000D+00 0.000000000000000D+00 -.524139105904519D+03
 0.528375996794380D+03 -.441668526491644D+03 -.187244344032233D+03 -.182824129488132D+03
 0.217336244429732D+03 0.163328479175733D+03 0.106966322482164D+03 0.954832806705140D+02
 0.000000000000000D+00 -.000000000000000D+00 -.000000000000000D+00 0.000000000000000D+00
 0.302565970584927D+03 0.278340047315911D+03 0.802780215500686D+02 0.873408488176178D+02
 0.594591354779147D+03 0.000000000000000D+00 0.000000000000000D+00 0.594591354779147D+03
 0.526144435920018D+03 0.000000000000000D+00 0.000000000000000D+00 -.526144435920018D+03
 0.519684612835907D+03 -.435247693781735D+03 -.177712913298372D+03 -.182824129488132D+03
 0.221335798200231D+03 0.166015957146339D+03 0.110955759878045D+03 0.954832806705140D+02
 0.722054587909907D+02 -.128458762405603D+02 -.190691122373710D+02 0.684469188591292D+02
 0.307509920872035D+03 0.282077612875956D+03 0.858262656576985D+02 0.873408488176178D+02
0.320899317542D-05 0.000000000000D+00 0.000000000000D+00 0.535207889418D-04 0.126410709590D-07  6 21 2 25 4 1 -3 2 0.30437596D-01 0.24326886D+00 0.25199551D+06 0.25199551D+06 0.25199551D+06 0.10901994D+01  1  2  1  5  5  1       -1 0.627665772461D-03 0.100000000000D+01
  </mgrwgt>
  </event>
  <event>
  7     66 0.18082911E-05 0.42943792E+02 0.75467711E-02 0.94727169E-01
       -1 -1    0    0    0  501 0.00000000E+00 0.00000000E+00 0.10299835E+03 0.10299885E+03 0.32000000E+00 0.0000E+00 0.9000E+01
        2 -1    0    0  503    0 0.00000000E+00 0.00000000E+00 -.31860881E+04 0.31860881E+04 0.32000000E+00 0.0000E+00 0.9000E+01
       24  2    1    2    0    0 0.28863502E+03 -.38243177E+03 -.74977571E+03 0.89299875E+03 0.75623619E+02 0.0000E+00 0.0000E+00
       25  1    1    2    0    0 -.25326663E+03 0.37650451E+03 -.17660667E+04 0.18277080E+04 0.12500000E+03 0.0000E+00 0.9000E+01
        4  1    3    3  502    0 0.84160107E+02 -.17013401E+03 -.31339093E+03 0.36639430E+03 0.15500000E+01 0.0000E+00 0.9000E+01
       -3  1    3    3    0  502 0.20447491E+03 -.21229776E+03 -.43638477E+03 0.52660445E+03 0.50000000E+00 0.0000E+00 0.9000E+01
       21  1    1    2  503  501 -.35368392E+02 0.59272683E+01 -.56724729E+03 0.56838024E+03 0.75000000E+00 0.0000E+00 0.9000E+01
#aMCatNLO 2  0  0  2  1 0.73193654D+01 0.00000000D+00  -5  6  0 0.00000000D+00 0.00000000D+00 0.00000000D+00 0.00000000D+00 0.00000000D+00
  <mgrwgt>
 0.1027989979D-02    1    2    0
 0.517565385880986D+03 0.000000000000000D+00 0.000000000000000D+00 0.517565385880986D+03
 0.517565385880986D+03 0.000000000000000D+00 0.000000000000000D+00 -.517565385880986D+03
 0.522350321646617D+03 -.270919108379892D+03 0.379462825322827D+03 -.199588725726147D+03
 0.197362462899004D+03 0.772727468659127D+02 -.168911783816430D+03 0.667058741139712D+02
 0.315417987216352D+03 0.193646361513979D+03 -.210551041506397D+03 0.132882851612176D+03
 0.000000000000000D+00 -.000000000000000D+00 0.000000000000000D+00 -.000000000000000D+00
 0.520738681931369D+03 0.000000000000000D+00 0.000000000000000D+00 0.520738681931369D+03
 0.630183907365432D+03 0.000000000000000D+00 0.000000000000000D+00 -.630183907365432D+03
 0.511234081583171D+03 -.253266625814617D+03 0.376504505927459D+03 -.199588725726147D+03
 0.201088334098730D+03 0.840778473735667D+02 -.170052227419462D+03 0.667058741139712D+02
 0.323429374231510D+03 0.204557170418013D+03 -.212379546787770D+03 0.132882851612176D+03
 0.115170799383390D+03 -.353683919769624D+02 0.592726827977318D+01 -.109445225434062D+03
0.161893652948D-03 0.000000000000D+00 0.000000000000D+00 0.118403243966D-04 0.594535613367D-07  6 -1 2 25 4 -3 21 2 0.15845903D-01 0.49016629D+00 0.24556896D+06 0.24556896D+06 0.24556896D+06 0.10910439D+01  1  2  1  2  6  2        2 0.102798997942D-02 0.100000000000D+01
  </mgrwgt>
  </event>
  <event>
  6     66 0.18082911E-05 0.99109239E+01 0.75467711E-02 0.95343677E-01
       -1 -1    0    0    0  501 0.00000000E+00 0.00000000E+00 0.11716715E+03 0.11716759E+03 0.32000000E+00 0.0000E+00 0.9000E+01
        2 -1    0    0  501    0 -.00000000E+00 -.00000000E+00 -.20210520E+04 0.20210521E+04 0.32000000E+00 0.0000E+00 0.9000E+01
       25  1    1    2    0    0 0.14642811E+03 -.42918909E+03 -.70670389E+03 0.84894043E+03 0.12500000E+03 0.0000E+00 0.9000E+01
        4  1    1    2  502    0 -.11714753E+03 0.41350829E+03 -.11137690E+04 0.11938159E+04 0.15500000E+01 0.0000E+00 0.9000E+01
       -3  1    1    2    0  503 -.10589856E+02 0.17151607E+02 -.16757181E+02 0.26217852E+02 0.50000000E+00 0.0000E+00 0.9000E+01
       21  1    1    2  503  502 -.18690717E+02 -.14708034E+01 -.66654791E+02 0.69245432E+02 0.75000000E+00 0.0000E+00 0.9000E+01
#aMCatNLO 2  0  0  5  4 0.16189092D+02 0.00000000D+00  -5  6  0 0.00000000D+00 0.00000000D+00 0.00000000D+00 0.00000000D+00 0.00000000D+00
  <mgrwgt>
 0.6928870579D-02    3    2    0
 0.486622443559462D+03 0.000000000000000D+00 0.000000000000000D+00 0.486622443559462D+03
 0.486622443559462D+03 -.000000000000000D+00 -.000000000000000D+00 -.486622443559462D+03
 0.487029211312279D+03 0.152208631845960D+03 -.432285024024393D+03 0.107399455619065D+03
 0.440234394255837D+03 -.111882436966502D+03 0.410725107178206D+03 -.112220891627592D+03
 0.459812815508093D+02 -.403261948794573D+02 0.215599168461873D+02 0.482143600852677D+01
 0.000000000000000D+00 -.000000000000000D+00 0.000000000000000D+00 0.000000000000000D+00
 0.486622443559462D+03 0.000000000000000D+00 0.000000000000000D+00 0.486622443559462D+03
 0.486622443559462D+03 -.000000000000000D+00 -.000000000000000D+00 -.486622443559462D+03
 0.482647422812413D+03 0.146415462644410D+03 -.429187775532819D+03 0.108092092121847D+03
 0.444075756100510D+03 -.117165598535397D+03 0.413549686200621D+03 -.111589232094544D+03
 0.242347815999023D+02 -.986367202914169D+01 0.167856197843590D+02 0.144317560175962D+02
 0.222869266060998D+02 -.193861920798715D+02 -.114753045216043D+01 -.109346160448994D+02
-.670136629979D-05 0.000000000000D+00 0.000000000000D+00 0.538953017327D-07 0.000000000000D+00  6 -1 2 25 4 -3 21 2 0.18025751D-01 0.31093112D+00 0.22047904D+06 0.22047904D+06 0.22047904D+06 0.10945885D+01  1  2 13  4  6  5       -3 -.171069526995D-03 0.100000000000D+01
-.434997169380D-04 0.000000000000D+00 0.000000000000D+00 0.538953017327D-07 0.000000000000D+00  6 -1 2 25 4 -3 21 2 0.18025751D-01 0.31093112D+00 0.22394595D+06 0.22394595D+06 0.22394595D+06 0.10940732D+01  1  2  8  4  6  5       -3 -.110879775440D-02 0.100000000000D+01
0.321563753791D-03 0.000000000000D+00 0.000000000000D+00 0.538953017327D-07 0.119272884179D-07  6 -1 2 25 4 -3 21 2 0.18025751D-01 0.31093112D+00 0.22047904D+06 0.22047904D+06 0.22047904D+06 0.10945885D+01  1  2  1  4  6  5       -3 0.820873786016D-02 0.100000000000D+01
  </mgrwgt>
  </event>
  <event>
  7     66 0.18082911E-05 0.40434694E+02 0.75467711E-02 0.91555848E-01
       -1 -1    0    0    0  503 0.00000000E+00 0.00000000E+00 0.49945244E+03 0.49945254E+03 0.32000000E+00 0.0000E+00 0.9000E+01
        2 -1    0    0  501    0 0.00000000E+00 0.00000000E+00 -.12276024E+04 0.12276024E+04 0.32000000E+00 0.0000E+00 0.9000E+01
       24  2    1    2    0    0 -.28379959E+03 0.58304242E+03 0.94262132E+02 0.66047680E+03 0.82846762E+02 0.0000E+00 0.0000E+00
       25  1    1    2    0    0 0.29567065E+03 -.55998323E+03 -.81490826E+03 0.10395686E+04 0.12500000E+03 0.0000E+00 0.9000E+01
        4  1    3    3  502    0 -.22754819E+03 0.40046995E+03 0.90419414E+02 0.46939581E+03 0.15500000E+01 0.0000E+00 0.9000E+01
       -3  1    3    3    0  502 -.56251400E+02 0.18257247E+03 0.38427180E+01 0.19108098E+03 0.50000000E+00 0.0000E+00 0.9000E+01
       21  1    1    2  501  503 -.11871069E+02 -.23059186E+02 -.75038185E+01 0.27009593E+02 0.75000000E+00 0.0000E+00 0.9000E+01
#aMCatNLO 2  0  0  1  1 0.33643428D+02 0.00000000D+00  -5  6  0 0.00000000D+00 0.00000000D+00 0.00000000D+00 0.00000000D+00 0.00000000D+00
  <mgrwgt>
 0.3558087629D-02    1    2    0
 0.769764701279915D+03 0.000000000000000D+00 0.000000000000000D+00 0.769764701279915D+03
 0.769764701279915D+03 0.000000000000000D+00 0.000000000000000D+00 -.769764701279915D+03
 0.772610185846842D+03 0.289737566424934D+03 -.571508071070835D+03 -.413197491010463D+03
 0.556364203951925D+03 -.231842564634024D+03 0.392056761980131D+03 0.319502187862045D+03
 0.210555012761062D+03 -.578950017909101D+02 0.179451309090704D+03 0.936953031484186D+02
 0.000000000000000D+00 -.000000000000000D+00 -.000000000000000D+00 0.000000000000000D+00
 0.785201415276576D+03 0.000000000000000D+00 0.000000000000000D+00 0.785201415276576D+03
 0.780845194845841D+03 0.000000000000000D+00 0.000000000000000D+00 -.780845194845841D+03
 0.766393841643770D+03 0.295670654262585D+03 -.559983230231129D+03 -.413197491010463D+03
 0.560527700276986D+03 -.227536781377721D+03 0.400420613666980D+03 0.319502187862045D+03
 0.212826304214141D+03 -.562628042803355D+02 0.182621802608256D+03 0.936953031484186D+02
 0.262987639875204D+02 -.118710686045289D+02 -.230591860441065D+02 0.435622043073493D+01
0.700492630267D-03 0.000000000000D+00 0.000000000000D+00 0.208470073045D-04 0.190244981849D-06  6 -1 2 25 4 -3 21 2 0.76838323D-01 0.18886063D+00 0.43761405D+06 0.43761405D+06 0.43761405D+06 0.10726252D+01  1  2  1  1  6  1       -1 0.355808762904D-02 0.100000000000D+01
  </mgrwgt>
  </event>
  <event>
  7     66 0.18082911E-05 0.46969352E+02 0.75467711E-02 0.93629288E-01
       -1 -1    0    0    0  501 0.00000000E+00 0.00000000E+00 0.34888805E+03 0.34888819E+03 0.32000000E+00 0.0000E+00 0.9000E+01
        2 -1    0    0  503    0 0.00000000E+00 0.00000000E+00 -.96469276E+03 0.96469281E+03 0.32000000E+00 0.0000E+00 0.9000E+01
       24  2    1    2    0    0 0.30832055E+02 0.51890044E+03 -.20504597E+03 0.56450963E+03 0.80118625E+02 0.0000E+00 0.0000E+00
       25  1    1    2    0    0 -.20662601E+02 -.53449733E+03 -.27918520E+03 0.61618481E+03 0.12500000E+03 0.0000E+00 0.9000E+01
        4  1    3    3  502    0 -.24235307E+02 0.17116472E+03 -.84061534E+02 0.19223282E+03 0.15500000E+01 0.0000E+00 0.9000E+01
       -3  1    3    3    0  502 0.55067361E+02 0.34773572E+03 -.12098444E+03 0.37227682E+03 0.50000000E+00 0.0000E+00 0.9000E+01
       21  1    1    2  503  501 -.10169454E+02 0.15596890E+02 -.13157353E+03 0.13288656E+03 0.75000000E+00 0.0000E+00 0.9000E+01
#aMCatNLO 2  0  0  2  1 0.90690242D+01 0.00000000D+00  -5  6  0 0.00000000D+00 0.00000000D+00 0.00000000D+00 0.00000000D+00 0.00000000D+00
  <mgrwgt>
 0.2007553322D-02    1    2    0
 0.538333736416610D+03 0.000000000000000D+00 0.000000000000000D+00 0.538333736416610D+03
 0.538333736416610D+03 0.000000000000000D+00 0.000000000000000D+00 -.538333736416610D+03
 0.542608968225426D+03 -.258225795721664D+02 -.526583470352929D+03 -.290264626499034D+02
 0.175580675588098D+03 -.259022559330955D+02 0.173564709992814D+03 -.573918310039610D+01
 0.358477829019695D+03 0.517248355052619D+02 0.353018760360115D+03 0.347656457502995D+02
 0.000000000000000D+00 -.000000000000000D+00 0.000000000000000D+00 -.000000000000000D+00
 0.539427667597838D+03 0.000000000000000D+00 0.000000000000000D+00 0.539427667597838D+03
 0.623935140037368D+03 0.000000000000000D+00 0.000000000000000D+00 -.623935140037368D+03
 0.550074425608787D+03 -.206626008859456D+02 -.534497329366106D+03 -.290264626499034D+02
 0.172847969569868D+03 -.242568713753828D+02 0.171041183791636D+03 -.573918310039610D+01
 0.353906062764219D+03 0.550889258893149D+02 0.347859255132298D+03 0.347656457502995D+02
 0.865343496923318D+02 -.101694536279866D+02 0.155968904421711D+02 -.845074724395299D+02
0.132358421319D-03 0.000000000000D+00 0.000000000000D+00 0.265416301345D-03 0.485805631065D-05  6 -1 2 25 4 -3 21 2 0.53674938D-01 0.14841384D+00 0.29859362D+06 0.29859362D+06 0.29859362D+06 0.10847029D+01  1  2  1  2  6  2        2 0.200755332168D-02 0.100000000000D+01
  </mgrwgt>
  </event>
  <event>
  6     66 0.18082911E-05 0.31671857E+02 0.75467711E-02 0.91127915E-01
       -1 -1    0    0    0  501 0.00000000E+00 0.00000000E+00 0.14210959E+03 0.14210995E+03 0.32000000E+00 0.0000E+00 0.9000E+01
        2 -1    0    0  501    0 -.00000000E+00 -.00000000E+00 -.34552508E+04 0.34552508E+04 0.32000000E+00 0.0000E+00 0.9000E+01
       25  1    1    2    0    0 0.51571283E+03 0.43988697E+03 -.13453676E+04 0.15116545E+04 0.12500000E+03 0.0000E+00 0.9000E+01
        4  1    1    2  502    0 -.43626098E+03 -.32710409E+03 -.15194672E+04 0.16143431E+04 0.15500000E+01 0.0000E+00 0.9000E+01
       -3  1    1    2    0  503 -.83415285E+02 -.10199497E+03 -.43000293E+03 0.44973754E+03 0.50000000E+00 0.0000E+00 0.9000E+01
       21  1    1    2  503  502 0.39634330E+01 -.10787904E+02 -.18303437E+02 0.21625586E+02 0.75000000E+00 0.0000E+00 0.9000E+01
#aMCatNLO 2  0  0  5  4 0.16189092D+02 0.00000000D+00  -5  6  0 0.00000000D+00 0.00000000D+00 0.00000000D+00 0.00000000D+00 0.00000000D+00
  <mgrwgt>
 0.4407691524D-02    1    2    0
 0.700731711955202D+03 0.000000000000000D+00 0.000000000000000D+00 0.700731711955202D+03
 0.700731711955202D+03 -.000000000000000D+00 -.000000000000000D+00 -.700731711955202D+03
 0.703218240353517D+03 0.517784457268319D+03 0.442827668963733D+03 0.121218005994964D+03
 0.548976340304813D+03 -.434691148073714D+03 -.324822962613139D+03 -.831184152883430D+02
 0.149268843252074D+03 -.830933091946045D+02 -.118004706350594D+03 -.380995907066212D+02
 0.000000000000000D+00 0.000000000000000D+00 -.000000000000000D+00 0.000000000000000D+00
 0.700731711955202D+03 0.000000000000000D+00 0.000000000000000D+00 0.700731711955202D+03
 0.700731711955202D+03 -.000000000000000D+00 -.000000000000000D+00 -.700731711955202D+03
 0.699655202275993D+03 0.515699809469939D+03 0.439867162833017D+03 0.120262162153197D+03
 0.551760295443053D+03 -.436326825344792D+03 -.327145864636524D+03 -.838683990735624D+02
 0.137754246387430D+03 -.833782082959979D+02 -.101874452252753D+03 -.405697271043249D+02
 0.122936798039272D+02 0.400522417085038D+01 -.108468459437394D+02 0.417596402469026D+01
0.192940948023D-02 0.000000000000D+00 0.000000000000D+00 0.939500116756D-06 0.387819502666D-06  6 -1 2 25 4 -3 21 2 0.21863042D-01 0.53157707D+00 0.47458204D+06 0.47458204D+06 0.47458204D+06 0.10701155D+01  1  2  1  4  6  5       -3 0.440769152381D-02 0.100000000000D+01
  </mgrwgt>
  </event>
  <event>
  7     66 0.18082911E-05 0.23439897E+02 0.75467711E-02 0.90949735E-01
       -1 -1    0    0    0  501 0.00000000E+00 0.00000000E+00 0.64802621E+03 0.64802629E+03 0.32000000E+00 0.0000E+00 0.9000E+01
        2 -1    0    0  503    0 0.00000000E+00 0.00000000E+00 -.11137167E+04 0.11137167E+04 0.32000000E+00 0.0000E+00 0.9000E+01
       24  2    1    2    0    0 0.51977046E+03 -.43010768E+03 0.25897511E+03 0.72660256E+03 0.75691629E+02 0.0000E+00 0.0000E+00
       25  1    1    2    0    0 -.54236124E+03 0.40239378E+03 -.62264022E+03 0.92702875E+03 0.12500000E+03 0.0000E+00 0.9000E+01
        4  1    3    3  502    0 0.32874376E+02 -.55523582E+02 0.26480659E+02 0.69765468E+02 0.15500000E+01 0.0000E+00 0.9000E+01
       -3  1    3    3    0  502 0.48689609E+03 -.37458409E+03 0.23249446E+03 0.65683709E+03 0.50000000E+00 0.0000E+00 0.9000E+01
       21  1    1    2  503  501 0.22590777E+02 0.27713895E+02 -.10202536E+03 0.10811170E+03 0.75000000E+00 0.0000E+00 0.9000E+01
#aMCatNLO 2  0  0  2  1 0.90690242D+01 0.00000000D+00  -5  6  0 0.00000000D+00 0.00000000D+00 0.00000000D+00 0.00000000D+00 0.00000000D+00
  <mgrwgt>
 0.4915754097D-03    1    2    0
 0.806375502709461D+03 0.000000000000000D+00 0.000000000000000D+00 0.806375502709461D+03
 0.806375502709461D+03 0.000000000000000D+00 0.000000000000000D+00 -.806375502709461D+03
 0.809443483209424D+03 -.531020884517180D+03 0.416305892439407D+03 -.429278437190858D+03
 0.767101200414107D+02 0.337492509035326D+02 -.540467259795573D+02 0.427127848671646D+02
 0.726597402168087D+03 0.497271633613647D+03 -.362259166459850D+03 0.386565652323694D+03
 0.000000000000000D+00 0.000000000000000D+00 0.000000000000000D+00 -.000000000000000D+00
 0.810377644613536D+03 0.000000000000000D+00 0.000000000000000D+00 0.810377644613536D+03
 0.890590789228995D+03 0.000000000000000D+00 0.000000000000000D+00 -.890590789228995D+03
 0.809926815066544D+03 -.542361239735283D+03 0.402393780716871D+03 -.429278437190858D+03
 0.771849752472071D+02 0.326715325776161D+02 -.553688483881781D+02 0.427127848671646D+02
 0.726035508793446D+03 0.487098930539280D+03 -.374738826838113D+03 0.386565652323694D+03
 0.878211347353338D+02 0.225907766183876D+02 0.277138945094198D+02 -.802131446154589D+02
0.146256445949D-03 0.000000000000D+00 0.000000000000D+00 0.321286069372D-05 0.153781903776D-07  6 -1 2 25 4 -3 21 2 0.99696154D-01 0.17134070D+00 0.49099318D+06 0.49099318D+06 0.49099318D+06 0.10690688D+01  1  2  1  2  6  2        2 0.491575409662D-03 0.100000000000D+01
  </mgrwgt>
  </event>
  <event>
  7     66 0.18082911E-05 0.45729731E+02 0.75467711E-02 0.92755505E-01
       21 -1    0    0  503  501 0.00000000E+00 0.00000000E+00 0.35427105E+03 0.35427184E+03 0.75000000E+00 0.0000E+00 0.9000E+01
        2 -1    0    0  501    0 0.00000000E+00 0.00000000E+00 -.15761340E+04 0.15761341E+04 0.32000000E+00 0.0000E+00 0.9000E+01
       24  2    1    2    0    0 0.11854850E+03 0.56352389E+03 -.67179571E+03 0.88845835E+03 0.80223779E+02 0.0000E+00 0.0000E+00
       25  1    1    2    0    0 -.10624815E+03 -.56608364E+03 -.68658335E+03 0.90485416E+03 0.12500000E+03 0.0000E+00 0.9000E+01
        4  1    3    3  502    0 0.69917630E+02 0.15635588E+03 -.19150927E+03 0.25693159E+03 0.15500000E+01 0.0000E+00 0.9000E+01
        1  1    1    2  503    0 -.12300349E+02 0.25597455E+01 0.13651609E+03 0.13709338E+03 0.32000000E+00 0.0000E+00 0.9000E+01
       -3  1    3    3    0  502 0.48630869E+02 0.40716801E+03 -.48028643E+03 0.63152677E+03 0.50000000E+00 0.0000E+00 0.9000E+01
#aMCatNLO 2  0  0  1  1 0.33643428D+02 0.00000000D+00  -5  6  0 0.00000000D+00 0.00000000D+00 0.00000000D+00 0.00000000D+00 0.00000000D+00
  <mgrwgt>
 0.1963535414D-02    1    2    0
 0.585367033312573D+03 0.000000000000000D+00 0.000000000000000D+00 0.585367033312573D+03
 0.585367033312573D+03 0.000000000000000D+00 0.000000000000000D+00 -.585367033312573D+03
 0.589291556230392D+03 -.112439838915272D+03 -.564795123098324D+03 -.181377878860145D+01
 0.170820155558542D+03 0.681054989272053D+02 0.156583793950903D+03 0.476256578557853D+01
 0.000000000000000D+00 -.000000000000000D+00 0.000000000000000D+00 0.000000000000000D+00
 0.410622354836211D+03 0.443343399880665D+02 0.408211329147421D+03 -.294878699697708D+01
 0.953666582722507D+03 0.000000000000000D+00 0.000000000000000D+00 0.953666582722507D+03
 0.585507898246762D+03 0.000000000000000D+00 0.000000000000000D+00 -.585507898246762D+03
 0.589379030155242D+03 -.106248150299012D+03 -.566083635120534D+03 -.181377878860145D+01
 0.171203182151771D+03 0.699021858311263D+02 0.156209897132227D+03 0.476256578557853D+01
 0.368373000945018D+03 -.123003485080711D+02 0.255974547692842D+01 0.368158684475745D+03
 0.410219267717238D+03 0.486463129759571D+02 0.407313992511378D+03 -.294878699697708D+01
0.351098453112D-04 0.000000000000D+00 0.000000000000D+00 0.222918943926D-03 0.545763787240D-06  6 21 2 25 4 1 -3 2 0.54503295D-01 0.24248219D+00 0.35004127D+06 0.35004127D+06 0.35004127D+06 0.10796296D+01  1  2  1  5  5  1       -1 0.196353541380D-02 0.100000000000D+01
  </mgrwgt>
  </event>
  <event>
  6     66 0.18082911E-05 0.15615395E+02 0.75467711E-02 0.93556522E-01
       -1 -1    0    0    0  501 0.00000000E+00 0.00000000E+00 0.17138903E+03 0.17138933E+03 0.32000000E+00 0.0000E+00 0.9000E+01
        2 -1    0    0  501    0 -.00000000E+00 -.00000000E+00 -.17833192E+04 0.17833192E+04 0.32000000E+00 0.0000E+00 0.9000E+01
       25  1    1    2    0    0 -.18699911E+03 -.49815860E+03 -.76921274E+03 0.94363334E+03 0.12500000E+03 0.0000E+00 0.9000E+01
        4  1    1    2  503    0 -.66235767E+01 0.32832814E+02 -.72932702E+02 0.80271084E+02 0.15500000E+01 0.0000E+00 0.9000E+01
       -3  1    1    2    0  502 0.18270470E+03 0.47272115E+03 -.72840185E+03 0.88736453E+03 0.50000000E+00 0.0000E+00 0.9000E+01
       21  1    1    2  502  503 0.10917990E+02 -.73953717E+01 -.41382837E+02 0.43439564E+02 0.75000000E+00 0.0000E+00 0.9000E+01
#aMCatNLO 2  0  0  4  5 0.16886342D+02 0.00000000D+00  -5  6  0 0.00000000D+00 0.00000000D+00 0.00000000D+00 0.00000000D+00 0.00000000D+00
  <mgrwgt>
 0.7785420298D-02    3    2    0
 0.552848683279495D+03 0.000000000000000D+00 0.000000000000000D+00 0.552848683279495D+03
 0.552848683279495D+03 -.000000000000000D+00 -.000000000000000D+00 -.552848683279495D+03
 0.553710964101500D+03 -.188165473755934D+03 -.505067239836837D+03 0.217179533109427D+02
 0.511479859855466D+02 0.645860873481661D+01 0.384912652884057D+02 -.330579088885821D+02
 0.500838416471943D+03 0.181706865021118D+03 0.466575974548431D+03 0.113399555776392D+02
 0.000000000000000D+00 0.000000000000000D+00 -.000000000000000D+00 0.000000000000000D+00
 0.552848683279495D+03 0.000000000000000D+00 0.000000000000000D+00 0.552848683279495D+03
 0.552848683279495D+03 -.000000000000000D+00 -.000000000000000D+00 -.552848683279495D+03
 0.546657251239343D+03 -.186979461966510D+03 -.497998984691449D+03 0.156474400958870D+02
 0.347547501942322D+02 -.719262117125532D+01 0.322060838124235D+02 -.109053668997169D+02
 0.507172572457138D+03 0.182793331260393D+03 0.473050969699848D+03 0.577895886408007D+01
 0.171127926682765D+02 0.113787518773723D+02 -.725806882082280D+01 -.105210320602503D+02
-.153751525119D-05 0.000000000000D+00 0.000000000000D+00 0.851434503733D-07 0.000000000000D+00  6 -1 2 25 4 -3 21 2 0.26367569D-01 0.27435682D+00 0.30253789D+06 0.30253789D+06 0.30253789D+06 0.10842813D+01  1  2 13  3  6  4        4 -.275659595440D-04 0.100000000000D+01
-.156007838959D-04 0.000000000000D+00 0.000000000000D+00 0.851434503733D-07 0.000000000000D+00  6 -1 2 25 4 -3 21 2 0.26367569D-01 0.27435682D+00 0.29867551D+06 0.29867551D+06 0.29867551D+06 0.10846941D+01  1  2  8  3  6  4        4 -.280050415078D-03 0.100000000000D+01
0.451396124753D-03 0.000000000000D+00 0.000000000000D+00 0.851434503733D-07 0.729530122622D-07  6 -1 2 25 4 -3 21 2 0.26367569D-01 0.27435682D+00 0.30253789D+06 0.30253789D+06 0.30253789D+06 0.10842813D+01  1  2  1  3  6  4        4 0.809303667306D-02 0.100000000000D+01
  </mgrwgt>
  </event>
  <event>
  7     66 0.18082911E-05 0.36841303E+02 0.75467711E-02 0.87276619E-01
       -1 -1    0    0    0  503 0.00000000E+00 0.00000000E+00 0.48390045E+03 0.48390055E+03 0.32000000E+00 0.0000E+00 0.9000E+01
        2 -1    0    0  501    0 0.00000000E+00 0.00000000E+00 -.21981841E+04 0.21981842E+04 0.32000000E+00 0.0000E+00 0.9000E+01
       24  2    1    2    0    0 0.94540544E+03 0.27719069E+03 -.57275252E+03 0.11423226E+04 0.78926269E+02 0.0000E+00 0.0000E+00
       25  1    1    2    0    0 -.96441868E+03 -.25774013E+03 -.11140774E+04 0.15011085E+04 0.12500000E+03 0.0000E+00 0.9000E+01
        4  1    3    3  502    0 0.26388109E+03 0.11124509E+03 -.18342824E+03 0.34008384E+03 0.15500000E+01 0.0000E+00 0.9000E+01
       -3  1    3    3    0  502 0.68152434E+03 0.16594560E+03 -.38932428E+03 0.80223875E+03 0.50000000E+00 0.0000E+00 0.9000E+01
       21  1    1    2  501  503 0.19013243E+02 -.19450565E+02 -.27453799E+02 0.38653608E+02 0.75000000E+00 0.0000E+00 0.9000E+01
#aMCatNLO 2  0  0  1  1 0.33643428D+02 0.00000000D+00  -5  6  0 0.00000000D+00 0.00000000D+00 0.00000000D+00 0.00000000D+00 0.00000000D+00
  <mgrwgt>
 0.3391656470D-03    1    2    0
 0.101754522213113D+04 0.000000000000000D+00 0.000000000000000D+00 0.101754522213113D+04
 0.101754522213113D+04 0.000000000000000D+00 0.000000000000000D+00 -.101754522213113D+04
 0.101985363157568D+04 -.954860762591643D+03 -.267517882542444D+03 -.202858414715824D+03
 0.290839460906207D+03 0.266339165059836D+03 0.108412737900085D+03 0.435628217227699D+02
 0.724397351780379D+03 0.688521597531807D+03 0.159105144642359D+03 0.159295592993055D+03
 0.000000000000000D+00 0.000000000000000D+00 -.000000000000000D+00 -.000000000000000D+00
 0.102954538686719D+04 0.000000000000000D+00 0.000000000000000D+00 0.102954538686719D+04
 0.103316658664312D+04 0.000000000000000D+00 0.000000000000000D+00 -.103316658664312D+04
 0.102630886982604D+04 -.964418678522994D+03 -.257740125666428D+03 -.202858414715824D+03
 0.289413274033120D+03 0.263628722044833D+03 0.111185523622135D+03 0.435628217227699D+02
 0.719550060096126D+03 0.681776713895950D+03 0.166005166867089D+03 0.159295592993055D+03
 0.274397695550258D+02 0.190132425822111D+02 -.194505648227949D+02 -.362119977592626D+01
0.240259693659D-03 0.000000000000D+00 0.000000000000D+00 0.794428946708D-04 0.628200421741D-06  6 -1 2 25 4 -3 21 2 0.74445863D-01 0.33818051D+00 0.10211835D+07 0.10211835D+07 0.10211835D+07 0.10472585D+01  1  2  1  1  6  1       -1 0.339165647043D-03 0.100000000000D+01
  </mgrwgt>
  </event>
  <event>
  7     66 0.18082911E-05 0.88687454E+02 0.75467711E-02 0.92924987E-01
       -1 -1    0    0    0  503 0.00000000E+00 0.00000000E+00 0.92095772E+03 0.92095777E+03 0.32000000E+00 0.0000E+00 0.9000E+01
        2 -1    0    0  501    0 0.00000000E+00 0.00000000E+00 -.51021489E+03 0.51021499E+03 0.32000000E+00 0.0000E+00 0.9000E+01
       24  2    1    2    0    0 0.21414292E+03 0.47510173E+03 -.37142633E+02 0.52817006E+03 0.77493187E+02 0.0000E+00 0.0000E+00
       25  1    1    2    0    0 -.30810881E+03 -.40318955E+03 0.95473787E+02 0.53125615E+03 0.12500000E+03 0.0000E+00 0.9000E+01
        4  1    3    3  502    0 0.11092963E+03 0.31159098E+03 -.49395634E+02 0.33441988E+03 0.15500000E+01 0.0000E+00 0.9000E+01
       -3  1    3    3    0  502 0.10321329E+03 0.16351074E+03 0.12253001E+02 0.19375018E+03 0.50000000E+00 0.0000E+00 0.9000E+01
       21  1    1    2  501  503 0.93965885E+02 -.71912176E+02 0.35241168E+03 0.37174656E+03 0.75000000E+00 0.0000E+00 0.9000E+01
#aMCatNLO 2  0  0  1  1 0.33643428D+02 0.00000000D+00  -5  6  0 0.00000000D+00 0.00000000D+00 0.00000000D+00 0.00000000D+00 0.00000000D+00
  <mgrwgt>
 0.3199447651D-03    1    2    0
 0.525590241995169D+03 0.000000000000000D+00 0.000000000000000D+00 0.525590241995169D+03
 0.525590241995169D+03 0.000000000000000D+00 0.000000000000000D+00 -.525590241995169D+03
 0.530165957661725D+03 -.261016051531576D+03 -.439229677178109D+03 0.663238583938935D+02
 0.328320627403153D+03 0.140562334331560D+03 0.288832506486435D+03 -.679150038093692D+02
 0.192693898925460D+03 0.120453717200016D+03 0.150397170691674D+03 0.159114541547563D+01
 0.000000000000000D+00 0.000000000000000D+00 -.000000000000000D+00 0.000000000000000D+00
 0.871572064767854D+03 0.000000000000000D+00 0.000000000000000D+00 0.871572064767854D+03
 0.539124400422106D+03 0.000000000000000D+00 0.000000000000000D+00 -.539124400422106D+03
 0.526798541778324D+03 -.308108807111614D+03 -.403189548981336D+03 0.663238583938935D+02
 0.337588418982411D+03 0.110892944322165D+03 0.311538517342846D+03 -.679150038093692D+02
 0.193432191317022D+03 0.103249978001114D+03 0.163563207772229D+03 0.159114541547563D+01
 0.352877313112203D+03 0.939658847883348D+02 -.719121761337387D+02 0.332447664345748D+03
0.799649137138D-04 0.000000000000D+00 0.000000000000D+00 0.368082073425D-04 0.186798534604D-07  6 -1 2 25 4 -3 21 2 0.14168571D+00 0.78494553D-01 0.33933213D+06 0.33933213D+06 0.33933213D+06 0.10806155D+01  1  2  1  1  6  1       -1 0.319944765051D-03 0.100000000000D+01
  </mgrwgt>
  </event>
  <event>
  7     66 0.18082911E-05 0.93473010E+02 0.75467711E-02 0.94414433E-01
       -1 -1    0    0    0  501 0.00000000E+00 0.00000000E+00 0.74958516E+03 0.74958523E+03 0.32000000E+00 0.0000E+00 0.9000E+01
        2 -1    0    0  503    0 0.00000000E+00 0.00000000E+00 -.93932078E+03 0.93932083E+03 0.32000000E+00 0.0000E+00 0.9000E+01
       24  2    1    2    0    0 0.39362107E+03 0.14679362E+03 0.27257507E+03 0.50780355E+03 0.84150807E+02 0.0000E+00 0.0000E+00
       25  1    1    2    0    0 -.47359880E+03 -.84295701E+02 0.18166421E+03 0.52917716E+03 0.12500000E+03 0.0000E+00 0.9000E+01
        4  1    3    3  502    0 0.37785691E+03 0.14370255E+03 0.23662157E+03 0.46842121E+03 0.15500000E+01 0.0000E+00 0.9000E+01
       -3  1    3    3    0  502 0.15764160E+02 0.30910774E+01 0.35953508E+02 0.39382335E+02 0.50000000E+00 0.0000E+00 0.9000E+01
       21  1    1    2  503  501 0.79977731E+02 -.62497924E+02 -.64397490E+03 0.65192535E+03 0.75000000E+00 0.0000E+00 0.9000E+01
#aMCatNLO 2  0  0  2  4 0.50060690D+02 0.00000000D+00  -5  6  0 0.00000000D+00 0.00000000D+00 0.00000000D+00 0.00000000D+00 0.00000000D+00
  <mgrwgt>
 0.3620190008D-02    1    2    0
 0.463328511983769D+03 0.000000000000000D+00 0.000000000000000D+00 0.463328511983769D+03
 0.463328511983769D+03 0.000000000000000D+00 0.000000000000000D+00 -.463328511983769D+03
 0.467938440203827D+03 -.431947122986423D+03 -.116844052702386D+03 -.557721625206028D+02
 0.431125433895463D+03 0.413872871098836D+03 0.115568452666856D+03 0.349616799960422D+02
 0.275931498682486D+02 0.180742518875870D+02 0.127560003552931D+01 0.208104825245606D+02
 0.000000000000000D+00 0.000000000000000D+00 -.000000000000000D+00 -.000000000000000D+00
 0.468584564916778D+03 0.000000000000000D+00 0.000000000000000D+00 0.468584564916778D+03
 0.150261162502606D+04 0.000000000000000D+00 0.000000000000000D+00 -.150261162502606D+04
 0.500137103601123D+03 -.473598799671531D+03 -.842957011714197D+02 -.557721625206028D+02
 0.405777999679687D+03 0.377864905134816D+03 0.143706574043637D+03 0.349616799960422D+02
 0.262842681023755D+02 0.157561633785843D+02 0.308705075434013D+01 0.208104825245606D+02
 0.103899681855965D+04 0.799777311581308D+02 -.624979236265572D+02 -.103402706010928D+04
0.110027825853D-02 0.000000000000D+00 0.000000000000D+00 0.704470076825D-05 0.792244389202D-08  6 -1 2 25 4 -3 21 2 0.11532077D+00 0.14451086D+00 0.25951045D+06 0.25951045D+06 0.25951045D+06 0.10892414D+01  1  2  1  2  6  2        2 0.362019000823D-02 0.100000000000D+01
  </mgrwgt>
  </event>
  <event>
  7     66 0.18082911E-05 0.57195078E+02 0.75467711E-02 0.92111063E-01
       -1 -1    0    0    0  501 0.00000000E+00 0.00000000E+00 0.44422433E+03 0.44422445E+03 0.32000000E+00 0.0000E+00 0.9000E+01
        2 -1    0    0  503    0 0.00000000E+00 0.00000000E+00 -.18057971E+04 0.18057971E+04 0.32000000E+00 0.0000E+00 0.9000E+01
       24  2    1    2    0    0 0.14949502E+03 -.52544242E+03 -.28310999E+03 0.62030657E+03 0.78679606E+02 0.0000E+00 0.0000E+00
       25  1    1    2    0    0 -.14377637E+03 0.60225773E+03 -.89763241E+02 0.63801916E+03 0.12500000E+03 0.0000E+00 0.9000E+01
        4  1    3    3  502    0 0.42913846E+02 -.10310533E+03 -.26611173E+02 0.11481665E+03 0.15500000E+01 0.0000E+00 0.9000E+01
       -3  1    3    3    0  502 0.10658117E+03 -.42233710E+03 -.25649882E+03 0.50548992E+03 0.50000000E+00 0.0000E+00 0.9000E+01
       21  1    1    2  503  501 -.57186454E+01 -.76815305E+02 -.98869954E+03 0.99169584E+03 0.75000000E+00 0.0000E+00 0.9000E+01
#aMCatNLO 2  0  0  2  4 0.50060690D+02 0.00000000D+00  -5  6  0 0.00000000D+00 0.00000000D+00 0.00000000D+00 0.00000000D+00 0.00000000D+00
  <mgrwgt>
 0.5109895000D-03    1    2    0
 0.599669892660315D+03 0.000000000000000D+00 0.000000000000000D+00 0.599669892660315D+03
 0.599669892660315D+03 0.000000000000000D+00 0.000000000000000D+00 -.599669892660315D+03
 0.603603106478222D+03 -.146738581697589D+03 0.562468066425840D+03 0.103967172909131D+03
 0.118408781454979D+03 0.423259509941638D+02 -.110309788824347D+03 0.780409428573245D+01
 0.477327897387429D+03 0.104412630703426D+03 -.452158277601493D+03 -.111771267194863D+03
 0.000000000000000D+00 -.000000000000000D+00 -.000000000000000D+00 -.000000000000000D+00
 0.602938626402615D+03 0.000000000000000D+00 0.000000000000000D+00 0.602938626402615D+03
 0.133044828528748D+04 0.000000000000000D+00 0.000000000000000D+00 -.133044828528748D+04
 0.640171997599433D+03 -.143776373187858D+03 0.602257725546694D+03 0.103967172909131D+03
 0.111789437692325D+03 0.428741973141356D+02 -.102945508384845D+03 0.780409428573245D+01
 0.449849371194559D+03 0.106620821224380D+03 -.422496912503788D+03 -.111771267194863D+03
 0.731576105203773D+03 -.571864535065694D+01 -.768153046580606D+02 -.727509658884860D+03
0.165170032939D-03 0.000000000000D+00 0.000000000000D+00 0.343601795926D-04 0.470519711701D-07  6 -1 2 25 4 -3 21 2 0.68342194D-01 0.27781486D+00 0.39435913D+06 0.39435913D+06 0.39435913D+06 0.10758726D+01  1  2  1  2  6  2        2 0.510989500016D-03 0.100000000000D+01
  </mgrwgt>
  </event>
  <event>
  7     66 0.18082911E-05 0.56091404E+02 0.75467711E-02 0.93208984E-01
       -1 -1    0    0    0  503 0.00000000E+00 0.00000000E+00 0.30929882E+03 0.30929899E+03 0.32000000E+00 0.0000E+00 0.9000E+01
        2 -1    0    0  501    0 0.00000000E+00 0.00000000E+00 -.17131087E+04 0.17131087E+04 0.32000000E+00 0.0000E+00 0.9000E+01
       24  2    1    2    0    0 -.47383222E+03 0.29276381E+03 -.65475145E+03 0.86376935E+03 0.84678292E+02 0.0000E+00 0.0000E+00
       25  1    1    2    0    0 0.47511584E+03 -.28007406E+03 -.86966256E+03 0.10373594E+04 0.12500000E+03 0.0000E+00 0.9000E+01
        4  1    3    3  502    0 -.16869368E+03 0.10265013E+03 -.29638806E+03 0.35615010E+03 0.15500000E+01 0.0000E+00 0.9000E+01
       -3  1    3    3    0  502 -.30513853E+03 0.19011369E+03 -.35836339E+03 0.50761925E+03 0.50000000E+00 0.0000E+00 0.9000E+01
       21  1    1    2  501  503 -.12836214E+01 -.12689757E+02 0.12060412E+03 0.12127899E+03 0.75000000E+00 0.0000E+00 0.9000E+01
#aMCatNLO 2  0  0  1  2 0.97180530D+02 0.00000000D+00  -5  6  0 0.00000000D+00 0.00000000D+00 0.00000000D+00 0.00000000D+00 0.00000000D+00
  <mgrwgt>
 0.1128722977D-02    1    2    0
 0.567954607706609D+03 0.000000000000000D+00 0.000000000000000D+00 0.567954607706609D+03
 0.567954607706609D+03 0.000000000000000D+00 0.000000000000000D+00 -.567954607706609D+03
 0.571676114951659D+03 0.474471327447593D+03 -.286445631164065D+03 -.633596103473000D+02
 0.197243881821382D+03 -.168820706887683D+03 0.100381283364560D+03 -.181194865267764D+02
 0.366989218640178D+03 -.305650620559910D+03 0.186064347799505D+03 0.814790968740764D+02
 0.000000000000000D+00 -.000000000000000D+00 -.000000000000000D+00 0.000000000000000D+00
 0.932688241271172D+03 0.000000000000000D+00 0.000000000000000D+00 0.932688241271172D+03
 0.568101925309732D+03 0.000000000000000D+00 0.000000000000000D+00 -.568101925309732D+03
 0.569048308791397D+03 0.475115838521383D+03 -.280074057172582D+03 -.633596103473000D+02
 0.198186946404383D+03 -.168597287854651D+03 0.102589982265112D+03 -.181194865267764D+02
 0.368745564744002D+03 -.305234929262877D+03 0.190173831661574D+03 0.814790968740764D+02
 0.364809346641121D+03 -.128362140385507D+01 -.126897567541037D+02 0.364586315961440D+03
0.161008054926D-03 0.000000000000D+00 0.000000000000D+00 0.182100153678D-04 0.787225706308D-06  6 -1 2 25 4 -3 21 2 0.47584417D-01 0.26355502D+00 0.32219950D+06 0.32219950D+06 0.32219950D+06 0.10822655D+01  1  2  1  1  6  1       -1 0.112872297738D-02 0.100000000000D+01
  </mgrwgt>
  </event>
  <event>
  6     66 -.18082911E-05 0.13588362E+02 0.75467711E-02 0.91553515E-01
       -1 -1    0    0    0  501 0.00000000E+00 0.00000000E+00 0.34737525E+03 0.34737540E+03 0.32000000E+00 0.0000E+00 0.9000E+01
        2 -1    0    0  501    0 -.00000000E+00 -.00000000E+00 -.12949624E+04 0.12949624E+04 0.32000000E+00 0.0000E+00 0.9000E+01
       24  2    1    2    0    0 -.48277111E+03 0.44141688E+03 -.34340797E+03 0.74313024E+03 0.79979436E+02 0.0000E+00 0.0000E+00
       25  1    1    2    0    0 0.48277111E+03 -.44141688E+03 -.60417914E+03 0.89920757E+03 0.12500000E+03 0.0000E+00 0.9000E+01
        4  1    3    3  502    0 -.17939049E+02 0.69740546E+00 -.50833173E+01 0.18722673E+02 0.15500000E+01 0.0000E+00 0.9000E+01
       -3  1    3    3    0  502 -.46483206E+03 0.44071947E+03 -.33832465E+03 0.72440757E+03 0.50000000E+00 0.0000E+00 0.9000E+01
#aMCatNLO 1  0  0  4  5 0.23618250D+01 0.00000000D+00  -5  6  0 0.00000000D+00 0.00000000D+00 0.00000000D+00 0.00000000D+00 0.00000000D+00
  <mgrwgt>
 -.8258180263D-02    7    2    0
 0.670699659546084D+03 0.000000000000000D+00 0.000000000000000D+00 0.670699659546084D+03
 0.670699659546084D+03 -.000000000000000D+00 -.000000000000000D+00 -.670699659546084D+03
 0.674139459214556D+03 0.482771113087222D+03 -.441416880171350D+03 -.104509333259812D+03
 0.190893957410637D+02 -.177650882868068D+02 0.531830566110493D+00 0.696590440430050D+01
 0.648170464136549D+03 -.465006024800415D+03 0.440885049605240D+03 0.975434288555114D+02
 0.000000000000000D+00 0.000000000000000D+00 0.000000000000000D+00 0.000000000000000D+00
 0.670699659546084D+03 0.000000000000000D+00 0.000000000000000D+00 0.670699659546084D+03
 0.670699659546084D+03 -.000000000000000D+00 -.000000000000000D+00 -.670699659546084D+03
 0.673417036294246D+03 0.481863739081873D+03 -.441389716262951D+03 -.104153541018413D+03
 0.166554153211928D+02 -.161879903073092D+02 0.795733884655423D+00 0.383648757546504D+01
 0.648866647553060D+03 -.465879381697170D+03 0.440911195148978D+03 0.978858825802222D+02
 0.246021992366982D+01 0.203632922606416D+00 -.317212770683129D+00 0.243117086272607D+01
0.125385068392D-04 0.000000000000D+00 0.000000000000D+00 0.198135466285D-04 0.000000000000D+00  6 -1 2 25 4 -3 21 0 0.53442361D-01 0.19922499D+00 0.43860894D+06 0.43860894D+06 0.43860894D+06 0.10725546D+01  1  2  2  3  6  4        4 0.102129261918D-03 0.100000000000D+01
0.607064796541D-05 0.000000000000D+00 -.481511677271D-07 0.198135466285D-04 0.000000000000D+00  6 -1 2 25 4 -3 21 2 0.53442361D-01 0.19922499D+00 0.43860894D+06 0.43860894D+06 0.43860894D+06 0.10725546D+01  1  2  3  3  6  4        4 0.568824463831D-04 0.100000000000D+01
-.382584059674D-05 0.000000000000D+00 0.000000000000D+00 0.198135466285D-04 0.000000000000D+00  6 -1 2 25 4 -3 21 2 0.53442361D-01 0.19922499D+00 0.43860894D+06 0.43860894D+06 0.43860894D+06 0.10725546D+01  1  2 15  3  6  4        4 -.358484257124D-04 0.100000000000D+01
-.929304880660D-03 0.000000000000D+00 0.000000000000D+00 0.198135466285D-04 0.000000000000D+00  6 -1 2 25 4 -3 21 2 0.53442361D-01 0.19922499D+00 0.43860894D+06 0.43860894D+06 0.43860894D+06 0.10725546D+01  1  2  4  3  6  4        4 -.870765943749D-02 0.100000000000D+01
-.376230485446D-04 0.000000000000D+00 0.000000000000D+00 0.198135466285D-04 0.000000000000D+00  6 -1 2 25 4 -3 21 2 0.53442361D-01 0.19922499D+00 0.43860894D+06 0.43860894D+06 0.43860894D+06 0.10725546D+01  1  2  5  3  6  4        4 -.352530908365D-03 0.100000000000D+01
0.585836170585D-04 0.000000000000D+00 -.000000000000D+00 0.198135466285D-04 0.000000000000D+00  6 -1 2 25 4 -3 21 2 0.53442361D-01 0.19922499D+00 0.43860894D+06 0.43860894D+06 0.43860894D+06 0.10725546D+01  1  2  6  3  6  4        4 0.548933075224D-03 0.100000000000D+01
0.138622690687D-04 0.000000000000D+00 0.000000000000D+00 0.198135466285D-04 0.149336297322D-04  6 -1 2 25 4 -3 21 2 0.53442361D-01 0.19922499D+00 0.43780662D+06 0.43780662D+06 0.43780662D+06 0.10726115D+01  1  2 11  3  6  4        4 0.129913724901D-03 0.100000000000D+01
  </mgrwgt>
  </event>
  <event>
  7     66 0.18082911E-05 0.72182909E+02 0.75467711E-02 0.92462158E-01
       21 -1    0    0  503  501 0.00000000E+00 0.00000000E+00 0.41392157E+03 0.41392225E+03 0.75000000E+00 0.0000E+00 0.9000E+01
        2 -1    0    0  501    0 0.00000000E+00 0.00000000E+00 -.10712813E+04 0.10712813E+04 0.32000000E+00 0.0000E+00 0.9000E+01
       24  2    1    2    0    0 -.14775158E+03 0.57316720E+03 -.96295774E+02 0.60764024E+03 0.97992948E+02 0.0000E+00 0.0000E+00
       25  1    1    2    0    0 0.17247640E+03 -.54823074E+03 -.58923476E+03 0.83254289E+03 0.12500000E+03 0.0000E+00 0.9000E+01
        4  1    3    3  502    0 -.92106689E+02 0.30760525E+03 -.99908148E+02 0.33628660E+03 0.15500000E+01 0.0000E+00 0.9000E+01
        1  1    1    2  503    0 -.24724818E+02 -.24936455E+02 0.28170820E+02 0.45020450E+02 0.32000000E+00 0.0000E+00 0.9000E+01
       -3  1    3    3    0  502 -.55644895E+02 0.26556195E+03 0.36123747E+01 0.27135365E+03 0.50000000E+00 0.0000E+00 0.9000E+01
#aMCatNLO 2  0  0  1  2 0.97180530D+02 0.00000000D+00  -5  6  0 0.00000000D+00 0.00000000D+00 0.00000000D+00 0.00000000D+00 0.00000000D+00
  <mgrwgt>
 0.7661408040D-04    1    2    0
 0.633036766112308D+03 0.000000000000000D+00 0.000000000000000D+00 0.633036766112308D+03
 0.633036766112308D+03 0.000000000000000D+00 0.000000000000000D+00 -.633036766112308D+03
 0.635415146598901D+03 0.160144823602032D+03 -.560667889978194D+03 -.219391342464046D+03
 0.324107956243290D+03 -.984636890463941D+02 0.301123729933559D+03 0.683766664182950D+02
 0.000000000000000D+00 -.000000000000000D+00 -.000000000000000D+00 0.000000000000000D+00
 0.306550429382425D+03 -.616811345556383D+02 0.259544160044636D+03 0.151014676045751D+03
 0.694699562740916D+03 0.000000000000000D+00 0.000000000000000D+00 0.694699562740916D+03
 0.638299577558411D+03 0.000000000000000D+00 0.000000000000000D+00 -.638299577558411D+03
 0.627744080862841D+03 0.172476404965950D+03 -.548230754007999D+03 -.219391342464046D+03
 0.328240631036853D+03 -.920951414343509D+02 0.307546790386730D+03 0.683766664182950D+02
 0.664387065275374D+02 -.247248178517162D+02 -.249364548134824D+02 0.563999851825056D+02
 0.310575721872095D+03 -.556564456798830D+02 0.265620418434751D+03 0.151014676045751D+03
0.101029679332D-05 0.000000000000D+00 0.000000000000D+00 0.937823270303D-06 0.721626941296D-10  6 21 2 25 4 1 -3 2 0.63680259D-01 0.16481246D+00 0.36948336D+06 0.36948336D+06 0.36948336D+06 0.10779210D+01  1  2  1  5  5  1       -1 0.766140804017D-04 0.100000000000D+01
  </mgrwgt>
  </event>
  <event>
  7     66 0.18082911E-05 0.53182749E+02 0.75467711E-02 0.92915659E-01
       -1 -1    0    0    0  501 0.00000000E+00 0.00000000E+00 0.10881159E+04 0.10881160E+04 0.32000000E+00 0.0000E+00 0.9000E+01
        2 -1    0    0  503    0 0.00000000E+00 0.00000000E+00 -.32986142E+03 0.32986158E+03 0.32000000E+00 0.0000E+00 0.9000E+01
       24  2    1    2    0    0 0.56592389E+03 -.10931484E+02 0.52655669E+03 0.77717596E+03 0.79694285E+02 0.0000E+00 0.0000E+00
       25  1    1    2    0    0 -.52735154E+03 0.47083253E+02 0.21896559E+03 0.58641915E+03 0.12500000E+03 0.0000E+00 0.9000E+01
        4  1    3    3  502    0 0.28208239E+03 -.35289274E+02 0.29888135E+03 0.41249033E+03 0.15500000E+01 0.0000E+00 0.9000E+01
       -3  1    3    3    0  502 0.28384150E+03 0.24357790E+02 0.22767533E+03 0.36468563E+03 0.50000000E+00 0.0000E+00 0.9000E+01
       21  1    1    2  503  501 -.38572349E+02 -.36151770E+02 0.12732206E+02 0.54382425E+02 0.75000000E+00 0.0000E+00 0.9000E+01
#aMCatNLO 2  0  0  2  1 0.59099483D+01 0.00000000D+00  -5  6  0 0.00000000D+00 0.00000000D+00 0.00000000D+00 0.00000000D+00 0.00000000D+00
  <mgrwgt>
 0.1186008325D-02    1    2    0
 0.570261642711573D+03 0.000000000000000D+00 0.000000000000000D+00 0.570261642711573D+03
 0.570261642711573D+03 0.000000000000000D+00 0.000000000000000D+00 -.570261642711573D+03
 0.574327241872318D+03 -.546478476904853D+03 0.291566167072833D+02 -.121399945381376D+03
 0.289284580566289D+03 0.272070897160684D+03 -.445928510169069D+02 0.876040701667367D+02
 0.276911462984539D+03 0.274407579744169D+03 0.154362343096236D+02 0.337958752146393D+02
 0.000000000000000D+00 -.000000000000000D+00 -.000000000000000D+00 -.000000000000000D+00
 0.589037355513868D+03 0.000000000000000D+00 0.000000000000000D+00 0.589037355513868D+03
 0.609340997410964D+03 0.000000000000000D+00 0.000000000000000D+00 -.609340997410964D+03
 0.557386248348456D+03 -.527351543434245D+03 0.470832533591770D+02 -.121399945381376D+03
 0.297383099449561D+03 0.281986086633975D+03 -.352998820579507D+02 0.876040701667367D+02
 0.286978497028333D+03 0.283937806116045D+03 0.243683982470082D+02 0.337958752146393D+02
 0.566305080984827D+02 -.385723493157747D+02 -.361517695482345D+02 -.203036418970961D+02
0.297503565045D-03 0.000000000000D+00 0.000000000000D+00 0.150624589708D-03 0.336161357906D-06  6 -1 2 25 4 -3 21 2 0.16740176D+00 0.50747715D-01 0.33991187D+06 0.33991187D+06 0.33991187D+06 0.10805612D+01  1  2  1  2  6  2        2 0.118600832466D-02 0.100000000000D+01
  </mgrwgt>
  </event>
  <event>
  7     66 0.18082911E-05 0.49301907E+02 0.75467711E-02 0.92030819E-01
       -1 -1    0    0    0  501 0.00000000E+00 0.00000000E+00 0.11777798E+04 0.11777799E+04 0.32000000E+00 0.0000E+00 0.9000E+01
        2 -1    0    0  503    0 0.00000000E+00 0.00000000E+00 -.58797984E+03 0.58797992E+03 0.32000000E+00 0.0000E+00 0.9000E+01
       24  2    1    2    0    0 -.21204205E+03 -.58712693E+03 0.30569193E+03 0.69966240E+03 0.80000398E+02 0.0000E+00 0.0000E+00
       25  1    1    2    0    0 0.18298184E+03 0.54272817E+03 0.54465914E+03 0.80019673E+03 0.12500000E+03 0.0000E+00 0.9000E+01
        4  1    3    3  502    0 -.13430476E+03 -.30104590E+03 0.19629099E+03 0.38366516E+03 0.15500000E+01 0.0000E+00 0.9000E+01
       -3  1    3    3    0  502 -.77737289E+02 -.28608103E+03 0.10940094E+03 0.31599724E+03 0.50000000E+00 0.0000E+00 0.9000E+01
       21  1    1    2  503  501 0.29060204E+02 0.44398756E+02 -.26055107E+03 0.26590067E+03 0.75000000E+00 0.0000E+00 0.9000E+01
#aMCatNLO 2  0  0  2  1 0.14986038D+02 0.00000000D+00  -5  6  0 0.00000000D+00 0.00000000D+00 0.00000000D+00 0.00000000D+00 0.00000000D+00
  <mgrwgt>
 0.2885488553D-02    1    2    0
 0.617184074564904D+03 0.000000000000000D+00 0.000000000000000D+00 0.617184074564904D+03
 0.617184074564904D+03 0.000000000000000D+00 0.000000000000000D+00 -.617184074564904D+03
 0.620920778409614D+03 0.197306316673421D+03 0.564613387476405D+03 0.110451587331227D+03
 0.316871683890283D+03 -.126663314654140D+03 -.289312063791199D+03 -.257409890479525D+02
 0.296575686829911D+03 -.706430020192807D+02 -.275301323685206D+03 -.847105982832747D+02
 0.000000000000000D+00 0.000000000000000D+00 0.000000000000000D+00 -.000000000000000D+00
 0.619159958572820D+03 0.000000000000000D+00 0.000000000000000D+00 0.619159958572820D+03
 0.111846749095908D+04 0.000000000000000D+00 0.000000000000000D+00 -.111846749095908D+04
 0.596540675482957D+03 0.182981843180029D+03 0.542728172686949D+03 0.110451587331227D+03
 0.330552531246564D+03 -.134280813326527D+03 -.300950229388034D+03 -.257409890479525D+02
 0.308414977205968D+03 -.777612337325095D+02 -.286176699316778D+03 -.847105982832747D+02
 0.502119265596411D+03 0.290602038790073D+02 0.443987560178629D+02 -.499307532386260D+03
0.183320166110D-02 0.000000000000D+00 0.000000000000D+00 0.190858997919D-03 0.497406587674D-06  6 -1 2 25 4 -3 21 2 0.18119683D+00 0.90458406D-01 0.40030422D+06 0.40030422D+06 0.40030422D+06 0.10754038D+01  1  2  1  2  6  2        2 0.288548855255D-02 0.100000000000D+01
  </mgrwgt>
  </event>
  <event>
  7     66 0.18082911E-05 0.45545584E+02 0.75467711E-02 0.87430260E-01
       21 -1    0    0  503  501 0.00000000E+00 0.00000000E+00 0.14319316E+04 0.14319318E+04 0.75000000E+00 0.0000E+00 0.9000E+01
        2 -1    0    0  501    0 0.00000000E+00 0.00000000E+00 -.81281493E+03 0.81281499E+03 0.32000000E+00 0.0000E+00 0.9000E+01
       24  2    1    2    0    0 -.69715288E+03 -.59709360E+03 -.68164046E+00 0.92156479E+03 0.82087098E+02 0.0000E+00 0.0000E+00
       25  1    1    2    0    0 0.75673284E+03 0.63621535E+03 0.36930364E+03 0.10627440E+04 0.12500000E+03 0.0000E+00 0.9000E+01
        4  1    3    3  502    0 -.47889066E+03 -.45703514E+03 0.91078009E+01 0.66204437E+03 0.15500000E+01 0.0000E+00 0.9000E+01
        1  1    1    2  503    0 -.59579959E+02 -.39121745E+02 0.25049470E+03 0.26043805E+03 0.32000000E+00 0.0000E+00 0.9000E+01
       -3  1    3    3    0  502 -.21826222E+03 -.14005846E+03 -.97894413E+01 0.25952043E+03 0.50000000E+00 0.0000E+00 0.9000E+01
#aMCatNLO 2  0  0  1  5 0.64090263D+02 0.00000000D+00  -5  6  0 0.00000000D+00 0.00000000D+00 0.00000000D+00 0.00000000D+00 0.00000000D+00
  <mgrwgt>
 0.1079970376D-03    1    2    0
 0.974232878227524D+03 0.000000000000000D+00 0.000000000000000D+00 0.974232878227524D+03
 0.974232878227524D+03 0.000000000000000D+00 0.000000000000000D+00 -.974232878227524D+03
 0.976513315625033D+03 0.726344564125714D+03 0.616261615807063D+03 0.174924128241045D+03
 0.696247394982281D+03 -.499742354155926D+03 -.470733359058978D+03 -.115879761612447D+03
 0.000000000000000D+00 -.000000000000000D+00 -.000000000000000D+00 0.000000000000000D+00
 0.275705045847734D+03 -.226602209969789D+03 -.145528256748085D+03 -.590443666285973D+02
 0.118657796468349D+04 0.000000000000000D+00 0.000000000000000D+00 0.118657796468349D+04
 0.980884065280849D+03 0.000000000000000D+00 0.000000000000000D+00 -.980884065280849D+03
 0.101174997666781D+04 0.756732843507432D+03 0.636215347349924D+03 0.174924128241045D+03
 0.671980521687761D+03 -.478830590431873D+03 -.457002153214907D+03 -.115879761612447D+03
 0.217693047090233D+03 -.595799594618291D+02 -.391217449827429D+02 0.205693899402638D+03
 0.266038484518530D+03 -.218322293613729D+03 -.140091449152274D+03 -.590443666285973D+02
0.369264995175D-04 0.000000000000D+00 0.000000000000D+00 0.580738507093D-04 0.191923324982D-08  6 21 2 25 4 1 -3 2 0.22029717D+00 0.12504846D+00 0.98913676D+06 0.98913676D+06 0.98913676D+06 0.10481799D+01  1  2  1  5  5  1       -1 0.107997037561D-03 0.100000000000D+01
  </mgrwgt>
  </event>
  <event>
  6     66 -.18082911E-05 0.15158643E+02 0.75467711E-02 0.95425586E-01
       -1 -1    0    0    0  501 0.00000000E+00 0.00000000E+00 0.32731251E+03 0.32731267E+03 0.32000000E+00 0.0000E+00 0.9000E+01
        2 -1    0    0  501    0 -.00000000E+00 -.00000000E+00 -.72024687E+03 0.72024694E+03 0.32000000E+00 0.0000E+00 0.9000E+01
       24  2    1    2    0    0 0.43864440E+03 0.11886418E+03 -.33972880E+03 0.57322488E+03 0.81446273E+02 0.0000E+00 0.0000E+00
       25  1    1    2    0    0 -.43864440E+03 -.11886418E+03 -.53205554E+02 0.47433473E+03 0.12500000E+03 0.0000E+00 0.9000E+01
        4  1    3    3  502    0 0.43412332E+03 0.10439215E+03 -.32977406E+03 0.55508027E+03 0.15500000E+01 0.0000E+00 0.9000E+01
       -3  1    3    3    0  502 0.45210824E+01 0.14472024E+02 -.99547446E+01 0.18144603E+02 0.50000000E+00 0.0000E+00 0.9000E+01
#aMCatNLO 1  0  0  5  5 0.15758099D+01 0.00000000D+00  -5  6  0 0.00000000D+00 0.00000000D+00 0.00000000D+00 0.00000000D+00 0.00000000D+00
  <mgrwgt>
 -.4301385745D-02    7    2    0
 0.485536743136540D+03 0.000000000000000D+00 0.000000000000000D+00 0.485536743136540D+03
 0.485536743136540D+03 -.000000000000000D+00 -.000000000000000D+00 -.485536743136540D+03
 0.490166415849012D+03 -.438644401210109D+03 -.118864179135244D+03 0.134538141178612D+03
 0.465373315544180D+03 0.434138053926126D+03 0.104390848665024D+03 -.131145048205472D+03
 0.155337548798879D+02 0.450634728398286D+01 0.144733304702204D+02 -.339309297313990D+01
 0.000000000000000D+00 0.000000000000000D+00 0.000000000000000D+00 0.000000000000000D+00
 0.485536743136540D+03 0.000000000000000D+00 0.000000000000000D+00 0.485536743136540D+03
 0.485536743136540D+03 -.000000000000000D+00 -.000000000000000D+00 -.485536743136540D+03
 0.489820045242694D+03 -.438460046924795D+03 -.118272076412840D+03 0.134399330032767D+03
 0.465700343639503D+03 0.434313206773464D+03 0.104953398526934D+03 -.131276931049398D+03
 0.139065127031924D+02 0.286229294678096D+01 0.129781519499358D+02 -.409462411159282D+01
 0.164658468769018D+01 0.128454720455022D+01 0.340525935970204D+00 0.972225128223712D+00
0.112045762052D-04 0.000000000000D+00 0.000000000000D+00 0.178612938291D-04 0.000000000000D+00  6 -1 2 25 4 -3 21 0 0.50355788D-01 0.11080723D+00 0.21762799D+06 0.21762799D+06 0.21762799D+06 0.10950190D+01  1  2  2  4  6  5       -3 0.239997789697D-03 0.100000000000D+01
0.452399334077D-05 0.000000000000D+00 -.430285228608D-07 0.178612938291D-04 0.000000000000D+00  6 -1 2 25 4 -3 21 2 0.50355788D-01 0.11080723D+00 0.21762799D+06 0.21762799D+06 0.21762799D+06 0.10950190D+01  1  2  3  4  6  5       -3 0.116192219145D-03 0.100000000000D+01
-.327123823842D-05 0.000000000000D+00 0.000000000000D+00 0.178612938291D-04 0.000000000000D+00  6 -1 2 25 4 -3 21 2 0.50355788D-01 0.11080723D+00 0.21762799D+06 0.21762799D+06 0.21762799D+06 0.10950190D+01  1  2 15  4  6  5       -3 -.840170180733D-04 0.100000000000D+01
-.300906718553D-03 0.000000000000D+00 0.000000000000D+00 0.178612938291D-04 0.000000000000D+00  6 -1 2 25 4 -3 21 2 0.50355788D-01 0.11080723D+00 0.21762799D+06 0.21762799D+06 0.21762799D+06 0.10950190D+01  1  2  4  4  6  5       -3 -.772835341495D-02 0.100000000000D+01
-.574943727022D-04 0.000000000000D+00 0.000000000000D+00 0.178612938291D-04 0.000000000000D+00  6 -1 2 25 4 -3 21 2 0.50355788D-01 0.11080723D+00 0.21762799D+06 0.21762799D+06 0.21762799D+06 0.10950190D+01  1  2  5  4  6  5       -3 -.147665972282D-02 0.100000000000D+01
0.825334203968D-04 0.000000000000D+00 -.000000000000D+00 0.178612938291D-04 0.000000000000D+00  6 -1 2 25 4 -3 21 2 0.50355788D-01 0.11080723D+00 0.21762799D+06 0.21762799D+06 0.21762799D+06 0.10950190D+01  1  2  6  4  6  5       -3 0.211975141146D-02 0.100000000000D+01
0.977844397202D-04 0.000000000000D+00 0.000000000000D+00 0.178612938291D-04 0.452078622362D-04  6 -1 2 25 4 -3 21 2 0.50355788D-01 0.11080723D+00 0.21736768D+06 0.21736768D+06 0.21736768D+06 0.10950586D+01  1  2 11  4  6  5       -3 0.251170299089D-02 0.100000000000D+01
  </mgrwgt>
  </event>
  <event>
  7     66 0.18082911E-05 0.31927945E+02 0.75467711E-02 0.93131528E-01
       -1 -1    0    0    0  501 0.00000000E+00 0.00000000E+00 0.10987709E+04 0.10987709E+04 0.32000000E+00 0.0000E+00 0.9000E+01
        2 -1    0    0  503    0 0.00000000E+00 0.00000000E+00 -.46551360E+03 0.46551371E+03 0.32000000E+00 0.0000E+00 0.9000E+01
       24  2    1    2    0    0 0.26068686E+03 -.45644167E+03 0.67115921E+03 0.85501715E+03 0.65597179E+02 0.0000E+00 0.0000E+00
       25  1    1    2    0    0 -.31768365E+03 0.44172553E+03 0.92786275E+02 0.56593165E+03 0.12500000E+03 0.0000E+00 0.9000E+01
        4  1    3    3  502    0 0.14571357E+03 -.27790337E+03 0.35078043E+03 0.47065065E+03 0.15500000E+01 0.0000E+00 0.9000E+01
       -3  1    3    3    0  502 0.11497328E+03 -.17853830E+03 0.32037879E+03 0.38436649E+03 0.50000000E+00 0.0000E+00 0.9000E+01
       21  1    1    2  503  501 0.56996791E+02 0.14716143E+02 -.13068819E+03 0.14333585E+03 0.75000000E+00 0.0000E+00 0.9000E+01
#aMCatNLO 2  0  0  2  5 0.52024308D+02 0.00000000D+00  -5  6  0 0.00000000D+00 0.00000000D+00 0.00000000D+00 0.00000000D+00 0.00000000D+00
  <mgrwgt>
 0.3309950425D-03    1    2    0
 0.598334685395014D+03 0.000000000000000D+00 0.000000000000000D+00 0.598334685395014D+03
 0.598334685395014D+03 0.000000000000000D+00 0.000000000000000D+00 -.598334685395014D+03
 0.603065319706232D+03 -.288764066699053D+03 0.449192348296186D+03 -.250807352061223D+03
 0.338323910215366D+03 0.161668856877280D+03 -.273685851718256D+03 0.115854665459192D+03
 0.255280140868430D+03 0.127095209821773D+03 -.175506496577930D+03 0.134952686602031D+03
 0.000000000000000D+00 0.000000000000000D+00 0.000000000000000D+00 -.000000000000000D+00
 0.602525378007221D+03 0.000000000000000D+00 0.000000000000000D+00 0.602525378007221D+03
 0.848913583907324D+03 0.000000000000000D+00 0.000000000000000D+00 -.848913583907324D+03
 0.612024241692440D+03 -.317683650056979D+03 0.441725529098918D+03 -.250807352061223D+03
 0.334398465889796D+03 0.145657814193216D+03 -.277819782674384D+03 0.115854665459192D+03
 0.251693639851420D+03 0.115029045336800D+03 -.178621889614501D+03 0.134952686602031D+03
 0.253322614480889D+03 0.569967905269631D+02 0.147161431899670D+02 -.246388205900102D+03
0.125146423910D-03 0.000000000000D+00 0.000000000000D+00 0.163128769697D-05 0.313009519632D-08  6 -1 2 25 4 -3 21 2 0.16904153D+00 0.71617423D-01 0.32677404D+06 0.32677404D+06 0.32677404D+06 0.10818157D+01  1  2  1  2  6  2        2 0.330995042518D-03 0.100000000000D+01
  </mgrwgt>
  </event>
  <event>
  7     66 0.18082911E-05 0.24632941E+02 0.75467711E-02 0.90938982E-01
       -1 -1    0    0    0  501 0.00000000E+00 0.00000000E+00 0.34111601E+03 0.34111616E+03 0.32000000E+00 0.0000E+00 0.9000E+01
        2 -1    0    0  503    0 0.00000000E+00 0.00000000E+00 -.18412249E+04 0.18412249E+04 0.32000000E+00 0.0000E+00 0.9000E+01
       24  2    1    2    0    0 0.57310062E+03 -.34577069E+03 -.26053230E+03 0.72265103E+03 0.79660149E+02 0.0000E+00 0.0000E+00
       25  1    1    2    0    0 -.60069642E+03 0.31223420E+03 -.98683749E+03 0.12032455E+04 0.12500000E+03 0.0000E+00 0.9000E+01
        4  1    3    3  502    0 0.94479502E+02 -.78225639E+02 -.75039838E+02 0.14380197E+03 0.15500000E+01 0.0000E+00 0.9000E+01
       -3  1    3    3    0  502 0.47862112E+03 -.26754505E+03 -.18549247E+03 0.57884906E+03 0.50000000E+00 0.0000E+00 0.9000E+01
       21  1    1    2  503  501 0.27595801E+02 0.33536494E+02 -.25273906E+03 0.25644458E+03 0.75000000E+00 0.0000E+00 0.9000E+01
#aMCatNLO 2  0  0  2  5 0.10714151D+01 0.00000000D+00  -5  6  0 0.00000000D+00 0.00000000D+00 0.00000000D+00 0.00000000D+00 0.00000000D+00
  <mgrwgt>
 0.4991690330D-03    1    2    0
 0.733358650671256D+03 0.000000000000000D+00 0.000000000000000D+00 0.733358650671256D+03
 0.733358650671256D+03 0.000000000000000D+00 0.000000000000000D+00 -.733358650671256D+03
 0.736521925761224D+03 -.586805945225535D+03 0.329114951088331D+03 -.272363137640015D+03
 0.124768495512796D+03 0.966485012055537D+02 -.752756638348929D+02 0.236604970671123D+02
 0.605426880068492D+03 0.490157444019981D+03 -.253839287253438D+03 0.248702640572902D+03
 0.000000000000000D+00 0.000000000000000D+00 0.000000000000000D+00 -.000000000000000D+00
 0.737685648596535D+03 0.000000000000000D+00 0.000000000000000D+00 0.737685648596535D+03
 0.851405372490472D+03 0.000000000000000D+00 0.000000000000000D+00 -.851405372490472D+03
 0.740360092012091D+03 -.600696424416067D+03 0.312234195425151D+03 -.272363137640015D+03
 0.124725950663058D+03 0.943019377217732D+02 -.781273843748754D+02 0.236604970671123D+02
 0.602274126714088D+03 0.478798685838072D+03 -.267643305018113D+03 0.248702640572902D+03
 0.121730851697770D+03 0.275958008562216D+02 0.335364939678379D+02 -.113719723893938D+03
0.104705062692D-03 0.000000000000D+00 0.000000000000D+00 0.121165656223D-03 0.395706480912D-06  6 -1 2 25 4 -3 21 2 0.52479319D-01 0.28326494D+00 0.49200367D+06 0.49200367D+06 0.49200367D+06 0.10690056D+01  1  2  1  2  6  2        2 0.499169033028D-03 0.100000000000D+01
  </mgrwgt>
  </event>
  <event>
  7     66 0.18082911E-05 0.39316054E+02 0.75467711E-02 0.93504767E-01
       -1 -1    0    0    0  503 0.00000000E+00 0.00000000E+00 0.46756658E+03 0.46756669E+03 0.32000000E+00 0.0000E+00 0.9000E+01
        2 -1    0    0  501    0 0.00000000E+00 0.00000000E+00 -.12690671E+04 0.12690671E+04 0.32000000E+00 0.0000E+00 0.9000E+01
       24  2    1    2    0    0 0.53332780E+03 -.85195904E+02 -.74916375E+03 0.92705187E+03 0.80510695E+02 0.0000E+00 0.0000E+00
       25  1    1    2    0    0 -.51531426E+03 0.97608696E+02 -.26152848E+03 0.59924818E+03 0.12500000E+03 0.0000E+00 0.9000E+01
        4  1    3    3  502    0 0.14281794E+03 -.53011151E+02 -.24536936E+03 0.28881771E+03 0.15500000E+01 0.0000E+00 0.9000E+01
       -3  1    3    3    0  502 0.39050986E+03 -.32184754E+02 -.50379439E+03 0.63823416E+03 0.50000000E+00 0.0000E+00 0.9000E+01
       21  1    1    2  501  503 -.18013541E+02 -.12412791E+02 0.20919171E+03 0.21033378E+03 0.75000000E+00 0.0000E+00 0.9000E+01
#aMCatNLO 2  0  0  1  2 0.28851191D+02 0.00000000D+00  -5  6  0 0.00000000D+00 0.00000000D+00 0.00000000D+00 0.00000000D+00 0.00000000D+00
  <mgrwgt>
 0.1911216043D-02    1    2    0
 0.571754866890161D+03 0.000000000000000D+00 0.000000000000000D+00 0.571754866890161D+03
 0.571754866890161D+03 0.000000000000000D+00 0.000000000000000D+00 -.571754866890161D+03
 0.575752658885082D+03 -.524326765254873D+03 0.913983449587382D+02 0.180537835340426D+03
 0.166813065684245D+03 0.140038178069828D+03 -.548207596479236D+02 -.721844296055869D+02
 0.400944009210995D+03 0.384288587185045D+03 -.365775853108146D+02 -.108353405734839D+03
 0.000000000000000D+00 -.000000000000000D+00 -.000000000000000D+00 0.000000000000000D+00
 0.103715371991499D+04 0.000000000000000D+00 0.000000000000000D+00 0.103715371991499D+04
 0.572116614009481D+03 0.000000000000000D+00 0.000000000000000D+00 -.572116614009481D+03
 0.568590493197780D+03 -.515314255042468D+03 0.976086959011048D+02 0.180537835340426D+03
 0.168454510100022D+03 0.142678646923199D+03 -.530012623219449D+02 -.721844296055869D+02
 0.406673964059834D+03 0.390649148891188D+03 -.321946421068939D+02 -.108353405734839D+03
 0.465551366566831D+03 -.180135407719185D+02 -.124127914722659D+02 0.465037105905506D+03
0.335430804099D-03 0.000000000000D+00 0.000000000000D+00 0.248236233874D-03 0.381811958398D-05  6 -1 2 25 4 -3 21 2 0.71933294D-01 0.19524100D+00 0.30537877D+06 0.30537877D+06 0.30537877D+06 0.10839813D+01  1  2  1  1  6  1       -1 0.191121604305D-02 0.100000000000D+01
  </mgrwgt>
  </event>
  <event>
  7     66 0.18082911E-05 0.19508751E+03 0.75467711E-02 0.91086822E-01
       21 -1    0    0  503  501 0.00000000E+00 0.00000000E+00 0.74294956E+03 0.74294994E+03 0.75000000E+00 0.0000E+00 0.9000E+01
        2 -1    0    0  501    0 0.00000000E+00 0.00000000E+00 -.87355751E+03 0.87355756E+03 0.32000000E+00 0.0000E+00 0.9000E+01
       24  2    1    2    0    0 0.58359486E+03 0.32246461E+03 -.36706992E+03 0.76535315E+03 0.80366257E+02 0.0000E+00 0.0000E+00
       25  1    1    2    0    0 -.44034423E+03 -.13740297E+03 -.50820306E+02 0.48061453E+03 0.12500000E+03 0.0000E+00 0.9000E+01
        4  1    3    3  502    0 0.30072808E+03 0.12190036E+03 -.16548512E+03 0.36425926E+03 0.15500000E+01 0.0000E+00 0.9000E+01
        1  1    1    2  503    0 -.14325063E+03 -.18506164E+03 0.28728228E+03 0.37053983E+03 0.32000000E+00 0.0000E+00 0.9000E+01
       -3  1    3    3    0  502 0.28286678E+03 0.20056425E+03 -.20158480E+03 0.40109390E+03 0.50000000E+00 0.0000E+00 0.9000E+01
#aMCatNLO 2  0  0  1  2 0.17904443D+02 0.00000000D+00  -5  6  0 0.00000000D+00 0.00000000D+00 0.00000000D+00 0.00000000D+00 0.00000000D+00
  <mgrwgt>
 0.2503316098D-03    1    2    0
 0.575116219146502D+03 0.000000000000000D+00 0.000000000000000D+00 0.575116219146502D+03
 0.575116219146502D+03 0.000000000000000D+00 0.000000000000000D+00 -.575116219146502D+03
 0.579100746277365D+03 -.506370069324832D+03 -.222699979475391D+03 0.117161198238267D+03
 0.277290649231021D+03 0.263348408253077D+03 0.736615872587892D+02 -.459531346487636D+02
 0.000000000000000D+00 -.000000000000000D+00 -.000000000000000D+00 0.000000000000000D+00
 0.293841042784617D+03 0.243021661071755D+03 0.149038392216602D+03 -.712080635895037D+02
 0.105313018943148D+04 0.000000000000000D+00 0.000000000000000D+00 0.105313018943148D+04
 0.616267033647165D+03 0.000000000000000D+00 0.000000000000000D+00 -.616267033647165D+03
 0.492071504252698D+03 -.440344230837680D+03 -.137402974104849D+03 0.117161198238267D+03
 0.327620861531987D+03 0.300634465363774D+03 0.121830441854045D+03 -.459531346487636D+02
 0.495598597004829D+03 -.143250629970180D+03 -.185061636987431D+03 0.436863155784319D+03
 0.354106260289136D+03 0.282960395444087D+03 0.200634169238235D+03 -.712080635895037D+02
0.109729937514D-04 0.000000000000D+00 0.000000000000D+00 0.253812159322D-03 0.204627181279D-08  6 21 2 25 4 1 -3 2 0.11429996D+00 0.13439349D+00 0.47831172D+06 0.47831172D+06 0.47831172D+06 0.10698742D+01  1  2  1  5  5  1       -1 0.250331609848D-03 0.100000000000D+01
  </mgrwgt>
  </event>
  <event>
  7     66 0.18082911E-05 0.32879098E+02 0.75467711E-02 0.92125262E-01
       -1 -1    0    0    0  503 0.00000000E+00 0.00000000E+00 0.35984783E+03 0.35984797E+03 0.32000000E+00 0.0000E+00 0.9000E+01
        2 -1    0    0  501    0 0.00000000E+00 0.00000000E+00 -.12933769E+04 0.12933769E+04 0.32000000E+00 0.0000E+00 0.9000E+01
       24  2    1    2    0    0 0.56493484E+02 0.60648426E+03 -.32357564E+03 0.69457318E+03 0.81951487E+02 0.0000E+00 0.0000E+00
       25  1    1    2    0    0 -.19361151E+02 -.58623066E+03 -.66089206E+03 0.89243742E+03 0.12500000E+03 0.0000E+00 0.9000E+01
        4  1    3    3  502    0 0.45435138E+02 0.17984165E+03 -.70824728E+02 0.19855960E+03 0.15500000E+01 0.0000E+00 0.9000E+01
       -3  1    3    3    0  502 0.11058346E+02 0.42664261E+03 -.25275091E+03 0.49601358E+03 0.50000000E+00 0.0000E+00 0.9000E+01
       21  1    1    2  501  503 -.37132333E+02 -.20253596E+02 0.50938663E+02 0.66214260E+02 0.75000000E+00 0.0000E+00 0.9000E+01
#aMCatNLO 2  0  0  1  2 0.17904443D+02 0.00000000D+00  -5  6  0 0.00000000D+00 0.00000000D+00 0.00000000D+00 0.00000000D+00 0.00000000D+00
  <mgrwgt>
 0.1853860725D-02    1    2    0
 0.622020298794821D+03 0.000000000000000D+00 0.000000000000000D+00 0.622020298794821D+03
 0.622020298794821D+03 0.000000000000000D+00 0.000000000000000D+00 -.622020298794821D+03
 0.625600951197975D+03 -.378724788193678D+02 -.596327548763788D+03 -.136786987953018D+03
 0.192824497292138D+03 0.396168939286322D+02 0.176523375953695D+03 0.667179602005636D+02
 0.425615149099529D+03 -.174441510926444D+01 0.419804172810094D+03 0.700690277524539D+02
 0.000000000000000D+00 -.000000000000000D+00 -.000000000000000D+00 0.000000000000000D+00
 0.743388189586462D+03 0.000000000000000D+00 0.000000000000000D+00 0.743388189586462D+03
 0.626075772605843D+03 0.000000000000000D+00 0.000000000000000D+00 -.626075772605843D+03
 0.615123502420149D+03 -.193611505707885D+02 -.586230661945405D+03 -.136786987953018D+03
 0.196992294146148D+03 0.454328722968180D+02 0.179695664540077D+03 0.667179602005636D+02
 0.432643628705114D+03 0.110606117537398D+02 0.426788593658016D+03 0.700690277524539D+02
 0.124704536920894D+03 -.371323334797693D+02 -.202535962526881D+02 0.117312416980620D+03
0.208577225489D-03 0.000000000000D+00 0.000000000000D+00 0.574690217712D-04 0.202092602470D-06  6 -1 2 25 4 -3 21 2 0.55361119D-01 0.19898071D+00 0.39331752D+06 0.39331752D+06 0.39331752D+06 0.10759555D+01  1  2  1  1  6  1       -1 0.185386072463D-02 0.100000000000D+01
  </mgrwgt>
  </event>
  <event>
  7     66 0.18082911E-05 0.13959902E+02 0.75467711E-02 0.90757073E-01
       21 -1    0    0  503  501 0.00000000E+00 0.00000000E+00 0.33540579E+03 0.33540663E+03 0.75000000E+00 0.0000E+00 0.9000E+01
        2 -1    0    0  501    0 0.00000000E+00 0.00000000E+00 -.15408129E+04 0.15408129E+04 0.32000000E+00 0.0000E+00 0.9000E+01
       24  2    1    2    0    0 -.63365292E+03 0.28561198E+03 -.63779173E+03 0.94592454E+03 0.70033695E+02 0.0000E+00 0.0000E+00
       25  1    1    2    0    0 0.64418554E+03 -.26870540E+03 -.57059144E+03 0.91015229E+03 0.12500000E+03 0.0000E+00 0.9000E+01
        4  1    3    3  502    0 -.62378872E+03 0.26927885E+03 -.62214089E+03 0.92124109E+03 0.15500000E+01 0.0000E+00 0.9000E+01
        1  1    1    2  503    0 -.10532618E+02 -.16906580E+02 0.29761093E+01 0.20142694E+02 0.32000000E+00 0.0000E+00 0.9000E+01
       -3  1    3    3    0  502 -.98642000E+01 0.16333134E+02 -.15650839E+02 0.24683445E+02 0.50000000E+00 0.0000E+00 0.9000E+01
#aMCatNLO 2  0  0  1  2 0.17904443D+02 0.00000000D+00  -5  6  0 0.00000000D+00 0.00000000D+00 0.00000000D+00 0.00000000D+00 0.00000000D+00
  <mgrwgt>
 0.8098867842D-05    1    2    0
 0.704349795387322D+03 0.000000000000000D+00 0.000000000000000D+00 0.704349795387322D+03
 0.704349795387322D+03 0.000000000000000D+00 0.000000000000000D+00 -.704349795387322D+03
 0.708154823009857D+03 0.638885357320683D+03 -.277213058142707D+03 0.289253167400730D+02
 0.681595354933364D+03 -.628906025639222D+03 0.261113792733888D+03 -.294792473706611D+02
 0.000000000000000D+00 -.000000000000000D+00 -.000000000000000D+00 0.000000000000000D+00
 0.189494128314231D+02 -.997933168146022D+01 0.160992654088192D+02 0.553930630588002D+00
 0.729562905749660D+03 0.000000000000000D+00 0.000000000000000D+00 0.729562905749660D+03
 0.708365371674412D+03 0.000000000000000D+00 0.000000000000000D+00 -.708365371674412D+03
 0.709675469430261D+03 0.644185535966907D+03 -.268705402278362D+03 0.289253167400730D+02
 0.680095032812908D+03 -.623815710984229D+03 0.269284582478261D+03 -.294792473706611D+02
 0.290878657619265D+02 -.105326183503229D+02 -.169065796185690D+02 0.211975340752477D+02
 0.190699094189757D+02 -.983720663235531D+01 0.163273994186698D+02 0.553930630588002D+00
0.128873956121D-06 0.000000000000D+00 0.000000000000D+00 0.357975260365D-06 0.348182975220D-10  6 21 2 25 4 1 -3 2 0.51600895D-01 0.23704791D+00 0.50945512D+06 0.50945512D+06 0.50945512D+06 0.10679359D+01  1  2  1  5  5  1       -1 0.809886784193D-05 0.100000000000D+01
  </mgrwgt>
  </event>
  <event>
  7     66 0.18082911E-05 0.23366127E+02 0.75467711E-02 0.93593656E-01
       21 -1    0    0  503  501 0.00000000E+00 0.00000000E+00 0.15069319E+03 0.15069506E+03 0.75000000E+00 0.0000E+00 0.9000E+01
        2 -1    0    0  501    0 0.00000000E+00 0.00000000E+00 -.24035981E+04 0.24035981E+04 0.32000000E+00 0.0000E+00 0.9000E+01
       24  2    1    2    0    0 -.20417510E+03 -.48168346E+03 -.12202148E+04 0.13294250E+04 0.68849955E+02 0.0000E+00 0.0000E+00
       25  1    1    2    0    0 0.23853358E+03 0.45860663E+03 -.10523070E+04 0.11790646E+04 0.12500000E+03 0.0000E+00 0.9000E+01
        4  1    3    3  502    0 -.43837500E+02 -.10468867E+03 -.19891251E+03 0.22901972E+03 0.15500000E+01 0.0000E+00 0.9000E+01
        1  1    1    2  503    0 -.34358483E+02 0.23076835E+02 0.19616853E+02 0.45803591E+02 0.32000000E+00 0.0000E+00 0.9000E+01
       -3  1    3    3    0  502 -.16033759E+03 -.37699480E+03 -.10213023E+04 0.11004053E+04 0.50000000E+00 0.0000E+00 0.9000E+01
#aMCatNLO 2  0  0  1  2 0.17904443D+02 0.00000000D+00  -5  6  0 0.00000000D+00 0.00000000D+00 0.00000000D+00 0.00000000D+00 0.00000000D+00
  <mgrwgt>
 0.1264720825D-03    1    2    0
 0.530672175287842D+03 0.000000000000000D+00 0.000000000000000D+00 0.530672175287842D+03
 0.530672175287842D+03 0.000000000000000D+00 0.000000000000000D+00 -.530672175287842D+03
 0.535799956867229D+03 0.221237881118057D+03 0.470223262597728D+03 0.374229481637224D+02
 0.114323002713181D+03 -.474704588483939D+02 -.102009874955431D+03 0.202556139787994D+02
 0.000000000000000D+00 -.000000000000000D+00 0.000000000000000D+00 0.000000000000000D+00
 0.411221390995275D+03 -.173767422269663D+03 -.368213387642297D+03 -.576785621425218D+02
 0.678312322181536D+03 0.000000000000000D+00 0.000000000000000D+00 0.678312322181536D+03
 0.533984188044942D+03 0.000000000000000D+00 0.000000000000000D+00 -.533984188044942D+03
 0.533145181184923D+03 0.238533578177129D+03 0.458606628008641D+03 0.374229481637224D+02
 0.115091158320393D+03 -.437585023699464D+02 -.104503006158727D+03 0.202556139787994D+02
 0.150145449335541D+03 -.343584829900436D+02 0.230768346929032D+02 0.144328134136595D+03
 0.413914721385621D+03 -.160416592817139D+03 -.377180456542817D+03 -.576785621425218D+02
0.110630014333D-05 0.000000000000D+00 0.000000000000D+00 0.124672354396D-05 0.158514389366D-09  6 21 2 25 4 1 -3 2 0.23183706D-01 0.36978435D+00 0.30051780D+06 0.30051780D+06 0.30051780D+06 0.10844965D+01  1  2  1  5  5  1       -1 0.126472082455D-03 0.100000000000D+01
  </mgrwgt>
  </event>
  <event>
  7     66 0.18082911E-05 0.72648270E+02 0.75467711E-02 0.94351690E-01
       -1 -1    0    0    0  501 0.00000000E+00 0.00000000E+00 0.14565017E+03 0.14565052E+03 0.32000000E+00 0.0000E+00 0.9000E+01
        2 -1    0    0  503    0 0.00000000E+00 0.00000000E+00 -.37299396E+04 0.37299396E+04 0.32000000E+00 0.0000E+00 0.9000E+01
       24  2    1    2    0    0 -.24772304E+03 0.41808180E+03 -.10333468E+04 0.11449518E+04 0.83365370E+02 0.0000E+00 0.0000E+00
       25  1    1    2    0    0 0.26583194E+03 -.42076153E+03 -.64327086E+03 0.82287866E+03 0.12500000E+03 0.0000E+00 0.9000E+01
        4  1    3    3  502    0 -.16276366E+03 0.19298138E+03 -.52911275E+03 0.58625636E+03 0.15500000E+01 0.0000E+00 0.9000E+01
       -3  1    3    3    0  502 -.84959379E+02 0.22510042E+03 -.50423410E+03 0.55869542E+03 0.50000000E+00 0.0000E+00 0.9000E+01
       21  1    1    2  503  501 -.18108897E+02 0.26797377E+01 -.19076717E+04 0.19077597E+04 0.75000000E+00 0.0000E+00 0.9000E+01
#aMCatNLO 2  0  0  2  1 0.50110602D+02 0.00000000D+00  -5  6  0 0.00000000D+00 0.00000000D+00 0.00000000D+00 0.00000000D+00 0.00000000D+00
  <mgrwgt>
 0.2316185481D-02    1    2    0
 0.515018104410854D+03 0.000000000000000D+00 0.000000000000000D+00 0.515018104410854D+03
 0.515018104410854D+03 0.000000000000000D+00 0.000000000000000D+00 -.515018104410854D+03
 0.519229226434063D+03 0.256654201001266D+03 -.419403421965018D+03 0.110468911173011D+03
 0.262048125590535D+03 -.167316875640361D+03 0.193587742466664D+03 -.565514740579016D+02
 0.248758856797110D+03 -.893373253609053D+02 0.225815679498353D+03 -.539174371151094D+02
 0.000000000000000D+00 -.000000000000000D+00 0.000000000000000D+00 -.000000000000000D+00
 0.515254789609040D+03 0.000000000000000D+00 0.000000000000000D+00 0.515254789609040D+03
 0.105436478259149D+04 0.000000000000000D+00 0.000000000000000D+00 -.105436478259149D+04
 0.524914533704965D+03 0.265831936239948D+03 -.420761534641501D+03 0.110468911173011D+03
 0.258644299306258D+03 -.162740133050955D+03 0.192910480379012D+03 -.565514740579016D+02
 0.246640033536824D+03 -.849829059537384D+02 0.225171316587265D+03 -.539174371151094D+02
 0.539420705652483D+03 -.181088972352540D+02 0.267973767522461D+01 -.539109992982450D+03
0.155110038263D-02 0.000000000000D+00 0.000000000000D+00 0.286185267005D-04 0.684512840753D-06  6 -1 2 25 4 -3 21 2 0.22407736D-01 0.57383660D+00 0.26241315D+06 0.26241315D+06 0.26241315D+06 0.10888794D+01  1  2  1  2  6  2        2 0.231618548140D-02 0.100000000000D+01
  </mgrwgt>
  </event>
  <event>
  7     66 0.18082911E-05 0.14978548E+03 0.75467711E-02 0.93282928E-01
       -1 -1    0    0    0  503 0.00000000E+00 0.00000000E+00 0.25702965E+03 0.25702985E+03 0.32000000E+00 0.0000E+00 0.9000E+01
        2 -1    0    0  501    0 0.00000000E+00 0.00000000E+00 -.22845661E+04 0.22845662E+04 0.32000000E+00 0.0000E+00 0.9000E+01
       24  2    1    2    0    0 0.28434323E+03 -.27132901E+03 -.10414884E+04 0.11161377E+04 0.81208553E+02 0.0000E+00 0.0000E+00
       25  1    1    2    0    0 -.27915972E+03 0.45496230E+03 -.10858475E+04 0.12163924E+04 0.12500000E+03 0.0000E+00 0.9000E+01
        4  1    3    3  502    0 0.10127332E+03 -.12799718E+03 -.52361090E+03 0.54846180E+03 0.15500000E+01 0.0000E+00 0.9000E+01
       -3  1    3    3    0  502 0.18306991E+03 -.14333184E+03 -.51787748E+03 0.56767591E+03 0.50000000E+00 0.0000E+00 0.9000E+01
       21  1    1    2  501  503 -.51835031E+01 -.18363329E+03 0.99799377E+02 0.20906585E+03 0.75000000E+00 0.0000E+00 0.9000E+01
#aMCatNLO 2  0  0  1  2 0.17904443D+02 0.00000000D+00  -5  6  0 0.00000000D+00 0.00000000D+00 0.00000000D+00 0.00000000D+00 0.00000000D+00
  <mgrwgt>
 0.2921469096D-02    1    2    0
 0.469412138157883D+03 0.000000000000000D+00 0.000000000000000D+00 0.469412138157883D+03
 0.469412138157883D+03 0.000000000000000D+00 0.000000000000000D+00 -.469412138157883D+03
 0.474221436055412D+03 -.281963994015869D+03 0.355616903998341D+03 0.573924566795198D+02
 0.200574125293926D+03 0.100189294622327D+03 -.164125376335454D+03 -.570521325039614D+02
 0.264028714966428D+03 0.181774699393542D+03 -.191491527662887D+03 -.340324175558372D+00
 0.000000000000000D+00 -.000000000000000D+00 -.000000000000000D+00 0.000000000000000D+00
 0.119828883341401D+04 0.000000000000000D+00 0.000000000000000D+00 0.119828883341401D+04
 0.490032999672186D+03 0.000000000000000D+00 0.000000000000000D+00 -.490032999672186D+03
 0.551216599628578D+03 -.279159724867496D+03 0.454962299135088D+03 0.573924566795198D+02
 0.172828378560893D+03 0.101210439815938D+03 -.127949792829071D+03 -.570521325039614D+02
 0.232584037838041D+03 0.183132788105796D+03 -.143379220102148D+03 -.340324175558372D+00
 0.731692817058686D+03 -.518350305423833D+01 -.183633286203869D+03 0.708255833741827D+03
0.618060683816D-03 0.000000000000D+00 0.000000000000D+00 0.226405148418D-03 0.615421821130D-07  6 -1 2 25 4 -3 21 2 0.39543025D-01 0.35147159D+00 0.31789918D+06 0.31789918D+06 0.31789918D+06 0.10826947D+01  1  2  1  1  6  1       -1 0.292146909578D-02 0.100000000000D+01
  </mgrwgt>
  </event>
  <event>
  7     66 0.18082911E-05 0.29823506E+02 0.75467711E-02 0.94397804E-01
       -1 -1    0    0    0  503 0.00000000E+00 0.00000000E+00 0.18111231E+03 0.18111259E+03 0.32000000E+00 0.0000E+00 0.9000E+01
        2 -1    0    0  501    0 0.00000000E+00 0.00000000E+00 -.16425105E+04 0.16425105E+04 0.32000000E+00 0.0000E+00 0.9000E+01
       24  2    1    2    0    0 0.16417111E+02 -.47949882E+03 -.69588878E+03 0.84914351E+03 0.81208773E+02 0.0000E+00 0.0000E+00
       25  1    1    2    0    0 -.71695005E+02 0.45837572E+03 -.77760003E+03 0.91407619E+03 0.12500000E+03 0.0000E+00 0.9000E+01
        4  1    3    3  502    0 -.31670181E+01 -.31489627E+03 -.51616420E+03 0.60464666E+03 0.15500000E+01 0.0000E+00 0.9000E+01
       -3  1    3    3    0  502 0.19584130E+02 -.16460255E+03 -.17972457E+03 0.24449685E+03 0.50000000E+00 0.0000E+00 0.9000E+01
       21  1    1    2  501  503 0.55277894E+02 0.21123096E+02 0.12090604E+02 0.60403443E+02 0.75000000E+00 0.0000E+00 0.9000E+01
#aMCatNLO 2  0  0  1  2 0.17904443D+02 0.00000000D+00  -5  6  0 0.00000000D+00 0.00000000D+00 0.00000000D+00 0.00000000D+00 0.00000000D+00
  <mgrwgt>
 0.9484002959D-03    1    2    0
 0.483288889869985D+03 0.000000000000000D+00 0.000000000000000D+00 0.483288889869985D+03
 0.483288889869985D+03 0.000000000000000D+00 0.000000000000000D+00 -.483288889869985D+03
 0.487960079058145D+03 -.440097864450848D+02 0.468954952197250D+03 -.249886026252668D+02
 0.309015657637770D+03 0.146664537597280D+02 -.308030824458220D+03 -.198137069476325D+02
 0.169602043044054D+03 0.293433326853568D+02 -.160924127739031D+03 0.448023095728993D+02
 0.000000000000000D+00 0.000000000000000D+00 0.000000000000000D+00 0.000000000000000D+00
 0.605343366215489D+03 0.000000000000000D+00 0.000000000000000D+00 0.605343366215489D+03
 0.491420025341641D+03 0.000000000000000D+00 0.000000000000000D+00 -.491420025341641D+03
 0.481142294032249D+03 -.716950049601164D+02 0.458375722643794D+03 -.249886026252668D+02
 0.315487024482690D+03 -.317427565938733D+01 -.314848223129769D+03 -.198137069476325D+02
 0.171758225281211D+03 0.195913870877029D+02 -.164650595385092D+03 0.448023095728993D+02
 0.128375847760980D+03 0.552778935318009D+02 0.211230958710672D+02 0.113923340873848D+03
0.479310660730D-04 0.000000000000D+00 0.000000000000D+00 0.221436583983D-03 0.410835744418D-06  6 -1 2 25 4 -3 21 2 0.27863395D-01 0.25269339D+00 0.26027624D+06 0.26027624D+06 0.26027624D+06 0.10891454D+01  1  2  1  1  6  1       -1 0.948400295920D-03 0.100000000000D+01
  </mgrwgt>
  </event>
  <event>
  7     66 0.18082911E-05 0.56028489E+02 0.75467711E-02 0.95427570E-01
       -1 -1    0    0    0  501 0.00000000E+00 0.00000000E+00 0.39365486E+03 0.39365499E+03 0.32000000E+00 0.0000E+00 0.9000E+01
        2 -1    0    0  503    0 0.00000000E+00 0.00000000E+00 -.60285150E+03 0.60285158E+03 0.32000000E+00 0.0000E+00 0.9000E+01
       24  2    1    2    0    0 0.72873826E+02 0.41283805E+03 -.93492149E+02 0.43712970E+03 0.81214148E+02 0.0000E+00 0.0000E+00
       25  1    1    2    0    0 -.69945708E+02 -.44792356E+03 -.35292046E+02 0.47159140E+03 0.12500000E+03 0.0000E+00 0.9000E+01
        4  1    3    3  502    0 0.11173740E+01 0.23554977E+03 -.58199994E+02 0.24264085E+03 0.15500000E+01 0.0000E+00 0.9000E+01
       -3  1    3    3    0  502 0.71756452E+02 0.17728829E+03 -.35292154E+02 0.19448885E+03 0.50000000E+00 0.0000E+00 0.9000E+01
       21  1    1    2  503  501 -.29281173E+01 0.35085509E+02 -.80412440E+02 0.87785477E+02 0.75000000E+00 0.0000E+00 0.9000E+01
#aMCatNLO 2  0  0  2  4 0.49510489D+02 0.00000000D+00  -5  6  0 0.00000000D+00 0.00000000D+00 0.00000000D+00 0.00000000D+00 0.00000000D+00
  <mgrwgt>
 0.1553985015D-01    1    2    0
 0.449429945206787D+03 0.000000000000000D+00 0.000000000000000D+00 0.449429945206787D+03
 0.449429945206787D+03 0.000000000000000D+00 0.000000000000000D+00 -.449429945206787D+03
 0.454452564685091D+03 -.714530688172222D+02 -.429861957181307D+03 0.318636199091351D+02
 0.246091957877202D+03 0.305164934056428D+00 0.244913405939601D+03 -.240537356196851D+02
 0.198315367851280D+03 0.711479038831658D+02 0.184948551241706D+03 -.780988428944997D+01
 0.000000000000000D+00 -.000000000000000D+00 0.000000000000000D+00 -.000000000000000D+00
 0.454024654424813D+03 0.000000000000000D+00 0.000000000000000D+00 0.454024654424813D+03
 0.522688888915789D+03 0.000000000000000D+00 0.000000000000000D+00 -.522688888915789D+03
 0.471347230568623D+03 -.699457084949065D+02 -.447923564187175D+03 0.318636199091351D+02
 0.236721868738469D+03 0.109126837568274D+01 0.235494097750036D+03 -.240537356196851D+02
 0.191480048558183D+03 0.717825574524670D+02 0.177343957181554D+03 -.780988428944997D+01
 0.771643954753272D+02 -.292811733324330D+01 0.350855092555852D+02 -.686642344909758D+02
0.687908964471D-03 0.000000000000D+00 0.000000000000D+00 0.186361363608D-03 0.971114091641D-06  6 -1 2 25 4 -3 21 2 0.60562062D-01 0.92746032D-01 0.21729294D+06 0.21729294D+06 0.21729294D+06 0.10950700D+01  1  2  1  2  6  2        2 0.155398501496D-01 0.100000000000D+01
  </mgrwgt>
  </event>
  <event>
  7     66 0.18082911E-05 0.62135027E+02 0.75467711E-02 0.91288387E-01
       -1 -1    0    0    0  501 0.00000000E+00 0.00000000E+00 0.50437631E+03 0.50437641E+03 0.32000000E+00 0.0000E+00 0.9000E+01
        2 -1    0    0  503    0 0.00000000E+00 0.00000000E+00 -.11334930E+04 0.11334930E+04 0.32000000E+00 0.0000E+00 0.9000E+01
       24  2    1    2    0    0 -.37938393E+03 0.54835876E+03 0.47625994E+02 0.67247083E+03 0.72933445E+02 0.0000E+00 0.0000E+00
       25  1    1    2    0    0 0.35785738E+03 -.54843896E+03 -.65069705E+03 0.93160015E+03 0.12500000E+03 0.0000E+00 0.9000E+01
        4  1    3    3  502    0 -.21068980E+03 0.25998655E+03 0.50094389E+02 0.33837117E+03 0.15500000E+01 0.0000E+00 0.9000E+01
       -3  1    3    3    0  502 -.16869413E+03 0.28837221E+03 -.24683952E+01 0.33409966E+03 0.50000000E+00 0.0000E+00 0.9000E+01
       21  1    1    2  503  501 0.21526558E+02 0.80198422E-01 -.26045641E+02 0.33798477E+02 0.75000000E+00 0.0000E+00 0.9000E+01
#aMCatNLO 2  0  0  2  4 0.49510489D+02 0.00000000D+00  -5  6  0 0.00000000D+00 0.00000000D+00 0.00000000D+00 0.00000000D+00 0.00000000D+00
  <mgrwgt>
 0.2820937621D-02    1    2    0
 0.743116011214325D+03 0.000000000000000D+00 0.000000000000000D+00 0.743116011214325D+03
 0.743116011214325D+03 0.000000000000000D+00 0.000000000000000D+00 -.743116011214325D+03
 0.746583071735010D+03 0.368632420986828D+03 -.548398815249385D+03 -.324237814931794D+03
 0.382345505928478D+03 -.205064184953499D+03 0.259889174351298D+03 0.191296583890204D+03
 0.357303444765163D+03 -.163568236033330D+03 0.288509640898087D+03 0.132941231041590D+03
 0.000000000000000D+00 0.000000000000000D+00 0.000000000000000D+00 -.000000000000000D+00
 0.748944654786187D+03 0.000000000000000D+00 0.000000000000000D+00 0.748944654786187D+03
 0.763339294986380D+03 0.000000000000000D+00 0.000000000000000D+00 -.763339294986380D+03
 0.741351706678647D+03 0.357857375761074D+03 -.548438958296177D+03 -.324237814931794D+03
 0.385341731819643D+03 -.210623477488343D+03 0.259868462889241D+03 0.191296583890204D+03
 0.359694473058165D+03 -.168760456218918D+03 0.288490296985046D+03 0.132941231041590D+03
 0.258960382161134D+02 0.215265579461869D+02 0.801984218898073D-01 -.143946402001922D+02
0.501431350256D-03 0.000000000000D+00 0.000000000000D+00 0.398401830477D-05 0.526105784402D-07  6 -1 2 25 4 -3 21 2 0.77595807D-01 0.17438229D+00 0.46032505D+06 0.46032505D+06 0.46032505D+06 0.10710573D+01  1  2  1  2  6  2        2 0.282093762051D-02 0.100000000000D+01
  </mgrwgt>
  </event>
  <event>
  7     66 0.18082911E-05 0.59044271E+02 0.75467711E-02 0.94087575E-01
       -1 -1    0    0    0  501 0.00000000E+00 0.00000000E+00 0.19296097E+03 0.19296123E+03 0.32000000E+00 0.0000E+00 0.9000E+01
        2 -1    0    0  503    0 0.00000000E+00 0.00000000E+00 -.14979926E+04 0.14979926E+04 0.32000000E+00 0.0000E+00 0.9000E+01
       24  2    1    2    0    0 -.45676757E+03 0.15050910E+03 -.55767266E+03 0.74069854E+03 0.79661340E+02 0.0000E+00 0.0000E+00
       25  1    1    2    0    0 0.45498600E+03 -.65480469E+02 -.50883097E+03 0.69701786E+03 0.12500000E+03 0.0000E+00 0.9000E+01
        4  1    3    3  502    0 -.31253738E+03 0.14114064E+03 -.39461527E+03 0.52280389E+03 0.15500000E+01 0.0000E+00 0.9000E+01
       -3  1    3    3    0  502 -.14423019E+03 0.93684578E+01 -.16305739E+03 0.21789465E+03 0.50000000E+00 0.0000E+00 0.9000E+01
       21  1    1    2  503  501 0.17815751E+01 -.85028627E+02 -.23852797E+03 0.25323743E+03 0.75000000E+00 0.0000E+00 0.9000E+01
#aMCatNLO 2  0  0  2  4 0.49510489D+02 0.00000000D+00  -5  6  0 0.00000000D+00 0.00000000D+00 0.00000000D+00 0.00000000D+00 0.00000000D+00
  <mgrwgt>
 0.1460461782D-02    1    2    0
 0.480199289048857D+03 0.000000000000000D+00 0.000000000000000D+00 0.480199289048857D+03
 0.480199289048857D+03 0.000000000000000D+00 0.000000000000000D+00 -.480199289048857D+03
 0.485030132844269D+03 0.455876114211204D+03 -.107962816637949D+03 0.122567729122980D+02
 0.331307727217263D+03 -.311870828374022D+03 0.111349307280220D+03 -.101354966027982D+02
 0.144060718036181D+03 -.144005285837182D+03 -.338649064227120D+01 -.212127630949977D+01
 0.000000000000000D+00 0.000000000000000D+00 -.000000000000000D+00 -.000000000000000D+00
 0.501179788144731D+03 0.000000000000000D+00 0.000000000000000D+00 0.501179788144731D+03
 0.576745046610017D+03 0.000000000000000D+00 0.000000000000000D+00 -.576745046610017D+03
 0.476524057441903D+03 0.454985996457297D+03 -.654804693510257D+02 0.122567729122980D+02
 0.343041034104923D+03 -.312495077959580D+03 0.141142654925525D+03 -.101354966027982D+02
 0.144591778620823D+03 -.144272493566689D+03 0.936644177911494D+01 -.212127630949977D+01
 0.113767964587099D+03 0.178157506897140D+01 -.850286273536140D+02 -.755652584652852D+02
0.687979236278D-04 0.000000000000D+00 0.000000000000D+00 0.160050043375D-03 0.141400791997D-06  6 -1 2 25 4 -3 21 2 0.29686255D-01 0.23045986D+00 0.27503793D+06 0.27503793D+06 0.27503793D+06 0.10873543D+01  1  2  1  2  6  2        2 0.146046178176D-02 0.100000000000D+01
  </mgrwgt>
  </event>
  <event>
  6     66 0.18082911E-05 0.28516895E+02 0.75467711E-02 0.93249400E-01
       -1 -1    0    0    0  501 0.00000000E+00 0.00000000E+00 0.37112049E+03 0.37112063E+03 0.32000000E+00 0.0000E+00 0.9000E+01
        2 -1    0    0  501    0 -.00000000E+00 -.00000000E+00 -.90701404E+03 0.90701409E+03 0.32000000E+00 0.0000E+00 0.9000E+01
       25  1    1    2    0    0 -.29326009E+03 0.46217822E+03 -.40652498E+03 0.69317945E+03 0.12500000E+03 0.0000E+00 0.9000E+01
        4  1    1    2  503    0 0.18125741E+03 -.32467903E+03 -.73275884E+02 0.37900195E+03 0.15500000E+01 0.0000E+00 0.9000E+01
       -3  1    1    2    0  502 0.11474367E+03 -.14778955E+03 -.55898288E+02 0.19527603E+03 0.50000000E+00 0.0000E+00 0.9000E+01
       21  1    1    2  502  503 -.27409870E+01 0.10290352E+02 -.19439225E+00 0.10677296E+02 0.75000000E+00 0.0000E+00 0.9000E+01
#aMCatNLO 2  0  0  4  2 0.21276966D+02 0.00000000D+00  -5  6  0 0.00000000D+00 0.00000000D+00 0.00000000D+00 0.00000000D+00 0.00000000D+00
  <mgrwgt>
 0.3225687881D-02    1    2    0
 0.580182400542118D+03 0.000000000000000D+00 0.000000000000000D+00 0.580182400542118D+03
 0.580182400542118D+03 -.000000000000000D+00 -.000000000000000D+00 -.580182400542118D+03
 0.585846259776650D+03 -.298174657899271D+03 0.470833359475316D+03 -.130378913502645D+03
 0.388158477348254D+03 0.184795570740168D+03 -.325563041983861D+03 0.102597788798519D+03
 0.186360063959331D+03 0.113379087159102D+03 -.145270317491456D+03 0.277811247041259D+02
 0.000000000000000D+00 0.000000000000000D+00 0.000000000000000D+00 0.000000000000000D+00
 0.580182400542118D+03 0.000000000000000D+00 0.000000000000000D+00 0.580182400542118D+03
 0.580182400542118D+03 -.000000000000000D+00 -.000000000000000D+00 -.580182400542118D+03
 0.575765516022898D+03 -.293251170231748D+03 0.462159419857671D+03 -.127645412121409D+03
 0.383267248092776D+03 0.181029043988100D+03 -.324404242192736D+03 0.942558026899167D+02
 0.189651242692550D+03 0.114972809837986D+03 -.148078053636525D+03 0.286659533943188D+02
 0.116807942760117D+02 -.275068359433713D+01 0.103228759715897D+02 0.472365603717385D+01
0.220440437776D-03 0.000000000000D+00 0.000000000000D+00 0.361853759841D-06 0.184725572522D-07  6 -1 2 25 4 -3 21 2 0.57095475D-01 0.13954064D+00 0.31984102D+06 0.31984102D+06 0.31984102D+06 0.10825001D+01  1  2  1  3  6  4        4 0.322568788059D-02 0.100000000000D+01
  </mgrwgt>
  </event>
  <event>
  7     66 0.18082911E-05 0.37352984E+02 0.75467711E-02 0.90714531E-01
       -1 -1    0    0    0  503 0.00000000E+00 0.00000000E+00 0.70305503E+03 0.70305510E+03 0.32000000E+00 0.0000E+00 0.9000E+01
        2 -1    0    0  501    0 0.00000000E+00 0.00000000E+00 -.10777781E+04 0.10777782E+04 0.32000000E+00 0.0000E+00 0.9000E+01
       24  2    1    2    0    0 -.46574031E+03 -.52212484E+03 -.68176099E+03 0.98015618E+03 0.79873031E+02 0.0000E+00 0.0000E+00
       25  1    1    2    0    0 0.46733748E+03 0.53446030E+03 0.28464060E+03 0.77504671E+03 0.12500000E+03 0.0000E+00 0.9000E+01
        4  1    3    3  502    0 -.35143562E+03 -.40854911E+03 -.56756478E+03 0.78265673E+03 0.15500000E+01 0.0000E+00 0.9000E+01
       -3  1    3    3    0  502 -.11430469E+03 -.11357573E+03 -.11419620E+03 0.19749945E+03 0.50000000E+00 0.0000E+00 0.9000E+01
       21  1    1    2  501  503 -.15971719E+01 -.12335459E+02 0.22397301E+02 0.25630374E+02 0.75000000E+00 0.0000E+00 0.9000E+01
#aMCatNLO 2  0  0  1  2 0.82032524D+01 0.00000000D+00  -5  6  0 0.00000000D+00 0.00000000D+00 0.00000000D+00 0.00000000D+00 0.00000000D+00
  <mgrwgt>
 0.3631265456D-02    1    2    0
 0.854821306931049D+03 0.000000000000000D+00 0.000000000000000D+00 0.854821306931049D+03
 0.854821306931049D+03 0.000000000000000D+00 0.000000000000000D+00 -.854821306931049D+03
 0.857525175811484D+03 0.466534385772817D+03 0.528257739198425D+03 0.472243427713996D+03
 0.674914092776013D+03 -.352035305714128D+03 -.413380055744180D+03 -.400870435017809D+03
 0.177203345274602D+03 -.114499080058689D+03 -.114877683454245D+03 -.713729926961874D+02
 0.000000000000000D+00 -.000000000000000D+00 -.000000000000000D+00 0.000000000000000D+00
 0.885070304385546D+03 0.000000000000000D+00 0.000000000000000D+00 0.885070304385546D+03
 0.856123562181381D+03 0.000000000000000D+00 0.000000000000000D+00 -.856123562181381D+03
 0.861795213169197D+03 0.467337481661461D+03 0.534460300355976D+03 0.472243427713996D+03
 0.671620447782010D+03 -.351406338384728D+03 -.408522344004068D+03 -.400870435017809D+03
 0.176272199929629D+03 -.114333971357071D+03 -.113602497223174D+03 -.713729926961874D+02
 0.315060056860911D+02 -.159717191966162D+01 -.123354591287338D+02 0.289467422041649D+02
0.124570198951D-02 0.000000000000D+00 0.000000000000D+00 0.141339447388D-03 0.555847582695D-05  6 -1 2 25 4 -3 21 2 0.10816176D+00 0.16581116D+00 0.51363550D+06 0.51363550D+06 0.51363550D+06 0.10676855D+01  1  2  1  1  6  1       -1 0.363126545595D-02 0.100000000000D+01
  </mgrwgt>
  </event>
  <event>
  6     66 0.18082911E-05 0.14778654E+02 0.75467711E-02 0.94740866E-01
       -1 -1    0    0    0  501 0.00000000E+00 0.00000000E+00 0.10118275E+03 0.10118325E+03 0.32000000E+00 0.0000E+00 0.9000E+01
        2 -1    0    0  501    0 -.00000000E+00 -.00000000E+00 -.24278312E+04 0.24278312E+04 0.32000000E+00 0.0000E+00 0.9000E+01
       24  2    1    2    0    0 0.47849193E+03 -.75715439E+02 -.11801927E+04 0.12781455E+04 0.78190848E+02 0.0000E+00 0.0000E+00
       25  1    1    2    0    0 -.47849193E+03 0.75715439E+02 -.11464558E+04 0.12508690E+04 0.12500000E+03 0.0000E+00 0.9000E+01
        4  1    3    3  502    0 0.96015449E+01 -.13214383E+02 -.59230037E+02 0.61460633E+02 0.15500000E+01 0.0000E+00 0.9000E+01
       -3  1    3    3    0  502 0.46889038E+03 -.62501056E+02 -.11209626E+04 0.12166848E+04 0.50000000E+00 0.0000E+00 0.9000E+01
#aMCatNLO 1  0  0  4  4 0.28526520D+01 0.00000000D+00  -5  6  0 0.00000000D+00 0.00000000D+00 0.00000000D+00 0.00000000D+00 0.00000000D+00
  <mgrwgt>
 0.1051768007D-02    7    2    0
 0.495636257786226D+03 0.000000000000000D+00 0.000000000000000D+00 0.495636257786226D+03
 0.495636257786226D+03 -.000000000000000D+00 -.000000000000000D+00 -.495636257786226D+03
 0.500433723294623D+03 -.478491928636216D+03 0.757154387727511D+02 0.110253331905943D+02
 0.175972986680985D+02 0.941759388671574D+01 -.131903516526503D+02 -.685481356993620D+01
 0.473241493609730D+03 0.469074334749500D+03 -.625250871201008D+02 -.417051962065812D+01
 0.000000000000000D+00 0.000000000000000D+00 0.000000000000000D+00 -.000000000000000D+00
 0.495636257786226D+03 0.000000000000000D+00 0.000000000000000D+00 0.495636257786226D+03
 0.495636257786226D+03 -.000000000000000D+00 -.000000000000000D+00 -.495636257786226D+03
 0.499874429596026D+03 -.478019198466243D+03 0.750533294002544D+02 0.106812456005974D+02
 0.141067575320062D+02 0.557130117519046D+01 -.122406438425093D+02 -.425768124722543D+01
 0.473771227178759D+03 0.469521878322119D+03 -.631519199580574D+02 -.449627456312347D+01
 0.352010126566071D+01 0.292601896893282D+01 0.339234400312342D+00 -.192728979024851D+01
0.144584497580D-04 0.000000000000D+00 0.000000000000D+00 0.977447299394D-05 0.000000000000D+00  6 -1 2 25 4 -3 21 0 0.15566617D-01 0.37351253D+00 0.24489764D+06 0.24489764D+06 0.24489764D+06 0.10911335D+01  1  2  2  3  6  4        4 0.230067975188D-03 0.100000000000D+01
0.585776621810D-05 0.000000000000D+00 -.555242540679D-07 0.977447299394D-05 0.000000000000D+00  6 -1 2 25 4 -3 21 2 0.15566617D-01 0.37351253D+00 0.24489764D+06 0.24489764D+06 0.24489764D+06 0.10911335D+01  1  2  3  3  6  4        4 0.110974251046D-03 0.100000000000D+01
-.429412796376D-05 0.000000000000D+00 0.000000000000D+00 0.977447299394D-05 0.000000000000D+00  6 -1 2 25 4 -3 21 2 0.15566617D-01 0.37351253D+00 0.24489764D+06 0.24489764D+06 0.24489764D+06 0.10911335D+01  1  2 15  3  6  4        4 -.813514259411D-04 0.100000000000D+01
-.212842401160D-03 0.000000000000D+00 0.000000000000D+00 0.977447299394D-05 0.000000000000D+00  6 -1 2 25 4 -3 21 2 0.15566617D-01 0.37351253D+00 0.24489764D+06 0.24489764D+06 0.24489764D+06 0.10911335D+01  1  2  4  3  6  4        4 -.403225823293D-02 0.100000000000D+01
-.379375127817D-04 0.000000000000D+00 0.000000000000D+00 0.977447299394D-05 0.000000000000D+00  6 -1 2 25 4 -3 21 2 0.15566617D-01 0.37351253D+00 0.24489764D+06 0.24489764D+06 0.24489764D+06 0.10911335D+01  1  2  5  3  6  4        4 -.718718861548D-03 0.100000000000D+01
0.707460938254D-04 0.000000000000D+00 -.000000000000D+00 0.977447299394D-05 0.000000000000D+00  6 -1 2 25 4 -3 21 2 0.15566617D-01 0.37351253D+00 0.24489764D+06 0.24489764D+06 0.24489764D+06 0.10911335D+01  1  2  6  3  6  4        4 0.134027110068D-02 0.100000000000D+01
0.221850873021D-03 0.000000000000D+00 0.000000000000D+00 0.977447299394D-05 0.265993521794D-04  6 -1 2 25 4 -3 21 2 0.15566617D-01 0.37351253D+00 0.24497783D+06 0.24497783D+06 0.24497783D+06 0.10911227D+01  1  2 11  3  6  4        4 0.420278320067D-02 0.100000000000D+01
  </mgrwgt>
  </event>
  <event>
  6     66 0.18082911E-05 0.11049735E+02 0.75467711E-02 0.93916546E-01
       -1 -1    0    0    0  501 0.00000000E+00 0.00000000E+00 0.26780688E+03 0.26780707E+03 0.32000000E+00 0.0000E+00 0.9000E+01
        2 -1    0    0  501    0 -.00000000E+00 -.00000000E+00 -.10787424E+04 0.10787425E+04 0.32000000E+00 0.0000E+00 0.9000E+01
       25  1    1    2    0    0 0.34156882E+03 -.39212102E+03 -.40317704E+03 0.66977972E+03 0.12500000E+03 0.0000E+00 0.9000E+01
        4  1    1    2  503    0 -.15913033E+02 0.18039417E+02 -.44839585E+02 0.50908114E+02 0.15500000E+01 0.0000E+00 0.9000E+01
       -3  1    1    2    0  502 -.31735255E+03 0.38073035E+03 -.36427307E+03 0.61511248E+03 0.50000000E+00 0.0000E+00 0.9000E+01
       21  1    1    2  502  503 -.83032383E+01 -.66487467E+01 0.13541417E+01 0.10749223E+02 0.75000000E+00 0.0000E+00 0.9000E+01
#aMCatNLO 2  0  0  4  1 0.73505157D+00 0.00000000D+00  -5  6  0 0.00000000D+00 0.00000000D+00 0.00000000D+00 0.00000000D+00 0.00000000D+00
  <mgrwgt>
 0.1114721459D-01    1    2    0
 0.537489349350978D+03 0.000000000000000D+00 0.000000000000000D+00 0.537489349350978D+03
 0.537489349350978D+03 -.000000000000000D+00 -.000000000000000D+00 -.537489349350978D+03
 0.541940085958068D+03 0.348770002609508D+03 -.395508261286327D+03 0.259948115352963D+01
 0.434505069707485D+02 -.377338408689070D+02 0.175465936401837D+02 -.124988343825065D+02
 0.489588105773140D+03 -.311036161740602D+03 0.377961667646144D+03 0.989935322897685D+01
 0.000000000000000D+00 0.000000000000000D+00 0.000000000000000D+00 0.000000000000000D+00
 0.537489349350978D+03 0.000000000000000D+00 0.000000000000000D+00 0.537489349350978D+03
 0.537489349350978D+03 -.000000000000000D+00 -.000000000000000D+00 -.537489349350978D+03
 0.534696108492426D+03 0.341393625892470D+03 -.392078176200623D+03 0.156154187437263D+00
 0.289295101422192D+02 -.144650777591428D+02 0.176421689003297D+02 -.177885344810346D+02
 0.496274867710018D+03 -.317790622273579D+03 0.381102555811824D+03 0.766202775134620D+01
 0.150782123572929D+02 -.913792585974803D+01 -.666654851153093D+01 0.997035254225116D+01
0.533916625588D-03 0.000000000000D+00 0.000000000000D+00 0.156647843756D-04 0.313666534732D-05  6 -1 2 25 4 -3 21 2 0.41201076D-01 0.16596039D+00 0.28357606D+06 0.28357606D+06 0.28357606D+06 0.10863656D+01  1  2  1  3  6  4        4 0.111472145872D-01 0.100000000000D+01
  </mgrwgt>
  </event>
  <event>
  7     66 0.18082911E-05 0.39805538E+02 0.75467711E-02 0.95018485E-01
       21 -1    0    0  503  501 0.00000000E+00 0.00000000E+00 0.50296052E+03 0.50296108E+03 0.75000000E+00 0.0000E+00 0.9000E+01
        2 -1    0    0  501    0 0.00000000E+00 0.00000000E+00 -.66220077E+03 0.66220085E+03 0.32000000E+00 0.0000E+00 0.9000E+01
       24  2    1    2    0    0 0.22519578E+03 0.40883856E+03 -.10415554E+03 0.48498590E+03 0.80627773E+02 0.0000E+00 0.0000E+00
       25  1    1    2    0    0 -.23646749E+03 -.39179334E+03 -.21366432E+03 0.52028486E+03 0.12500000E+03 0.0000E+00 0.9000E+01
        4  1    3    3  502    0 0.13832501E+03 0.31132959E+03 -.53224002E+02 0.34481171E+03 0.15500000E+01 0.0000E+00 0.9000E+01
        1  1    1    2  503    0 0.11271704E+02 -.17045217E+02 0.15857961E+03 0.15989117E+03 0.32000000E+00 0.0000E+00 0.9000E+01
       -3  1    3    3    0  502 0.86870771E+02 0.97508968E+02 -.50931541E+02 0.14017418E+03 0.50000000E+00 0.0000E+00 0.9000E+01
#aMCatNLO 2  0  0  1  2 0.36885753D+01 0.00000000D+00  -5  6  0 0.00000000D+00 0.00000000D+00 0.00000000D+00 0.00000000D+00 0.00000000D+00
  <mgrwgt>
 0.1128084070D-02    1    2    0
 0.476744752246492D+03 0.000000000000000D+00 0.000000000000000D+00 0.476744752246492D+03
 0.476744752246492D+03 0.000000000000000D+00 0.000000000000000D+00 -.476744752246492D+03
 0.481529368288453D+03 -.230801247834912D+03 -.400361899168478D+03 -.518330610357291D+02
 0.341831394841178D+03 0.142361481277821D+03 0.305160995716956D+03 0.588105249125187D+02
 0.000000000000000D+00 0.000000000000000D+00 -.000000000000000D+00 0.000000000000000D+00
 0.130128741363353D+03 0.884397665570905D+02 0.952009034515216D+02 -.697746387678960D+01
 0.697763130452579D+03 0.000000000000000D+00 0.000000000000000D+00 0.697763130452579D+03
 0.477326812294690D+03 0.000000000000000D+00 0.000000000000000D+00 -.477326812294690D+03
 0.477211230959778D+03 -.236467487251180D+03 -.391793338650527D+03 -.518330610357291D+02
 0.345682223294332D+03 0.138298216651962D+03 0.311305517028069D+03 0.588105249125187D+02
 0.221381483154438D+03 0.112717040325650D+02 -.170452165974788D+02 0.220436318157889D+03
 0.130815005338720D+03 0.868975665666536D+02 0.975330382199364D+02 -.697746387678960D+01
0.117452155597D-04 0.000000000000D+00 0.000000000000D+00 0.172960154906D-03 0.130415332994D-06  6 21 2 25 4 1 -3 2 0.77378571D-01 0.10187707D+00 0.23333467D+06 0.23333467D+06 0.23333467D+06 0.10927202D+01  1  2  1  5  5  1       -1 0.112808406961D-02 0.100000000000D+01
  </mgrwgt>
  </event>
  <event>
  7     66 0.18082911E-05 0.58762517E+02 0.75467711E-02 0.89159657E-01
       -1 -1    0    0    0  503 0.00000000E+00 0.00000000E+00 0.54737471E+03 0.54737481E+03 0.32000000E+00 0.0000E+00 0.9000E+01
        2 -1    0    0  501    0 0.00000000E+00 0.00000000E+00 -.16677722E+04 0.16677722E+04 0.32000000E+00 0.0000E+00 0.9000E+01
       24  2    1    2    0    0 0.29074985E+03 -.76480053E+03 -.99951518E+02 0.82819365E+03 0.80368505E+02 0.0000E+00 0.0000E+00
       25  1    1    2    0    0 -.30924617E+03 0.75658705E+03 -.10589046E+04 0.13434884E+04 0.12500000E+03 0.0000E+00 0.9000E+01
        4  1    3    3  502    0 0.13314698E+03 -.45525450E+03 -.44096500E+02 0.47637347E+03 0.15500000E+01 0.0000E+00 0.9000E+01
       -3  1    3    3    0  502 0.15760287E+03 -.30954602E+03 -.55855019E+02 0.35182018E+03 0.50000000E+00 0.0000E+00 0.9000E+01
       21  1    1    2  501  503 0.18496322E+02 0.82134752E+01 0.38458634E+02 0.43464976E+02 0.75000000E+00 0.0000E+00 0.9000E+01
#aMCatNLO 2  0  0  1  2 0.36885753D+01 0.00000000D+00  -5  6  0 0.00000000D+00 0.00000000D+00 0.00000000D+00 0.00000000D+00 0.00000000D+00
  <mgrwgt>
 0.1527839005D-02    1    2    0
 0.918265473121161D+03 0.000000000000000D+00 0.000000000000000D+00 0.918265473121161D+03
 0.918265473121161D+03 0.000000000000000D+00 0.000000000000000D+00 -.918265473121161D+03
 0.920760912518776D+03 -.299974799349853D+03 0.760704095977151D+03 -.404376132012029D+03
 0.534666412724823D+03 0.138481470408457D+03 -.452764362682150D+03 0.248385762745309D+03
 0.381103620998722D+03 0.161493328941396D+03 -.307939733295001D+03 0.155990369266720D+03
 0.000000000000000D+00 0.000000000000000D+00 0.000000000000000D+00 0.000000000000000D+00
 0.992598707201598D+03 0.000000000000000D+00 0.000000000000000D+00 0.992598707201598D+03
 0.919699755856262D+03 0.000000000000000D+00 0.000000000000000D+00 -.919699755856262D+03
 0.920435884070142D+03 -.309246174582944D+03 0.756587049881763D+03 -.404376132012029D+03
 0.535329068946437D+03 0.133093491444630D+03 -.455156948161366D+03 0.248385762745309D+03
 0.380877497654936D+03 0.157656361114460D+03 -.309643576901032D+03 0.155990369266720D+03
 0.756560123863447D+02 0.184963220238534D+02 0.821347518063496D+01 0.728989513453366D+02
0.675826960887D-03 0.000000000000D+00 0.000000000000D+00 0.211502952592D-03 0.309584086460D-05  6 -1 2 25 4 -3 21 2 0.84211334D-01 0.25657983D+00 0.69620219D+06 0.69620219D+06 0.69620219D+06 0.10584958D+01  1  2  1  1  6  1       -1 0.152783900509D-02 0.100000000000D+01
  </mgrwgt>
  </event>
  <event>
  7     66 0.18082911E-05 0.59293648E+02 0.75467711E-02 0.94997834E-01
       -1 -1    0    0    0  501 0.00000000E+00 0.00000000E+00 0.28328930E+03 0.28328948E+03 0.32000000E+00 0.0000E+00 0.9000E+01
        2 -1    0    0  503    0 0.00000000E+00 0.00000000E+00 -.10298779E+04 0.10298780E+04 0.32000000E+00 0.0000E+00 0.9000E+01
       24  2    1    2    0    0 -.37004380E+03 -.24327291E+03 -.12013155E+03 0.46694055E+03 0.86531898E+02 0.0000E+00 0.0000E+00
       25  1    1    2    0    0 0.38393327E+03 0.27444686E+03 -.44178412E+03 0.65842543E+03 0.12500000E+03 0.0000E+00 0.9000E+01
        4  1    3    3  502    0 -.14898311E+03 -.12676336E+03 -.16154630E+02 0.19628625E+03 0.15500000E+01 0.0000E+00 0.9000E+01
       -3  1    3    3    0  502 -.22106069E+03 -.11650955E+03 -.10397692E+03 0.27065431E+03 0.50000000E+00 0.0000E+00 0.9000E+01
       21  1    1    2  503  501 -.13889472E+02 -.31173958E+02 -.18467298E+03 0.18780150E+03 0.75000000E+00 0.0000E+00 0.9000E+01
#aMCatNLO 2  0  0  2  1 0.91324834D+02 0.00000000D+00  -5  6  0 0.00000000D+00 0.00000000D+00 0.00000000D+00 0.00000000D+00 0.00000000D+00
  <mgrwgt>
 0.2069009949D-02    1    2    0
 0.487220338259782D+03 0.000000000000000D+00 0.000000000000000D+00 0.487220338259782D+03
 0.487220338259782D+03 0.000000000000000D+00 0.000000000000000D+00 -.487220338259782D+03
 0.491395675823157D+03 0.376831830679714D+03 0.258508173944451D+03 -.130445412369228D+03
 0.223475326969159D+03 -.152056580349130D+03 -.133776436401261D+03 0.944663072226312D+02
 0.259569673727248D+03 -.224775250330584D+03 -.124731737543190D+03 0.359791051465971D+02
 0.000000000000000D+00 -.000000000000000D+00 -.000000000000000D+00 -.000000000000000D+00
 0.490224720484978D+03 0.000000000000000D+00 0.000000000000000D+00 0.490224720484978D+03
 0.595139400147129D+03 0.000000000000000D+00 0.000000000000000D+00 -.595139400147129D+03
 0.505338347584292D+03 0.383933271821626D+03 0.274446866841991D+03 -.130445412369228D+03
 0.217165236072664D+03 -.148917144000320D+03 -.126730188909364D+03 0.944663072226312D+02
 0.252534551549754D+03 -.221126656092879D+03 -.116542720426748D+03 0.359791051465971D+02
 0.110325985425397D+03 -.138894717284266D+02 -.311739575058789D+02 -.104914679662152D+03
0.100517193570D-03 0.000000000000D+00 0.000000000000D+00 0.478534171602D-05 0.267928342932D-07  6 -1 2 25 4 -3 21 2 0.43582874D-01 0.15844237D+00 0.23417902D+06 0.23417902D+06 0.23417902D+06 0.10926015D+01  1  2  1  2  6  2        2 0.206900994916D-02 0.100000000000D+01
  </mgrwgt>
  </event>
  <event>
  7     66 0.18082911E-05 0.51628558E+02 0.75467711E-02 0.90157851E-01
       -1 -1    0    0    0  503 0.00000000E+00 0.00000000E+00 0.52498428E+03 0.52498438E+03 0.32000000E+00 0.0000E+00 0.9000E+01
        2 -1    0    0  501    0 0.00000000E+00 0.00000000E+00 -.12808704E+04 0.12808705E+04 0.32000000E+00 0.0000E+00 0.9000E+01
       24  2    1    2    0    0 -.38798007E+03 -.64128595E+03 -.47514379E+03 0.89119573E+03 0.81804721E+02 0.0000E+00 0.0000E+00
       25  1    1    2    0    0 0.36424652E+03 0.62093552E+03 -.37077440E+03 0.81935041E+03 0.12500000E+03 0.0000E+00 0.9000E+01
        4  1    3    3  502    0 -.24927385E+03 -.37184117E+03 -.32350443E+03 0.55232312E+03 0.15500000E+01 0.0000E+00 0.9000E+01
       -3  1    3    3    0  502 -.13870621E+03 -.26944478E+03 -.15163936E+03 0.33887261E+03 0.50000000E+00 0.0000E+00 0.9000E+01
       21  1    1    2  501  503 0.23733544E+02 0.20350434E+02 0.90032031E+02 0.95308711E+02 0.75000000E+00 0.0000E+00 0.9000E+01
#aMCatNLO 2  0  0  1  2 0.36885753D+01 0.00000000D+00  -5  6  0 0.00000000D+00 0.00000000D+00 0.00000000D+00 0.00000000D+00 0.00000000D+00
  <mgrwgt>
 0.8401977755D-03    1    2    0
 0.743204737269135D+03 0.000000000000000D+00 0.000000000000000D+00 0.743204737269135D+03
 0.743204737269135D+03 0.000000000000000D+00 0.000000000000000D+00 -.743204737269135D+03
 0.746209625157480D+03 0.376044375793747D+03 0.631051640385786D+03 0.396012534898431D+02
 0.442339914943702D+03 -.242099679602406D+03 -.365641497929439D+03 -.579537788304610D+02
 0.297859934437088D+03 -.133944696191341D+03 -.265410142456346D+03 0.183525253406179D+02
 0.000000000000000D+00 0.000000000000000D+00 0.000000000000000D+00 0.000000000000000D+00
 0.902715876954366D+03 0.000000000000000D+00 0.000000000000000D+00 0.902715876954366D+03
 0.744902593581162D+03 0.000000000000000D+00 0.000000000000000D+00 -.744902593581162D+03
 0.731730624261776D+03 0.364246522711386D+03 0.620935518308645D+03 0.396012534898431D+02
 0.451309358256991D+03 -.249233352859172D+03 -.371758298081136D+03 -.579537788304610D+02
 0.303698241666580D+03 -.138746713718743D+03 -.269527653937854D+03 0.183525253406179D+02
 0.160880246350181D+03 0.237335438665295D+02 0.203504337103445D+02 0.157813283373204D+03
0.202244974043D-03 0.000000000000D+00 0.000000000000D+00 0.116521790371D-03 0.733665769535D-06  6 -1 2 25 4 -3 21 2 0.80766729D-01 0.19705677D+00 0.57201848D+06 0.57201848D+06 0.57201848D+06 0.10644045D+01  1  2  1  1  6  1       -1 0.840197775492D-03 0.100000000000D+01
  </mgrwgt>
  </event>
  <event>
  7     66 0.18082911E-05 0.44648619E+02 0.75467711E-02 0.89174542E-01
       -1 -1    0    0    0  501 0.00000000E+00 0.00000000E+00 0.61278499E+03 0.61278507E+03 0.32000000E+00 0.0000E+00 0.9000E+01
        2 -1    0    0  503    0 0.00000000E+00 0.00000000E+00 -.17474234E+04 0.17474234E+04 0.32000000E+00 0.0000E+00 0.9000E+01
       24  2    1    2    0    0 0.44535449E+02 0.82561662E+03 -.11244291E+04 0.13978474E+04 0.77525691E+02 0.0000E+00 0.0000E+00
       25  1    1    2    0    0 -.41453899E+02 -.81065697E+03 0.12109975E+03 0.83016462E+03 0.12500000E+03 0.0000E+00 0.9000E+01
        4  1    3    3  502    0 0.62896039E+02 0.56730483E+03 -.79966894E+03 0.98247824E+03 0.15500000E+01 0.0000E+00 0.9000E+01
       -3  1    3    3    0  502 -.18360590E+02 0.25831180E+03 -.32476017E+03 0.41536913E+03 0.50000000E+00 0.0000E+00 0.9000E+01
       21  1    1    2  503  501 -.30815500E+01 -.14959657E+02 -.13130903E+03 0.13219649E+03 0.75000000E+00 0.0000E+00 0.9000E+01
#aMCatNLO 2  0  0  2  1 0.42738350D+02 0.00000000D+00  -5  6  0 0.00000000D+00 0.00000000D+00 0.00000000D+00 0.00000000D+00 0.00000000D+00
  <mgrwgt>
 0.5534570278D-02    1    2    0
 0.994627360258094D+03 0.000000000000000D+00 0.000000000000000D+00 0.994627360258094D+03
 0.994627360258094D+03 0.000000000000000D+00 0.000000000000000D+00 -.994627360258094D+03
 0.997044035996562D+03 -.429936003904762D+02 -.818131585664545D+03 0.554332092323542D+03
 0.692611435979882D+03 0.618297293856018D+02 0.562000288701356D+03 -.400054197970488D+03
 0.299599248539743D+03 -.188361289951256D+02 0.256131296963189D+03 -.154277894353055D+03
 0.000000000000000D+00 -.000000000000000D+00 -.000000000000000D+00 -.000000000000000D+00
 0.995375731315204D+03 0.000000000000000D+00 0.000000000000000D+00 0.995375731315204D+03
 0.107576588526501D+04 0.000000000000000D+00 0.000000000000000D+00 -.107576588526501D+04
 0.990854284527795D+03 -.414538986773650D+02 -.810656967447846D+03 0.554332092323542D+03
 0.696954004550734D+03 0.629059998704526D+02 0.567225139010774D+03 -.400054197970488D+03
 0.301505067431688D+03 -.183705511858866D+02 0.258391485637784D+03 -.154277894353055D+03
 0.818282600700021D+02 -.308155000720105D+01 -.149596572007123D+02 -.803901539498102D+02
0.345429402733D-02 0.000000000000D+00 0.000000000000D+00 0.214340963253D-04 0.551176130940D-06  6 -1 2 25 4 -3 21 2 0.94274460D-01 0.26883391D+00 0.69414271D+06 0.69414271D+06 0.69414271D+06 0.10585841D+01  1  2  1  2  6  2        2 0.553457027784D-02 0.100000000000D+01
  </mgrwgt>
  </event>
  <event>
  7     66 0.18082911E-05 0.23390176E+02 0.75467711E-02 0.93752496E-01
       -1 -1    0    0    0  501 0.00000000E+00 0.00000000E+00 0.35422667E+03 0.35422682E+03 0.32000000E+00 0.0000E+00 0.9000E+01
        2 -1    0    0  503    0 0.00000000E+00 0.00000000E+00 -.84406291E+03 0.84406297E+03 0.32000000E+00 0.0000E+00 0.9000E+01
       24  2    1    2    0    0 0.28970110E+03 0.44571807E+03 -.19696241E+03 0.57255220E+03 0.80190443E+02 0.0000E+00 0.0000E+00
       25  1    1    2    0    0 -.27597919E+03 -.42498668E+03 -.25617046E+03 0.58140046E+03 0.12500000E+03 0.0000E+00 0.9000E+01
        4  1    3    3  502    0 0.22641470E+03 0.38313829E+03 -.13861324E+03 0.46612724E+03 0.15500000E+01 0.0000E+00 0.9000E+01
       -3  1    3    3    0  502 0.63286406E+02 0.62579772E+02 -.58349174E+02 0.10642496E+03 0.50000000E+00 0.0000E+00 0.9000E+01
       21  1    1    2  503  501 -.13721914E+02 -.20731384E+02 -.36703367E+02 0.44337128E+02 0.75000000E+00 0.0000E+00 0.9000E+01
#aMCatNLO 2  0  0  2  1 0.42738350D+02 0.00000000D+00  -5  6  0 0.00000000D+00 0.00000000D+00 0.00000000D+00 0.00000000D+00 0.00000000D+00
  <mgrwgt>
 0.1131100248D-02    1    2    0
 0.530485453990989D+03 0.000000000000000D+00 0.000000000000000D+00 0.530485453990989D+03
 0.530485453990989D+03 0.000000000000000D+00 0.000000000000000D+00 -.530485453990989D+03
 0.534818510105626D+03 -.282817537868167D+03 -.435318217200676D+03 -.303006402410003D+02
 0.437346170396455D+03 0.220677730846363D+03 0.374484698990664D+03 0.483137877920636D+02
 0.888062274798975D+02 0.621398070218043D+02 0.608335182100119D+02 -.180131475510634D+02
 0.000000000000000D+00 -.000000000000000D+00 -.000000000000000D+00 -.000000000000000D+00
 0.536406742032815D+03 0.000000000000000D+00 0.000000000000000D+00 0.536406742032815D+03
 0.557384744950985D+03 0.000000000000000D+00 0.000000000000000D+00 -.557384744950985D+03
 0.522801416988215D+03 -.275979189118580D+03 -.424986682119948D+03 -.303006402410003D+02
 0.447637762898533D+03 0.226399851448120D+03 0.383129810829509D+03 0.483137877920636D+02
 0.908229690708468D+02 0.633012517527082D+02 0.625882557089417D+02 -.180131475510634D+02
 0.325293380262050D+02 -.137219140822489D+02 -.207313844185027D+02 -.209780029181699D+02
0.638552240538D-04 0.000000000000D+00 0.000000000000D+00 0.109236618242D-03 0.111129907792D-05  6 -1 2 25 4 -3 21 2 0.54495991D-01 0.12985481D+00 0.29204591D+06 0.29204591D+06 0.29204591D+06 0.10854163D+01  1  2  1  2  6  2        2 0.113110024766D-02 0.100000000000D+01
  </mgrwgt>
  </event>
  <event>
  7     66 0.18082911E-05 0.39544631E+02 0.75467711E-02 0.94234675E-01
       -1 -1    0    0    0  501 0.00000000E+00 0.00000000E+00 0.15656677E+04 0.15656677E+04 0.32000000E+00 0.0000E+00 0.9000E+01
       21 -1    0    0  501  503 0.00000000E+00 0.00000000E+00 -.19188108E+03 0.19188255E+03 0.75000000E+00 0.0000E+00 0.9000E+01
       24  2    1    2    0    0 -.46694301E+03 0.19657983E+03 0.79971815E+03 0.95016428E+03 0.81139570E+02 0.0000E+00 0.0000E+00
       25  1    1    2    0    0 0.45444484E+03 -.19572007E+03 0.59444495E+03 0.78346427E+03 0.12500000E+03 0.0000E+00 0.9000E+01
        4  1    3    3  502    0 -.96869504E+02 0.76001542E+02 0.17106848E+03 0.21077657E+03 0.15500000E+01 0.0000E+00 0.9000E+01
       -3  1    3    3    0  502 -.37007351E+03 0.12057829E+03 0.62864967E+03 0.73938770E+03 0.50000000E+00 0.0000E+00 0.9000E+01
       -2  1    1    2    0  503 0.12498173E+02 -.85975826E+00 -.20376511E+02 0.23921708E+02 0.32000000E+00 0.0000E+00 0.9000E+01
#aMCatNLO 2  0  0  2  1 0.42738350D+02 0.00000000D+00  -5  6  0 0.00000000D+00 0.00000000D+00 0.00000000D+00 0.00000000D+00 0.00000000D+00
  <mgrwgt>
 0.2757787178D-03    1    2    0
 0.515174785098582D+03 0.000000000000000D+00 0.000000000000000D+00 0.515174785098582D+03
 0.515174785098582D+03 0.000000000000000D+00 0.000000000000000D+00 -.515174785098582D+03
 0.519562310785893D+03 0.460712261982776D+03 -.196151209938485D+03 -.599075061036524D+02
 0.121796900908623D+03 -.952532873891233D+02 0.758582689605773D+02 0.261138714380801D+01
 0.388990358502648D+03 -.365458974593652D+03 0.120292940977908D+03 0.572961189598444D+02
 0.000000000000000D+00 0.000000000000000D+00 -.000000000000000D+00 -.000000000000000D+00
 0.515796455085141D+03 0.000000000000000D+00 0.000000000000000D+00 0.515796455085141D+03
 0.582444647409592D+03 0.000000000000000D+00 0.000000000000000D+00 -.582444647409592D+03
 0.513848584239932D+03 0.454444840030047D+03 -.195720069507164D+03 -.599075061036524D+02
 0.123024627537733D+03 -.967380789945447D+02 0.759604088353156D+02 0.261138714380801D+01
 0.393552515930457D+03 -.370204934224793D+03 0.120619418929742D+03 0.572961189598444D+02
 0.678153747866114D+02 0.124981731892914D+02 -.859758257893468D+00 -.666481923244511D+02
0.284488492177D-04 0.000000000000D+00 0.000000000000D+00 0.156674762939D-03 0.122891145936D-06  6 -1 21 25 4 -3 -2 2 0.24087189D+00 0.29520260D-01 0.26792449D+06 0.26792449D+06 0.26792449D+06 0.10882040D+01  1  2  1  6  6  2        2 0.275778717780D-03 0.100000000000D+01
  </mgrwgt>
  </event>
  <event>
  7     66 0.18082911E-05 0.45832814E+02 0.75467711E-02 0.89010134E-01
       -1 -1    0    0    0  501 0.00000000E+00 0.00000000E+00 0.11055332E+04 0.11055333E+04 0.32000000E+00 0.0000E+00 0.9000E+01
       21 -1    0    0  501  503 0.00000000E+00 0.00000000E+00 -.85763957E+03 0.85763990E+03 0.75000000E+00 0.0000E+00 0.9000E+01
       24  2    1    2    0    0 0.83607443E+03 0.52049287E+02 -.30591126E+03 0.89636607E+03 0.90337442E+02 0.0000E+00 0.0000E+00
       25  1    1    2    0    0 -.81615816E+03 -.31065825E+02 0.59376139E+03 0.10174757E+04 0.12500000E+03 0.0000E+00 0.9000E+01
        4  1    3    3  502    0 0.25911951E+03 -.23936537E+01 -.55242689E+02 0.26495813E+03 0.15500000E+01 0.0000E+00 0.9000E+01
       -3  1    3    3    0  502 0.57695491E+03 0.54442941E+02 -.25066857E+03 0.63140794E+03 0.50000000E+00 0.0000E+00 0.9000E+01
       -2  1    1    2    0  503 -.19916268E+02 -.20983462E+02 -.39956483E+02 0.49331393E+02 0.32000000E+00 0.0000E+00 0.9000E+01
#aMCatNLO 2  0  0  2  1 0.42738350D+02 0.00000000D+00  -5  6  0 0.00000000D+00 0.00000000D+00 0.00000000D+00 0.00000000D+00 0.00000000D+00
  <mgrwgt>
 0.1481368475D-04    1    2    0
 0.945924900737950D+03 0.000000000000000D+00 0.000000000000000D+00 0.945924900737950D+03
 0.945924900737950D+03 0.000000000000000D+00 0.000000000000000D+00 -.945924900737950D+03
 0.947897612510905D+03 -.826088862450325D+03 -.415286559259930D+02 0.445799782274939D+03
 0.273553189591977D+03 0.256063866165190D+03 -.545848777728075D+01 -.960877145719720D+02
 0.670398999373018D+03 0.570024996285135D+03 0.469871437032738D+02 -.349712067702967D+03
 0.000000000000000D+00 -.000000000000000D+00 -.000000000000000D+00 -.000000000000000D+00
 0.950063304480109D+03 0.000000000000000D+00 0.000000000000000D+00 0.950063304480109D+03
 0.997984546205297D+03 0.000000000000000D+00 0.000000000000000D+00 -.997984546205297D+03
 0.938851250850851D+03 -.816158158602532D+03 -.310658251837843D+02 0.445799782274939D+03
 0.276220317710130D+03 0.258957541094800D+03 -.240975815292404D+01 -.960877145719720D+02
 0.676999422380610D+03 0.577116885911387D+03 0.544590451857045D+02 -.349712067702967D+03
 0.559768597438139D+02 -.199162684036550D+02 -.209834618489962D+02 -.479212417251881D+02
0.153373306294D-04 0.000000000000D+00 0.000000000000D+00 0.144211137390D-05 0.947128155870D-10  6 -1 21 25 4 -3 -2 2 0.17008198D+00 0.13194451D+00 0.71727258D+06 0.71727258D+06 0.71727258D+06 0.10576078D+01  1  2  1  6  6  2        2 0.148136847532D-04 0.100000000000D+01
  </mgrwgt>
  </event>
  <event>
  7     66 0.18082911E-05 0.67586883E+02 0.75467711E-02 0.94857903E-01
       -1 -1    0    0    0  501 0.00000000E+00 0.00000000E+00 0.84858533E+02 0.84859137E+02 0.32000000E+00 0.0000E+00 0.9000E+01
        2 -1    0    0  503    0 0.00000000E+00 0.00000000E+00 -.29074257E+04 0.29074257E+04 0.32000000E+00 0.0000E+00 0.9000E+01
       24  2    1    2    0    0 -.18755046E+03 -.43777659E+03 -.12261726E+04 0.13178711E+04 0.80384439E+02 0.0000E+00 0.0000E+00
       25  1    1    2    0    0 0.17718447E+03 0.43871229E+03 -.15083148E+04 0.15857179E+04 0.12500000E+03 0.0000E+00 0.9000E+01
        4  1    3    3  502    0 -.13059316E+03 -.22935139E+03 -.60052024E+03 0.65596005E+03 0.15500000E+01 0.0000E+00 0.9000E+01
       -3  1    3    3    0  502 -.56957294E+02 -.20842520E+03 -.62565233E+03 0.66191108E+03 0.50000000E+00 0.0000E+00 0.9000E+01
       21  1    1    2  503  501 0.10365985E+02 -.93570176E+00 -.88079810E+02 0.88695798E+02 0.75000000E+00 0.0000E+00 0.9000E+01
#aMCatNLO 2  0  0  2  1 0.42738350D+02 0.00000000D+00  -5  6  0 0.00000000D+00 0.00000000D+00 0.00000000D+00 0.00000000D+00 0.00000000D+00
  <mgrwgt>
 0.7650409860D-02    1    2    0
 0.488185410114282D+03 0.000000000000000D+00 0.000000000000000D+00 0.488185410114282D+03
 0.488185410114282D+03 0.000000000000000D+00 0.000000000000000D+00 -.488185410114282D+03
 0.492877962303558D+03 0.182409232060144D+03 0.438240670314458D+03 -.444485395268500D+02
 0.267640179438702D+03 -.127729503535968D+03 -.229539773489527D+03 0.512633588717354D+02
 0.215852678486304D+03 -.546797285241759D+02 -.208700896824932D+03 -.681481934488546D+01
 0.000000000000000D+00 0.000000000000000D+00 -.000000000000000D+00 -.000000000000000D+00
 0.489983354112733D+03 0.000000000000000D+00 0.000000000000000D+00 0.489983354112733D+03
 0.503512088825047D+03 0.000000000000000D+00 0.000000000000000D+00 -.503512088825047D+03
 0.491389340458656D+03 0.177184470164714D+03 0.438712291579314D+03 -.444485395268500D+02
 0.268791492380653D+03 -.130577030575176D+03 -.229282737029144D+03 0.512633588717354D+02
 0.216245461242104D+03 -.569734244431643D+02 -.208493852792656D+03 -.681481934488546D+01
 0.170691488563667D+02 0.103659848536272D+02 -.935701757512979D+00 -.135287347123138D+02
0.587622285008D-03 0.000000000000D+00 0.000000000000D+00 0.222578075908D-03 0.130674707976D-04  6 -1 2 25 4 -3 21 2 0.13054988D-01 0.44728882D+00 0.23999167D+06 0.23999167D+06 0.23999167D+06 0.10917965D+01  1  2  1  2  6  2        2 0.765040986010D-02 0.100000000000D+01
  </mgrwgt>
  </event>
  <event>
  7     66 0.18082911E-05 0.61863893E+02 0.75467711E-02 0.95011459E-01
       21 -1    0    0  503  501 0.00000000E+00 0.00000000E+00 0.76488888E+03 0.76488925E+03 0.75000000E+00 0.0000E+00 0.9000E+01
        2 -1    0    0  501    0 0.00000000E+00 0.00000000E+00 -.32047649E+03 0.32047665E+03 0.32000000E+00 0.0000E+00 0.9000E+01
       24  2    1    2    0    0 0.44676166E+03 -.10413395E+03 0.15559751E+03 0.49234830E+03 0.88070453E+02 0.0000E+00 0.0000E+00
       25  1    1    2    0    0 -.45290037E+03 0.11824073E+03 0.23773248E+03 0.53966781E+03 0.12500000E+03 0.0000E+00 0.9000E+01
        4  1    3    3  502    0 0.28784224E+03 -.24015687E+02 0.87758332E+02 0.30188381E+03 0.15500000E+01 0.0000E+00 0.9000E+01
        1  1    1    2  503    0 0.61387082E+01 -.14106785E+02 0.51082399E+02 0.53349780E+02 0.32000000E+00 0.0000E+00 0.9000E+01
       -3  1    3    3    0  502 0.15891942E+03 -.80118261E+02 0.67839179E+02 0.19046449E+03 0.50000000E+00 0.0000E+00 0.9000E+01
#aMCatNLO 2  0  0  1  2 0.36885753D+01 0.00000000D+00  -5  6  0 0.00000000D+00 0.00000000D+00 0.00000000D+00 0.00000000D+00 0.00000000D+00
  <mgrwgt>
 0.3949355093D-03    1    2    0
 0.476998977683144D+03 0.000000000000000D+00 0.000000000000000D+00 0.476998977683144D+03
 0.476998977683144D+03 0.000000000000000D+00 0.000000000000000D+00 -.476998977683144D+03
 0.481122994475210D+03 -.449789889583701D+03 0.111092817927247D+03 0.346666532284131D+02
 0.292550362962333D+03 0.289677412112779D+03 -.283007408924986D+02 -.295259182070862D+02
 0.000000000000000D+00 0.000000000000000D+00 -.000000000000000D+00 0.000000000000000D+00
 0.180324597928745D+03 0.160112477470922D+03 -.827920770347480D+02 -.514073502132695D+01
 0.512013532140799D+03 0.000000000000000D+00 0.000000000000000D+00 0.512013532140799D+03
 0.478753902085585D+03 0.000000000000000D+00 0.000000000000000D+00 -.478753902085585D+03
 0.485722553993319D+03 -.452900376793515D+03 0.118240734571576D+03 0.346666532284131D+02
 0.290305924886935D+03 0.287802275974038D+03 -.239916677755265D+02 -.295259182070862D+02
 0.366454378512054D+02 0.613870820844499D+01 -.141067850847886D+02 0.332596300552143D+02
 0.178093517494924D+03 0.158959392611032D+03 -.801422817112611D+02 -.514073502132695D+01
0.527933281080D-05 0.000000000000D+00 0.000000000000D+00 0.467697066319D-05 0.150714078702D-08  6 21 2 25 4 1 -3 2 0.11767508D+00 0.49304044D-01 0.23362156D+06 0.23362156D+06 0.23362156D+06 0.10926798D+01  1  2  1  5  5  1       -1 0.394935509255D-03 0.100000000000D+01
  </mgrwgt>
  </event>
  <event>
  7     66 0.18082911E-05 0.51375126E+02 0.75467711E-02 0.87992368E-01
       -1 -1    0    0    0  501 0.00000000E+00 0.00000000E+00 0.14556997E+04 0.14556998E+04 0.32000000E+00 0.0000E+00 0.9000E+01
        2 -1    0    0  503    0 0.00000000E+00 0.00000000E+00 -.11456347E+04 0.11456348E+04 0.32000000E+00 0.0000E+00 0.9000E+01
       24  2    1    2    0    0 -.84123182E+03 -.27456259E+03 -.19703988E+03 0.91008575E+03 0.79848341E+02 0.0000E+00 0.0000E+00
       25  1    1    2    0    0 0.87861382E+03 0.30795540E+03 0.89657554E+03 0.12985652E+04 0.12500000E+03 0.0000E+00 0.9000E+01
        4  1    3    3  502    0 -.39081422E+03 -.16527580E+03 -.76335583E+02 0.43113962E+03 0.15500000E+01 0.0000E+00 0.9000E+01
       -3  1    3    3    0  502 -.45041760E+03 -.10928679E+03 -.12070430E+03 0.47894613E+03 0.50000000E+00 0.0000E+00 0.9000E+01
       21  1    1    2  503  501 -.37381996E+02 -.33392813E+02 -.38947066E+03 0.39268365E+03 0.75000000E+00 0.0000E+00 0.9000E+01
#aMCatNLO 2  0  0  2  1 0.18978536D+01 0.00000000D+00  -5  6  0 0.00000000D+00 0.00000000D+00 0.00000000D+00 0.00000000D+00 0.00000000D+00
  <mgrwgt>
 0.2844413779D-02    1    2    0
 0.104717192817687D+04 0.000000000000000D+00 0.000000000000000D+00 0.104717192817687D+04
 0.104717192817687D+04 0.000000000000000D+00 0.000000000000000D+00 -.104717192817687D+04
 0.104938007617116D+04 0.859705070679006D+03 0.291064478586236D+03 0.511627017483551D+03
 0.489588523266121D+03 -.399310225188236D+03 -.172968428597676D+03 -.224343907611667D+03
 0.555375256916467D+03 -.460394845490770D+03 -.118096049988560D+03 -.287283109871884D+03
 0.000000000000000D+00 -.000000000000000D+00 -.000000000000000D+00 -.000000000000000D+00
 0.104862879823646D+04 0.000000000000000D+00 0.000000000000000D+00 0.104862879823646D+04
 0.159036207292577D+04 0.000000000000000D+00 0.000000000000000D+00 -.159036207292577D+04
 0.106966629189825D+04 0.878613819237054D+03 0.307955398799745D+03 0.511627017483551D+03
 0.479843567262769D+03 -.390659754901163D+03 -.165241084665860D+03 -.224343907611667D+03
 0.545433739667930D+03 -.450572068207319D+03 -.109321500638534D+03 -.287283109871884D+03
 0.544047272333284D+03 -.373819961285710D+02 -.333928134953506D+02 -.541733274689302D+03
0.108531454253D-01 0.000000000000D+00 0.000000000000D+00 0.154958404719D-03 0.392111087904D-06  6 -1 2 25 4 -3 21 2 0.22395376D+00 0.17625146D+00 0.88107599D+06 0.88107599D+06 0.88107599D+06 0.10515440D+01  1  2  1  2  6  2        2 0.284441377923D-02 0.100000000000D+01
  </mgrwgt>
  </event>
  <event>
  7     66 0.18082911E-05 0.25301410E+02 0.75467711E-02 0.94070932E-01
       -1 -1    0    0    0  501 0.00000000E+00 0.00000000E+00 0.16801189E+03 0.16801220E+03 0.32000000E+00 0.0000E+00 0.9000E+01
        2 -1    0    0  503    0 0.00000000E+00 0.00000000E+00 -.17386582E+04 0.17386582E+04 0.32000000E+00 0.0000E+00 0.9000E+01
       24  2    1    2    0    0 -.49566116E+03 -.13106412E+03 -.77152920E+03 0.92981670E+03 0.80274529E+02 0.0000E+00 0.0000E+00
       25  1    1    2    0    0 0.48266094E+03 0.14444443E+03 -.67588652E+03 0.85221674E+03 0.12500000E+03 0.0000E+00 0.9000E+01
        4  1    3    3  502    0 -.41682066E+03 -.11060675E+03 -.69576433E+03 0.81857420E+03 0.15500000E+01 0.0000E+00 0.9000E+01
       -3  1    3    3    0  502 -.78840497E+02 -.20457363E+02 -.75764869E+02 0.11124250E+03 0.50000000E+00 0.0000E+00 0.9000E+01
       21  1    1    2  503  501 0.13000218E+02 -.13380315E+02 -.12323060E+03 0.12463700E+03 0.75000000E+00 0.0000E+00 0.9000E+01
#aMCatNLO 2  0  0  2  1 0.18978536D+01 0.00000000D+00  -5  6  0 0.00000000D+00 0.00000000D+00 0.00000000D+00 0.00000000D+00 0.00000000D+00
  <mgrwgt>
 0.1080005727D-02    1    2    0
 0.519683285171671D+03 0.000000000000000D+00 0.000000000000000D+00 0.519683285171671D+03
 0.519683285171671D+03 0.000000000000000D+00 0.000000000000000D+00 -.519683285171671D+03
 0.524099917530593D+03 0.489189119763566D+03 0.137725384662927D+03 0.279543749701225D+02
 0.430754850132569D+03 -.411396807843012D+03 -.116172243762945D+03 -.529756282491756D+02
 0.845118026801807D+02 -.777923119205539D+02 -.215531408999827D+02 0.250212532790531D+02
 0.000000000000000D+00 0.000000000000000D+00 -.000000000000000D+00 -.000000000000000D+00
 0.521948246039305D+03 0.000000000000000D+00 0.000000000000000D+00 0.521948246039305D+03
 0.559656727147118D+03 0.000000000000000D+00 0.000000000000000D+00 -.559656727147118D+03
 0.519838654582761D+03 0.482660943531291D+03 0.144444429826590D+03 0.279543749701225D+02
 0.434474367255583D+03 -.416807441153541D+03 -.110603415918235D+03 -.529756282491756D+02
 0.852209631971699D+02 -.788537205490287D+02 -.204606991125559D+02 0.250212532790531D+02
 0.420709881509083D+02 0.130002181712784D+02 -.133803147958000D+02 -.377084811078135D+02
0.546218552367D-04 0.000000000000D+00 0.000000000000D+00 0.225494907796D-03 0.409532687642D-05  6 -1 2 25 4 -3 21 2 0.25847844D-01 0.26748420D+00 0.27585600D+06 0.27585600D+06 0.27585600D+06 0.10872581D+01  1  2  1  2  6  2        2 0.108000572663D-02 0.100000000000D+01
  </mgrwgt>
  </event>
  <event>
  7     66 0.18082911E-05 0.29972707E+02 0.75467711E-02 0.88752506E-01
       -1 -1    0    0    0  501 0.00000000E+00 0.00000000E+00 0.76870151E+03 0.76870157E+03 0.32000000E+00 0.0000E+00 0.9000E+01
        2 -1    0    0  503    0 0.00000000E+00 0.00000000E+00 -.12653987E+04 0.12653987E+04 0.32000000E+00 0.0000E+00 0.9000E+01
       24  2    1    2    0    0 -.41397032E+03 -.75888117E+03 0.92297849E+02 0.87293709E+03 0.78919014E+02 0.0000E+00 0.0000E+00
       25  1    1    2    0    0 0.41059941E+03 0.74943119E+03 -.36607535E+03 0.93801661E+03 0.12500000E+03 0.0000E+00 0.9000E+01
        4  1    3    3  502    0 -.69165748E+02 -.12501800E+03 -.14019454E+02 0.14357002E+03 0.15500000E+01 0.0000E+00 0.9000E+01
       -3  1    3    3    0  502 -.34480457E+03 -.63386316E+03 0.10631730E+03 0.72936707E+03 0.50000000E+00 0.0000E+00 0.9000E+01
       21  1    1    2  503  501 0.33709051E+01 0.94499759E+01 -.22291967E+03 0.22314661E+03 0.75000000E+00 0.0000E+00 0.9000E+01
#aMCatNLO 2  0  0  2  1 0.18978536D+01 0.00000000D+00  -5  6  0 0.00000000D+00 0.00000000D+00 0.00000000D+00 0.00000000D+00 0.00000000D+00
  <mgrwgt>
 0.2253252712D-02    1    2    0
 0.895055653659772D+03 0.000000000000000D+00 0.000000000000000D+00 0.895055653659772D+03
 0.895055653659772D+03 0.000000000000000D+00 0.000000000000000D+00 -.895055653659772D+03
 0.897680291931627D+03 0.412285330029805D+03 0.754157478159093D+03 -.226874880278500D+03
 0.142023505409880D+03 -.687672790426653D+02 -.124026591917539D+03 0.769037835861408D+01
 0.750407509978037D+03 -.343518050987140D+03 -.630130886241553D+03 0.219184501919885D+03
 0.000000000000000D+00 0.000000000000000D+00 0.000000000000000D+00 -.000000000000000D+00
 0.895201117838127D+03 0.000000000000000D+00 0.000000000000000D+00 0.895201117838127D+03
 0.108658531745205D+04 0.000000000000000D+00 0.000000000000000D+00 -.108658531745205D+04
 0.892936841186215D+03 0.410599414471633D+03 0.749431192226333D+03 -.226874880278500D+03
 0.142809964611853D+03 -.690354576330050D+02 -.124778402227876D+03 0.769037835861408D+01
 0.754392618279850D+03 -.344934861929718D+03 -.634102765850130D+03 0.219184501919885D+03
 0.191647011212262D+03 0.337090509108953D+01 0.944997585167290D+01 -.191384199613924D+03
0.129190936603D-02 0.000000000000D+00 0.000000000000D+00 0.608586860550D-04 0.366261544215D-05  6 -1 2 25 4 -3 21 2 0.11826168D+00 0.19467657D+00 0.75526476D+06 0.75526476D+06 0.75526476D+06 0.10560762D+01  1  2  1  2  6  2        2 0.225325271190D-02 0.100000000000D+01
  </mgrwgt>
  </event>
  <event>
  7     66 0.18082911E-05 0.48135527E+02 0.75467711E-02 0.91598261E-01
       21 -1    0    0  503  501 0.00000000E+00 0.00000000E+00 0.33565540E+03 0.33565624E+03 0.75000000E+00 0.0000E+00 0.9000E+01
        2 -1    0    0  501    0 0.00000000E+00 0.00000000E+00 -.17779682E+04 0.17779682E+04 0.32000000E+00 0.0000E+00 0.9000E+01
       24  2    1    2    0    0 -.54072362E+03 -.28777040E+03 -.10575970E+04 0.12250236E+04 0.83532641E+02 0.0000E+00 0.0000E+00
       25  1    1    2    0    0 0.55423876E+03 0.32947037E+03 -.45974836E+03 0.80170124E+03 0.12500000E+03 0.0000E+00 0.9000E+01
        4  1    3    3  502    0 -.23955288E+03 -.85463824E+02 -.40116821E+03 0.47500314E+03 0.15500000E+01 0.0000E+00 0.9000E+01
        1  1    1    2  503    0 -.13515137E+02 -.41699965E+02 0.75032562E+02 0.86899562E+02 0.32000000E+00 0.0000E+00 0.9000E+01
       -3  1    3    3    0  502 -.30117074E+03 -.20230658E+03 -.65642876E+03 0.75002049E+03 0.50000000E+00 0.0000E+00 0.9000E+01
#aMCatNLO 2  0  0  1  2 0.78833926D+01 0.00000000D+00  -5  6  0 0.00000000D+00 0.00000000D+00 0.00000000D+00 0.00000000D+00 0.00000000D+00
  <mgrwgt>
 0.2305409220D-03    1    2    0
 0.671445324423519D+03 0.000000000000000D+00 0.000000000000000D+00 0.671445324423519D+03
 0.671445324423519D+03 0.000000000000000D+00 0.000000000000000D+00 -.671445324423519D+03
 0.674664982869935D+03 0.547372913013789D+03 0.308286303460177D+03 0.211873283612040D+03
 0.268539745053567D+03 -.242133484255129D+03 -.936530391821990D+02 -.686591489012463D+02
 0.000000000000000D+00 -.000000000000000D+00 -.000000000000000D+00 0.000000000000000D+00
 0.399685920923535D+03 -.305239428758660D+03 -.214633264277978D+03 -.143214134710793D+03
 0.885369446006120D+03 0.000000000000000D+00 0.000000000000000D+00 0.885369446006120D+03
 0.674052308232130D+03 0.000000000000000D+00 0.000000000000000D+00 -.674052308232130D+03
 0.690106232186220D+03 0.554238758208929D+03 0.329470366334724D+03 0.211873283612040D+03
 0.263337743226553D+03 -.239457732849308D+03 -.853972040436930D+02 -.686591489012463D+02
 0.215815844468731D+03 -.135151366655841D+02 -.416999650799682D+02 0.211317137773990D+03
 0.390161934356746D+03 -.301265888694038D+03 -.202373197211063D+03 -.143214134710793D+03
0.485868319394D-05 0.000000000000D+00 0.000000000000D+00 0.210899314083D-04 0.254388177268D-08  6 21 2 25 4 1 -3 2 0.51639350D-01 0.27353358D+00 0.43412899D+06 0.43412899D+06 0.43412899D+06 0.10728736D+01  1  2  1  5  5  1       -1 0.230540922047D-03 0.100000000000D+01
  </mgrwgt>
  </event>
  <event>
  7     66 0.18082911E-05 0.69588434E+02 0.75467711E-02 0.93547579E-01
       21 -1    0    0  503  501 0.00000000E+00 0.00000000E+00 0.49074899E+03 0.49074957E+03 0.75000000E+00 0.0000E+00 0.9000E+01
        2 -1    0    0  501    0 0.00000000E+00 0.00000000E+00 -.75070674E+03 0.75070681E+03 0.32000000E+00 0.0000E+00 0.9000E+01
       24  2    1    2    0    0 -.27989065E+03 0.35069783E+03 -.27232674E+03 0.53018509E+03 0.74877478E+02 0.0000E+00 0.0000E+00
       25  1    1    2    0    0 0.30466454E+03 -.44562791E+03 -.98971588E+02 0.56287218E+03 0.12500000E+03 0.0000E+00 0.9000E+01
        4  1    3    3  502    0 -.10599140E+03 0.12765008E+03 -.59668274E+02 0.17632760E+03 0.15500000E+01 0.0000E+00 0.9000E+01
        1  1    1    2  503    0 -.24773891E+02 0.94930084E+02 0.11134058E+03 0.14839910E+03 0.32000000E+00 0.0000E+00 0.9000E+01
       -3  1    3    3    0  502 -.17389925E+03 0.22304775E+03 -.21265847E+03 0.35385749E+03 0.50000000E+00 0.0000E+00 0.9000E+01
#aMCatNLO 2  0  0  1  2 0.78833926D+01 0.00000000D+00  -5  6  0 0.00000000D+00 0.00000000D+00 0.00000000D+00 0.00000000D+00 0.00000000D+00
  <mgrwgt>
 0.9109007992D-04    1    2    0
 0.511685032858205D+03 0.000000000000000D+00 0.000000000000000D+00 0.511685032858205D+03
 0.511685032858205D+03 0.000000000000000D+00 0.000000000000000D+00 -.511685032858205D+03
 0.516579823050340D+03 0.291630587325104D+03 -.395683622061093D+03 0.980601109103482D+02
 0.180961381335022D+03 -.110109246331170D+03 0.143606735146164D+03 0.284653685079846D+00
 0.000000000000000D+00 -.000000000000000D+00 0.000000000000000D+00 0.000000000000000D+00
 0.325828861331049D+03 -.181521340993934D+03 0.252076886914929D+03 -.983447645954280D+02
 0.699015470276124D+03 0.000000000000000D+00 0.000000000000000D+00 0.699015470276124D+03
 0.527039552629756D+03 0.000000000000000D+00 0.000000000000000D+00 -.527039552629756D+03
 0.562712629745268D+03 0.304664541809651D+03 -.445627911252202D+03 0.980601109103482D+02
 0.165804254194483D+03 -.105921569952455D+03 0.127560145421975D+03 0.284653685079846D+00
 0.197992885705875D+03 -.247738913504759D+02 0.949300839944029D+02 0.171975917646367D+03
 0.299545253260253D+03 -.173969080506719D+03 0.223137681835824D+03 -.983447645954280D+02
0.107645523607D-05 0.000000000000D+00 0.000000000000D+00 0.650183124468D-05 0.174466663470D-09  6 21 2 25 4 1 -3 2 0.75499877D-01 0.11549337D+00 0.30302669D+06 0.30302669D+06 0.30302669D+06 0.10842295D+01  1  2  1  5  5  1       -1 0.910900799161D-04 0.100000000000D+01
  </mgrwgt>
  </event>
  <event>
  7     66 0.18082911E-05 0.49049340E+02 0.75467711E-02 0.92848964E-01
       21 -1    0    0  503  501 0.00000000E+00 0.00000000E+00 0.34160231E+03 0.34160313E+03 0.75000000E+00 0.0000E+00 0.9000E+01
        2 -1    0    0  501    0 0.00000000E+00 0.00000000E+00 -.12749361E+04 0.12749362E+04 0.32000000E+00 0.0000E+00 0.9000E+01
       24  2    1    2    0    0 -.49398163E+03 0.27570574E+03 -.53781077E+03 0.78502192E+03 0.83591160E+02 0.0000E+00 0.0000E+00
       25  1    1    2    0    0 0.50706671E+03 -.27982510E+03 -.46969918E+03 0.75608271E+03 0.12500000E+03 0.0000E+00 0.9000E+01
        4  1    3    3  502    0 -.16141158E+03 0.70072907E+02 -.21603618E+03 0.27863586E+03 0.15500000E+01 0.0000E+00 0.9000E+01
        1  1    1    2  503    0 -.13085080E+02 0.41193641E+01 0.74176135E+02 0.75434673E+02 0.32000000E+00 0.0000E+00 0.9000E+01
       -3  1    3    3    0  502 -.33257005E+03 0.20563283E+03 -.32177459E+03 0.50638606E+03 0.50000000E+00 0.0000E+00 0.9000E+01
#aMCatNLO 2  0  0  1  2 0.54818641D+02 0.00000000D+00  -5  6  0 0.00000000D+00 0.00000000D+00 0.00000000D+00 0.00000000D+00 0.00000000D+00
  <mgrwgt>
 0.3291607666D-03    1    2    0
 0.583039231028902D+03 0.000000000000000D+00 0.000000000000000D+00 0.583039231028902D+03
 0.583039231028902D+03 0.000000000000000D+00 0.000000000000000D+00 -.583039231028902D+03
 0.586742892153464D+03 0.500445599885800D+03 -.277740686199080D+03 0.325043732014191D+02
 0.183519478397460D+03 -.163350630249281D+03 0.706493191385882D+02 -.447732537760270D+02
 0.000000000000000D+00 -.000000000000000D+00 0.000000000000000D+00 0.000000000000000D+00
 0.395816091506881D+03 -.337094969636520D+03 0.207091367060492D+03 0.122688805746079D+02
 0.746564903697363D+03 0.000000000000000D+00 0.000000000000000D+00 0.746564903697363D+03
 0.583367351861605D+03 0.000000000000000D+00 0.000000000000000D+00 -.583367351861605D+03
 0.593380378579379D+03 0.507066712199958D+03 -.279825103921208D+03 0.325043732014191D+02
 0.181449567858377D+03 -.161302961919725D+03 0.700046848305371D+02 -.447732537760270D+02
 0.163773103406371D+03 -.130850798132306D+02 0.411936408325838D+01 0.163197551835757D+03
 0.391329205714842D+03 -.332678670467002D+03 0.205701055007413D+03 0.122688805746079D+02
0.368103679528D-05 0.000000000000D+00 0.000000000000D+00 0.291798402129D-04 0.333624354350D-07  6 21 2 25 4 1 -3 2 0.52554254D-01 0.19614403D+00 0.34408977D+06 0.34408977D+06 0.34408977D+06 0.10801734D+01  1  2  1  5  5  1       -1 0.329160766599D-03 0.100000000000D+01
  </mgrwgt>
  </event>
  <event>
  7     66 0.18082911E-05 0.68409026E+02 0.75467711E-02 0.94910461E-01
       -1 -1    0    0    0  501 0.00000000E+00 0.00000000E+00 0.32766106E+03 0.32766121E+03 0.32000000E+00 0.0000E+00 0.9000E+01
        2 -1    0    0  503    0 0.00000000E+00 0.00000000E+00 -.88370415E+03 0.88370421E+03 0.32000000E+00 0.0000E+00 0.9000E+01
       24  2    1    2    0    0 0.29124025E+03 -.37867804E+03 -.10691736E+03 0.49585447E+03 0.78882178E+02 0.0000E+00 0.0000E+00
       25  1    1    2    0    0 -.28240820E+03 0.36426289E+03 -.29686511E+03 0.56231284E+03 0.12500000E+03 0.0000E+00 0.9000E+01
        4  1    3    3  502    0 0.12034805E+03 -.20102934E+03 -.81368225E+02 0.24803153E+03 0.15500000E+01 0.0000E+00 0.9000E+01
       -3  1    3    3    0  502 0.17089220E+03 -.17764870E+03 -.25549138E+02 0.24782295E+03 0.50000000E+00 0.0000E+00 0.9000E+01
       21  1    1    2  503  501 -.88320520E+01 0.14415153E+02 -.15226061E+03 0.15319810E+03 0.75000000E+00 0.0000E+00 0.9000E+01
#aMCatNLO 2  0  0  2  4 0.41811608D+02 0.00000000D+00  -5  6  0 0.00000000D+00 0.00000000D+00 0.00000000D+00 0.00000000D+00 0.00000000D+00
  <mgrwgt>
 0.3414388490D-02    1    2    0
 0.488976477488303D+03 0.000000000000000D+00 0.000000000000000D+00 0.488976477488303D+03
 0.488976477488303D+03 0.000000000000000D+00 0.000000000000000D+00 -.488976477488303D+03
 0.493783765041807D+03 -.286831217008073D+03 0.371481878560097D+03 -.890307445211569D+02
 0.230641293769732D+03 0.118185946727319D+03 -.197539793488567D+03 0.143359121243698D+02
 0.253527896165066D+03 0.168645270280755D+03 -.173942085071530D+03 0.746948323967870D+02
 0.000000000000000D+00 -.000000000000000D+00 0.000000000000000D+00 -.000000000000000D+00
 0.489748793811638D+03 0.000000000000000D+00 0.000000000000000D+00 0.489748793811638D+03
 0.591229535518787D+03 0.000000000000000D+00 0.000000000000000D+00 -.591229535518787D+03
 0.485791428808219D+03 -.282408196085986D+03 0.364262885313613D+03 -.890307445211569D+02
 0.234654871429972D+03 0.120286872400576D+03 -.200968800159295D+03 0.143359121243698D+02
 0.257652766281422D+03 0.170953375650472D+03 -.177709238193723D+03 0.746948323967870D+02
 0.102879262810812D+03 -.883205196506158D+01 0.144151530394053D+02 -.101480741707149D+03
0.174360866275D-03 0.000000000000D+00 0.000000000000D+00 0.108589199152D-03 0.245719008778D-05  6 -1 2 25 4 -3 21 2 0.50409270D-01 0.13595412D+00 0.23778967D+06 0.23778967D+06 0.23778967D+06 0.10920989D+01  1  2  1  2  6  2        2 0.341438849014D-02 0.100000000000D+01
  </mgrwgt>
  </event>
  <event>
  7     66 0.18082911E-05 0.72087537E+02 0.75467711E-02 0.92753605E-01
       -1 -1    0    0    0  503 0.00000000E+00 0.00000000E+00 0.35382094E+03 0.35382108E+03 0.32000000E+00 0.0000E+00 0.9000E+01
        2 -1    0    0  501    0 0.00000000E+00 0.00000000E+00 -.24214306E+04 0.24214306E+04 0.32000000E+00 0.0000E+00 0.9000E+01
       24  2    1    2    0    0 0.52701834E+03 -.84614555E+02 -.15534338E+04 0.16445443E+04 0.80382404E+02 0.0000E+00 0.0000E+00
       25  1    1    2    0    0 -.54786685E+03 0.50760280E+01 -.71750246E+03 0.91138281E+03 0.12500000E+03 0.0000E+00 0.9000E+01
        4  1    3    3  502    0 0.49844057E+03 -.97593710E+02 -.14453530E+04 0.15319971E+04 0.15500000E+01 0.0000E+00 0.9000E+01
       -3  1    3    3    0  502 0.28577767E+02 0.12979155E+02 -.10808082E+03 0.11254715E+03 0.50000000E+00 0.0000E+00 0.9000E+01
       21  1    1    2  501  503 0.20848511E+02 0.79538527E+02 0.20332658E+03 0.21932464E+03 0.75000000E+00 0.0000E+00 0.9000E+01
#aMCatNLO 2  0  0  1  2 0.52522985D+01 0.00000000D+00  -5  6  0 0.00000000D+00 0.00000000D+00 0.00000000D+00 0.00000000D+00 0.00000000D+00
  <mgrwgt>
 0.2238208862D-03    1    2    0
 0.584989469969002D+03 0.000000000000000D+00 0.000000000000000D+00 0.584989469969002D+03
 0.584989469969002D+03 0.000000000000000D+00 0.000000000000000D+00 -.584989469969002D+03
 0.588905638431564D+03 -.537315032823801D+03 0.453319556363617D+02 0.201053277208376D+03
 0.543604690892720D+03 0.508092260952257D+03 -.608135311906913D+02 -.183439441628870D+03
 0.374686106137202D+02 0.292227718715439D+02 0.154815755543297D+02 -.176138355795057D+02
 0.000000000000000D+00 0.000000000000000D+00 0.000000000000000D+00 0.000000000000000D+00
 0.145613142267135D+04 0.000000000000000D+00 0.000000000000000D+00 0.145613142267135D+04
 0.588375881843369D+03 0.000000000000000D+00 0.000000000000000D+00 -.588375881843369D+03
 0.596851131954492D+03 -.547866851870578D+03 0.507602802913227D+01 0.201053277208376D+03
 0.540025822932741D+03 0.498449243614284D+03 -.976023167215891D+02 -.183439441628870D+03
 0.359878103509547D+02 0.285690974577003D+02 0.129877619506533D+02 -.176138355795057D+02
 0.871642539276527D+03 0.208485107985942D+02 0.795385267418036D+02 0.867755540827978D+03
0.101887945420D-03 0.000000000000D+00 0.000000000000D+00 0.492591440524D-04 0.689873084721D-07  6 -1 2 25 4 -3 21 2 0.54433988D-01 0.37252770D+00 0.35016344D+06 0.35016344D+06 0.35016344D+06 0.10796185D+01  1  2  1  1  6  1       -1 0.223820886176D-03 0.100000000000D+01
  </mgrwgt>
  </event>
  <event>
  7     66 0.18082911E-05 0.46570149E+02 0.75467711E-02 0.93055531E-01
       -1 -1    0    0    0  501 0.00000000E+00 0.00000000E+00 0.24243221E+03 0.24243242E+03 0.32000000E+00 0.0000E+00 0.9000E+01
        2 -1    0    0  503    0 0.00000000E+00 0.00000000E+00 -.15179835E+04 0.15179835E+04 0.32000000E+00 0.0000E+00 0.9000E+01
       24  2    1    2    0    0 -.48198763E+02 -.56009332E+03 -.63976953E+03 0.85527023E+03 0.78450415E+02 0.0000E+00 0.0000E+00
       25  1    1    2    0    0 0.78209874E+02 0.48030731E+03 -.36433036E+03 0.62062348E+03 0.12500000E+03 0.0000E+00 0.9000E+01
        4  1    3    3  502    0 -.40849859E+01 -.27829887E+03 -.36702223E+03 0.46062422E+03 0.15500000E+01 0.0000E+00 0.9000E+01
       -3  1    3    3    0  502 -.44113777E+02 -.28179445E+03 -.27274730E+03 0.39464601E+03 0.50000000E+00 0.0000E+00 0.9000E+01
       21  1    1    2  503  501 -.30011110E+02 0.79786015E+02 -.27145137E+03 0.28452220E+03 0.75000000E+00 0.0000E+00 0.9000E+01
#aMCatNLO 2  0  0  2  4 0.36908687D+02 0.00000000D+00  -5  6  0 0.00000000D+00 0.00000000D+00 0.00000000D+00 0.00000000D+00 0.00000000D+00
  <mgrwgt>
 0.4789371752D-03    1    2    0
 0.539161196378588D+03 0.000000000000000D+00 0.000000000000000D+00 0.539161196378588D+03
 0.539161196378588D+03 0.000000000000000D+00 0.000000000000000D+00 -.539161196378588D+03
 0.543552523404462D+03 0.635912348395207D+02 0.519171677453164D+03 0.790017080917258D+02
 0.268123102695014D+03 -.117904689953615D+02 -.257669366169989D+03 -.731948138683813D+02
 0.266646766657699D+03 -.518007658441592D+02 -.261502311283176D+03 -.580689422334452D+01
 0.000000000000000D+00 -.000000000000000D+00 0.000000000000000D+00 -.000000000000000D+00
 0.555826048376103D+03 0.000000000000000D+00 0.000000000000000D+00 0.555826048376103D+03
 0.662090153799167D+03 0.000000000000000D+00 0.000000000000000D+00 -.662090153799167D+03
 0.508604131527680D+03 0.782098736265628D+02 0.480307306203989D+03 0.790017080917258D+02
 0.287696616758396D+03 -.406792343019705D+01 -.278200133925141D+03 -.731948138683813D+02
 0.285385739435866D+03 -.441308397286342D+02 -.281893187639717D+03 -.580689422334452D+01
 0.136229714453328D+03 -.300111104677315D+02 0.797860153608694D+02 -.106264105423064D+03
0.347999237505D-04 0.000000000000D+00 0.000000000000D+00 0.778558975701D-04 0.681360863427D-07  6 -1 2 25 4 -3 21 2 0.37297213D-01 0.23353551D+00 0.33133328D+06 0.33133328D+06 0.33133328D+06 0.10813743D+01  1  2  1  2  6  2        2 0.478937175246D-03 0.100000000000D+01
  </mgrwgt>
  </event>
  <event>
  7     66 0.18082911E-05 0.41130864E+03 0.75467711E-02 0.89624084E-01
       21 -1    0    0  503  501 0.00000000E+00 0.00000000E+00 0.49332160E+03 0.49332217E+03 0.75000000E+00 0.0000E+00 0.9000E+01
        2 -1    0    0  501    0 0.00000000E+00 0.00000000E+00 -.42187282E+04 0.42187283E+04 0.32000000E+00 0.0000E+00 0.9000E+01
       24  2    1    2    0    0 0.85710070E+02 -.56842900E+03 -.32256112E+04 0.32774215E+04 0.80412848E+02 0.0000E+00 0.0000E+00
       25  1    1    2    0    0 0.33923489E+03 0.44388937E+03 -.73624934E+03 0.93263400E+03 0.12500000E+03 0.0000E+00 0.9000E+01
        4  1    3    3  502    0 0.14869493E+01 -.21994884E+03 -.13604108E+04 0.13780782E+04 0.15500000E+01 0.0000E+00 0.9000E+01
        1  1    1    2  503    0 -.42494496E+03 0.12453963E+03 0.23645392E+03 0.50199492E+03 0.32000000E+00 0.0000E+00 0.9000E+01
       -3  1    3    3    0  502 0.84223120E+02 -.34848016E+03 -.18652004E+04 0.18993433E+04 0.50000000E+00 0.0000E+00 0.9000E+01
#aMCatNLO 2  0  0  1  1 0.38641320D+03 0.00000000D+00  -5  6  0 0.00000000D+00 0.00000000D+00 0.00000000D+00 0.00000000D+00 0.00000000D+00
  <mgrwgt>
 0.1386451710D-02    1    2    0
 0.676782813143889D+03 0.000000000000000D+00 0.000000000000000D+00 0.676782813143889D+03
 0.676782813143889D+03 0.000000000000000D+00 0.000000000000000D+00 -.676782813143889D+03
 0.680166015914008D+03 0.126737943898101D+03 0.506166358578480D+03 0.418011866128484D+03
 0.283564064805569D+03 -.861623502123970D+02 -.194149385155667D+03 -.187858043475944D+03
 0.000000000000000D+00 -.000000000000000D+00 0.000000000000000D+00 0.000000000000000D+00
 0.389835545568200D+03 -.405755936857036D+02 -.312016973422813D+03 -.230153822652539D+03
 0.283071318142559D+04 0.000000000000000D+00 0.000000000000000D+00 0.283071318142559D+04
 0.735217929057318D+03 0.000000000000000D+00 0.000000000000000D+00 -.735217929057318D+03
 0.708856125795376D+03 0.339234892492489D+03 0.443889371993768D+03 0.418011866128484D+03
 0.289166097835617D+03 0.145570012296110D+01 -.219827815746824D+03 -.187858043475944D+03
 0.214177232530320D+04 -.424944962177917D+03 0.124539631669298D+03 0.209549525236827D+04
 0.426136561548714D+03 0.842543695624669D+02 -.348601187916243D+03 -.230153822652539D+03
0.313936955230D-02 0.000000000000D+00 0.000000000000D+00 0.191699261790D-03 0.244286888334D-08  6 21 2 25 4 1 -3 2 0.75895675D-01 0.64903515D+00 0.63503231D+06 0.63503231D+06 0.63503231D+06 0.10612490D+01  1  2  1  5  5  1       -1 0.138645170996D-02 0.100000000000D+01
  </mgrwgt>
  </event>
  <event>
  7     66 0.18082911E-05 0.51072157E+02 0.75467711E-02 0.85509676E-01
       -1 -1    0    0    0  501 0.00000000E+00 0.00000000E+00 0.10919662E+04 0.10919663E+04 0.32000000E+00 0.0000E+00 0.9000E+01
        2 -1    0    0  503    0 0.00000000E+00 0.00000000E+00 -.15675424E+04 0.15675424E+04 0.32000000E+00 0.0000E+00 0.9000E+01
       24  2    1    2    0    0 -.10990473E+04 -.46644061E+03 -.65894921E+03 0.13662059E+04 0.82659679E+02 0.0000E+00 0.0000E+00
       25  1    1    2    0    0 0.10644776E+04 0.51008178E+03 0.24313203E+03 0.12116246E+04 0.12500000E+03 0.0000E+00 0.9000E+01
        4  1    3    3  502    0 -.56404109E+03 -.27048728E+03 -.37873975E+03 0.73126734E+03 0.15500000E+01 0.0000E+00 0.9000E+01
       -3  1    3    3    0  502 -.53500625E+03 -.19595333E+03 -.28020946E+03 0.63493857E+03 0.50000000E+00 0.0000E+00 0.9000E+01
       21  1    1    2  503  501 0.34569698E+02 -.43641170E+02 -.59758977E+02 0.81678110E+02 0.75000000E+00 0.0000E+00 0.9000E+01
#aMCatNLO 2  0  0  2  1 0.83798678D+02 0.00000000D+00  -5  6  0 0.00000000D+00 0.00000000D+00 0.00000000D+00 0.00000000D+00 0.00000000D+00
  <mgrwgt>
 0.6557268735D-03    1    2    0
 0.127173176846345D+04 0.000000000000000D+00 0.000000000000000D+00 0.127173176846345D+04
 0.127173176846345D+04 0.000000000000000D+00 0.000000000000000D+00 -.127173176846345D+04
 0.127346019456844D+04 0.108174300700690D+04 0.488285790402018D+03 0.444392755154059D+03
 0.676020749967909D+03 -.554667007364236D+03 -.282050684297801D+03 -.264189282174579D+03
 0.593982592390553D+03 -.527075999642669D+03 -.206235106104216D+03 -.180203472979479D+03
 0.000000000000000D+00 0.000000000000000D+00 -.000000000000000D+00 -.000000000000000D+00
 0.128493076474061D+04 0.000000000000000D+00 0.000000000000000D+00 0.128493076474061D+04
 0.133213270693781D+04 0.000000000000000D+00 0.000000000000000D+00 -.133213270693781D+04
 0.126744072508492D+04 0.106447764107799D+04 0.510081780124938D+03 0.444392755154059D+03
 0.678882013308044D+03 -.563873541875331D+03 -.270428252869839D+03 -.264189282174579D+03
 0.597750055260555D+03 -.535173796802718D+03 -.196012357023463D+03 -.180203472979479D+03
 0.729906780249008D+02 0.345696976000626D+02 -.436411702316360D+02 -.472019421972055D+02
0.162245954408D-02 0.000000000000D+00 0.000000000000D+00 0.471228956388D-04 0.872440710542D-07  6 -1 2 25 4 -3 21 2 0.16799456D+00 0.24116001D+00 0.14859146D+07 0.14859146D+07 0.14859146D+07 0.10366032D+01  1  2  1  2  6  2        2 0.655726873539D-03 0.100000000000D+01
  </mgrwgt>
  </event>
  <event>
  7     66 0.18082911E-05 0.25512672E+02 0.75467711E-02 0.88694933E-01
       -1 -1    0    0    0  501 0.00000000E+00 0.00000000E+00 0.61123612E+03 0.61123621E+03 0.32000000E+00 0.0000E+00 0.9000E+01
        2 -1    0    0  503    0 0.00000000E+00 0.00000000E+00 -.13263867E+04 0.13263867E+04 0.32000000E+00 0.0000E+00 0.9000E+01
       24  2    1    2    0    0 0.13541307E+03 -.82372897E+03 -.14361277E+03 0.85077967E+03 0.79594668E+02 0.0000E+00 0.0000E+00
       25  1    1    2    0    0 -.18118553E+03 0.83471802E+03 -.48982982E+03 0.99254251E+03 0.12500000E+03 0.0000E+00 0.9000E+01
        4  1    3    3  502    0 0.75374033E+02 -.64381348E+03 -.12547432E+03 0.66024484E+03 0.15500000E+01 0.0000E+00 0.9000E+01
       -3  1    3    3    0  502 0.60039036E+02 -.17991549E+03 -.18138447E+02 0.19053483E+03 0.50000000E+00 0.0000E+00 0.9000E+01
       21  1    1    2  503  501 0.45772455E+02 -.10989054E+02 -.81707953E+02 0.94300737E+02 0.75000000E+00 0.0000E+00 0.9000E+01
#aMCatNLO 2  0  0  2  1 0.83798678D+02 0.00000000D+00  -5  6  0 0.00000000D+00 0.00000000D+00 0.00000000D+00 0.00000000D+00 0.00000000D+00
  <mgrwgt>
 0.6069084641D-03    1    2    0
 0.865212583112598D+03 0.000000000000000D+00 0.000000000000000D+00 0.865212583112598D+03
 0.865212583112598D+03 0.000000000000000D+00 0.000000000000000D+00 -.865212583112598D+03
 0.867896804594229D+03 -.158103364613494D+03 0.829176455259331D+03 -.158396955672568D+03
 0.663422384247510D+03 0.928159149383255D+02 -.647962848295217D+03 0.107975057693716D+03
 0.199105977383457D+03 0.652874496751688D+02 -.181213606964113D+03 0.504218979788519D+02
 0.000000000000000D+00 0.000000000000000D+00 -.000000000000000D+00 -.000000000000000D+00
 0.874539399338457D+03 0.000000000000000D+00 0.000000000000000D+00 0.874539399338457D+03
 0.927038731151417D+03 0.000000000000000D+00 0.000000000000000D+00 -.927038731151417D+03
 0.877665634543840D+03 -.181185525084772D+03 0.834718021844898D+03 -.158396955672568D+03
 0.657097799558451D+03 0.753542314690011D+02 -.643770646193436D+03 0.107975057693716D+03
 0.196301883233702D+03 0.600588382627483D+02 -.179958321596522D+03 0.504218979788519D+02
 0.705128131538810D+02 0.457724553530231D+02 -.109890540549399D+02 -.524993318129598D+02
0.221468197859D-03 0.000000000000D+00 0.000000000000D+00 0.131191591263D-03 0.352755369324D-06  6 -1 2 25 4 -3 21 2 0.94036123D-01 0.20405904D+00 0.76405831D+06 0.76405831D+06 0.76405831D+06 0.10557336D+01  1  2  1  2  6  2        2 0.606908464098D-03 0.100000000000D+01
  </mgrwgt>
  </event>
  <event>
  7     66 0.18082911E-05 0.40663756E+02 0.75467711E-02 0.94395302E-01
       -1 -1    0    0    0  501 0.00000000E+00 0.00000000E+00 0.33295676E+03 0.33295691E+03 0.32000000E+00 0.0000E+00 0.9000E+01
        2 -1    0    0  503    0 0.00000000E+00 0.00000000E+00 -.11832868E+04 0.11832868E+04 0.32000000E+00 0.0000E+00 0.9000E+01
       24  2    1    2    0    0 0.48742757E+03 -.50225256E+02 -.30431770E+02 0.49737903E+03 0.79696868E+02 0.0000E+00 0.0000E+00
       25  1    1    2    0    0 -.49573227E+03 0.40064023E+02 -.56266795E+03 0.76129878E+03 0.12500000E+03 0.0000E+00 0.9000E+01
        4  1    3    3  502    0 0.36649986E+03 -.81491712E+01 -.41126866E+02 0.36889345E+03 0.15500000E+01 0.0000E+00 0.9000E+01
       -3  1    3    3    0  502 0.12092771E+03 -.42076085E+02 0.10695096E+02 0.12848557E+03 0.50000000E+00 0.0000E+00 0.9000E+01
       21  1    1    2  503  501 0.83046989E+01 0.10161234E+02 -.25723027E+03 0.25756590E+03 0.75000000E+00 0.0000E+00 0.9000E+01
#aMCatNLO 2  0  0  2  1 0.83798678D+02 0.00000000D+00  -5  6  0 0.00000000D+00 0.00000000D+00 0.00000000D+00 0.00000000D+00 0.00000000D+00
  <mgrwgt>
 0.3598837582D-02    1    2    0
 0.555051871323830D+03 0.000000000000000D+00 0.000000000000000D+00 0.555051871323830D+03
 0.555051871323830D+03 0.000000000000000D+00 0.000000000000000D+00 -.555051871323830D+03
 0.559228692370088D+03 -.491536465413094D+03 0.451978071461846D+02 -.231215898606340D+03
 0.398917817643410D+03 0.369442662263700D+03 -.449457214029720D+01 0.150423878936046D+03
 0.151957232634162D+03 0.122093803149394D+03 -.407032350058874D+02 0.807920196702941D+02
 0.000000000000000D+00 0.000000000000000D+00 0.000000000000000D+00 -.000000000000000D+00
 0.555369660084125D+03 0.000000000000000D+00 0.000000000000000D+00 0.555369660084125D+03
 0.709405300747912D+03 0.000000000000000D+00 0.000000000000000D+00 -.709405300747912D+03
 0.562531243177654D+03 -.495732268330742D+03 0.400640227425627D+02 -.231215898606340D+03
 0.396223026980395D+03 0.366468537257011D+03 -.813356969891415D+01 0.150423878936046D+03
 0.151427038517565D+03 0.120959032179485D+03 -.420916866613501D+02 0.807920196702941D+02
 0.154593652156423D+03 0.830469889424690D+01 0.101612336177016D+02 -.154035640663788D+03
0.291332807243D-03 0.000000000000D+00 0.000000000000D+00 0.147173196601D-03 0.558146345748D-05  6 -1 2 25 4 -3 21 2 0.51224048D-01 0.18204383D+00 0.26039168D+06 0.26039168D+06 0.26039168D+06 0.10891310D+01  1  2  1  2  6  2        2 0.359883758169D-02 0.100000000000D+01
  </mgrwgt>
  </event>
  <event>
  7     66 0.18082911E-05 0.42050381E+02 0.75467711E-02 0.94531635E-01
       -1 -1    0    0    0  501 0.00000000E+00 0.00000000E+00 0.48661610E+03 0.48661620E+03 0.32000000E+00 0.0000E+00 0.9000E+01
        2 -1    0    0  503    0 0.00000000E+00 0.00000000E+00 -.63515392E+03 0.63515400E+03 0.32000000E+00 0.0000E+00 0.9000E+01
       24  2    1    2    0    0 0.33664207E+03 0.35372141E+03 0.15965171E+03 0.52005011E+03 0.80726281E+02 0.0000E+00 0.0000E+00
       25  1    1    2    0    0 -.32764702E+03 -.36030744E+03 -.29016300E+03 0.58051149E+03 0.12500000E+03 0.0000E+00 0.9000E+01
        4  1    3    3  502    0 0.27678701E+03 0.24207368E+03 0.12929712E+03 0.38978310E+03 0.15500000E+01 0.0000E+00 0.9000E+01
       -3  1    3    3    0  502 0.59855053E+02 0.11164773E+03 0.30354587E+02 0.13026701E+03 0.50000000E+00 0.0000E+00 0.9000E+01
       21  1    1    2  503  501 -.89950468E+01 0.65860334E+01 -.18026525E+02 0.21208602E+02 0.75000000E+00 0.0000E+00 0.9000E+01
#aMCatNLO 2  0  0  2  1 0.83798678D+02 0.00000000D+00  -5  6  0 0.00000000D+00 0.00000000D+00 0.00000000D+00 0.00000000D+00 0.00000000D+00
  <mgrwgt>
 0.5794979038D-02    1    2    0
 0.546369461403239D+03 0.000000000000000D+00 0.000000000000000D+00 0.546369461403239D+03
 0.546369461403239D+03 0.000000000000000D+00 0.000000000000000D+00 -.546369461403239D+03
 0.550537093518226D+03 -.332176450035785D+03 -.356991064429272D+03 -.222895215962063D+03
 0.407162501407872D+03 0.273420744167944D+03 0.244498142593628D+03 0.176757057792975D+03
 0.135039327880379D+03 0.587557058678413D+02 0.112492921835644D+03 0.461381581690886D+02
 0.000000000000000D+00 -.000000000000000D+00 0.000000000000000D+00 -.000000000000000D+00
 0.548182951061146D+03 0.000000000000000D+00 0.000000000000000D+00 0.548182951061146D+03
 0.563804453179882D+03 0.000000000000000D+00 0.000000000000000D+00 -.563804453179882D+03
 0.549982999824781D+03 -.327647018565841D+03 -.360307443751037D+03 -.222895215962063D+03
 0.407960783490851D+03 0.276775562567752D+03 0.242041796704918D+03 0.176757057792975D+03
 0.134852007360305D+03 0.598665027671429D+02 0.111679613610988D+03 0.461381581690886D+02
 0.191916135650914D+02 -.899504676905392D+01 0.658603343513157D+01 -.156215021187356D+02
0.417211058842D-03 0.000000000000D+00 0.000000000000D+00 0.150156277846D-03 0.765738051531D-05  6 -1 2 25 4 -3 21 2 0.74863032D-01 0.97714700D-01 0.25418422D+06 0.25418422D+06 0.25418422D+06 0.10899172D+01  1  2  1  2  6  2        2 0.579497903775D-02 0.100000000000D+01
  </mgrwgt>
  </event>
  <event>
  7     66 0.18082911E-05 0.59841285E+02 0.75467711E-02 0.94630999E-01
       -1 -1    0    0    0  501 0.00000000E+00 0.00000000E+00 0.43445047E+03 0.43445059E+03 0.32000000E+00 0.0000E+00 0.9000E+01
        2 -1    0    0  503    0 0.00000000E+00 0.00000000E+00 -.88991258E+03 0.88991264E+03 0.32000000E+00 0.0000E+00 0.9000E+01
       24  2    1    2    0    0 0.24974013E+03 0.41945839E+03 0.89546907E+01 0.49491950E+03 0.80929932E+02 0.0000E+00 0.0000E+00
       25  1    1    2    0    0 -.23721533E+03 -.40674250E+03 -.14327079E+03 0.50780124E+03 0.12500000E+03 0.0000E+00 0.9000E+01
        4  1    3    3  502    0 0.70310325E+02 0.19407804E+03 -.51534166E+01 0.20649162E+03 0.15500000E+01 0.0000E+00 0.9000E+01
       -3  1    3    3    0  502 0.17942980E+03 0.22538035E+03 0.14108107E+02 0.28842789E+03 0.50000000E+00 0.0000E+00 0.9000E+01
       21  1    1    2  503  501 -.12524804E+02 -.12715890E+02 -.32114601E+03 0.32164249E+03 0.75000000E+00 0.0000E+00 0.9000E+01
#aMCatNLO 2  0  0  2  1 0.83798678D+02 0.00000000D+00  -5  6  0 0.00000000D+00 0.00000000D+00 0.00000000D+00 0.00000000D+00 0.00000000D+00
  <mgrwgt>
 0.5341046916D-02    1    2    0
 0.496761890269878D+03 0.000000000000000D+00 0.000000000000000D+00 0.496761890269878D+03
 0.496761890269878D+03 0.000000000000000D+00 0.000000000000000D+00 -.496761890269878D+03
 0.501329141924203D+03 -.243482634085058D+03 -.413105430299891D+03 -.759343064642148D+02
 0.204238234531401D+03 0.676516346594321D+02 0.191367614118535D+03 0.226924886028427D+02
 0.287956404084151D+03 0.175830999425626D+03 0.221737816181356D+03 0.532418178613721D+02
 0.000000000000000D+00 -.000000000000000D+00 -.000000000000000D+00 -.000000000000000D+00
 0.497125592204271D+03 0.000000000000000D+00 0.000000000000000D+00 0.497125592204271D+03
 0.777715495438470D+03 0.000000000000000D+00 0.000000000000000D+00 -.777715495438470D+03
 0.493053337583445D+03 -.237215325167784D+03 -.406742503691852D+03 -.759343064642148D+02
 0.207573307051250D+03 0.702471652525248D+02 0.194002743627988D+03 0.226924886028427D+02
 0.293057443524049D+03 0.179492963854020D+03 0.225455649657682D+03 0.532418178613721D+02
 0.281156999483997D+03 -.125248039387603D+02 -.127158895938180D+02 -.280589903234200D+03
0.469188441575D-03 0.000000000000D+00 0.000000000000D+00 0.235544400466D-03 0.515979790578D-05  6 -1 2 25 4 -3 21 2 0.66838480D-01 0.13690950D+00 0.24976455D+06 0.24976455D+06 0.24976455D+06 0.10904899D+01  1  2  1  2  6  2        2 0.534104691571D-02 0.100000000000D+01
  </mgrwgt>
  </event>
  <event>
  7     66 0.18082911E-05 0.13884692E+03 0.75467711E-02 0.92292046E-01
       -1 -1    0    0    0  501 0.00000000E+00 0.00000000E+00 0.10697909E+04 0.10697909E+04 0.32000000E+00 0.0000E+00 0.9000E+01
        2 -1    0    0  503    0 0.00000000E+00 0.00000000E+00 -.91409774E+03 0.91409780E+03 0.32000000E+00 0.0000E+00 0.9000E+01
       24  2    1    2    0    0 0.13050480E+03 0.41172422E+03 0.18855294E+03 0.47760878E+03 0.77521629E+02 0.0000E+00 0.0000E+00
       25  1    1    2    0    0 -.21348452E+03 -.56818658E+03 0.59186440E+03 0.85693646E+03 0.12500000E+03 0.0000E+00 0.9000E+01
        4  1    3    3  502    0 0.99325109E+02 0.19109220E+03 0.10536204E+03 0.23976086E+03 0.15500000E+01 0.0000E+00 0.9000E+01
       -3  1    3    3    0  502 0.31179693E+02 0.22063201E+03 0.83190901E+02 0.23784792E+03 0.50000000E+00 0.0000E+00 0.9000E+01
       21  1    1    2  503  501 0.82979716E+02 0.15646236E+03 -.62472418E+03 0.64934349E+03 0.75000000E+00 0.0000E+00 0.9000E+01
#aMCatNLO 2  0  0  2  1 0.83798678D+02 0.00000000D+00  -5  6  0 0.00000000D+00 0.00000000D+00 0.00000000D+00 0.00000000D+00 0.00000000D+00
  <mgrwgt>
 0.2827293763D-02    1    2    0
 0.533992903259480D+03 0.000000000000000D+00 0.000000000000000D+00 0.533992903259480D+03
 0.533992903259480D+03 0.000000000000000D+00 0.000000000000000D+00 -.533992903259480D+03
 0.538494553536622D+03 -.168408601177573D+03 -.483193706800467D+03 0.111864958527877D+03
 0.258226011298153D+03 0.117751006723348D+03 0.225770574087166D+03 -.429304228134756D+02
 0.271265241684184D+03 0.506575944542254D+02 0.257423132713301D+03 -.689345357144015D+02
 0.000000000000000D+00 0.000000000000000D+00 0.000000000000000D+00 -.000000000000000D+00
 0.547586202271631D+03 0.000000000000000D+00 0.000000000000000D+00 0.547586202271631D+03
 0.178582502789061D+04 0.000000000000000D+00 0.000000000000000D+00 -.178582502789061D+04
 0.629722477562477D+03 -.213484518868735D+03 -.568186580274795D+03 0.111864958527877D+03
 0.219527661974186D+03 0.993167734603613D+02 0.191011915016661D+03 -.429304228134756D+02
 0.233320775824807D+03 0.311880291355728D+02 0.220712303816458D+03 -.689345357144015D+02
 0.125084031480077D+04 0.829797162728006D+02 0.156462361441676D+03 -.123823882561898D+04
0.227520976683D-02 0.000000000000D+00 0.000000000000D+00 0.286979753021D-04 0.956231479109D-08  6 -1 2 25 4 -3 21 2 0.16458319D+00 0.14063040D+00 0.38130975D+06 0.38130975D+06 0.38130975D+06 0.10769290D+01  1  2  1  2  6  2        2 0.282729376336D-02 0.100000000000D+01
  </mgrwgt>
  </event>
  <event>
  7     66 0.18082911E-05 0.29038854E+02 0.75467711E-02 0.94533834E-01
       -1 -1    0    0    0  501 0.00000000E+00 0.00000000E+00 0.23887735E+03 0.23887757E+03 0.32000000E+00 0.0000E+00 0.9000E+01
        2 -1    0    0  503    0 0.00000000E+00 0.00000000E+00 -.14552373E+04 0.14552373E+04 0.32000000E+00 0.0000E+00 0.9000E+01
       24  2    1    2    0    0 -.23304754E+03 -.43506368E+03 -.16700073E+03 0.52738950E+03 0.81601967E+02 0.0000E+00 0.0000E+00
       25  1    1    2    0    0 0.22174834E+03 0.41998862E+03 -.10081024E+04 0.11213645E+04 0.12500000E+03 0.0000E+00 0.9000E+01
        4  1    3    3  502    0 -.63672505E+02 -.63953504E+02 -.12240477E+02 0.91084963E+02 0.15500000E+01 0.0000E+00 0.9000E+01
       -3  1    3    3    0  502 -.16937504E+03 -.37111017E+03 -.15476026E+03 0.43630454E+03 0.50000000E+00 0.0000E+00 0.9000E+01
       21  1    1    2  503  501 0.11299197E+02 0.15075056E+02 -.41256763E+02 0.45360910E+02 0.75000000E+00 0.0000E+00 0.9000E+01
#aMCatNLO 2  0  0  2  1 0.83798678D+02 0.00000000D+00  -5  6  0 0.00000000D+00 0.00000000D+00 0.00000000D+00 0.00000000D+00 0.00000000D+00
  <mgrwgt>
 0.2772343283D-02    1    2    0
 0.578179747657873D+03 0.000000000000000D+00 0.000000000000000D+00 0.578179747657873D+03
 0.578179747657873D+03 0.000000000000000D+00 0.000000000000000D+00 -.578179747657873D+03
 0.582056621268374D+03 0.227397740605674D+03 0.427525879742623D+03 -.297786500835894D+03
 0.115814377968010D+03 -.624751469774464D+02 -.623028495025731D+02 0.750212043233329D+02
 0.458488496079362D+03 -.164922593628227D+03 -.365223030240050D+03 0.222765296512561D+03
 0.000000000000000D+00 0.000000000000000D+00 0.000000000000000D+00 -.000000000000000D+00
 0.583260869575868D+03 0.000000000000000D+00 0.000000000000000D+00 0.583260869575868D+03
 0.595987357337355D+03 0.000000000000000D+00 0.000000000000000D+00 -.595987357337355D+03
 0.574338375213422D+03 0.221748343489809D+03 0.419988620467547D+03 -.297786500835894D+03
 0.117252434740422D+03 -.636137604992316D+02 -.638219541347650D+02 0.750212043233329D+02
 0.464922143529206D+03 -.169433780048123D+03 -.371241722321275D+03 0.222765296512561D+03
 0.227352734301729D+02 0.112991970575458D+02 0.150750559884930D+02 -.127264877614868D+02
0.176763059963D-03 0.000000000000D+00 0.000000000000D+00 0.412880904514D-04 0.736888504072D-06  6 -1 2 25 4 -3 21 2 0.36749993D-01 0.22388031D+00 0.25408543D+06 0.25408543D+06 0.25408543D+06 0.10899299D+01  1  2  1  2  6  2        2 0.277234328345D-02 0.100000000000D+01
  </mgrwgt>
  </event>
  <event>
  7     66 0.18082911E-05 0.32914934E+02 0.75467711E-02 0.95528433E-01
       -1 -1    0    0    0  503 0.00000000E+00 0.00000000E+00 0.11417002E+03 0.11417047E+03 0.32000000E+00 0.0000E+00 0.9000E+01
        2 -1    0    0  501    0 0.00000000E+00 0.00000000E+00 -.31164739E+04 0.31164739E+04 0.32000000E+00 0.0000E+00 0.9000E+01
       24  2    1    2    0    0 0.42491539E+03 0.91413092E+02 -.24595681E+04 0.24990931E+04 0.84150841E+02 0.0000E+00 0.0000E+00
       25  1    1    2    0    0 -.44298912E+03 -.95575028E+02 -.53262551E+03 0.71041458E+03 0.12500000E+03 0.0000E+00 0.9000E+01
        4  1    3    3  502    0 0.88306144E+02 0.75064129E+01 -.70573859E+03 0.71128312E+03 0.15500000E+01 0.0000E+00 0.9000E+01
       -3  1    3    3    0  502 0.33660924E+03 0.83906679E+02 -.17538295E+04 0.17878099E+04 0.50000000E+00 0.0000E+00 0.9000E+01
       21  1    1    2  501  503 0.18073729E+02 0.41619353E+01 -.10110222E+02 0.21136709E+02 0.75000000E+00 0.0000E+00 0.9000E+01
#aMCatNLO 2  0  0  1  2 0.24754954D+01 0.00000000D+00  -5  6  0 0.00000000D+00 0.00000000D+00 0.00000000D+00 0.00000000D+00 0.00000000D+00
  <mgrwgt>
 0.6653768934D-02    1    2    0
 0.580381904533715D+03 0.000000000000000D+00 0.000000000000000D+00 0.580381904533715D+03
 0.580381904533715D+03 0.000000000000000D+00 0.000000000000000D+00 -.580381904533715D+03
 0.584062083629024D+03 -.433839752414771D+03 -.934681544281613D+02 0.358539106466171D+03
 0.148718380625150D+03 0.904994512096889D+02 0.800885524103744D+01 -.117740665465421D+03
 0.427983344813256D+03 0.343340301205082D+03 0.854592991871239D+02 -.240798441000750D+03
 0.000000000000000D+00 0.000000000000000D+00 0.000000000000000D+00 0.000000000000000D+00
 0.609903730780824D+03 0.000000000000000D+00 0.000000000000000D+00 0.609903730780824D+03
 0.583376254279723D+03 0.000000000000000D+00 0.000000000000000D+00 -.583376254279723D+03
 0.591226888142629D+03 -.442989115530382D+03 -.955750276948239D+02 0.358539106466171D+03
 0.147299521189264D+03 0.881950177150577D+02 0.747820089239141D+01 -.117740665465421D+03
 0.422385560559537D+03 0.336720368503976D+03 0.839348915252104D+02 -.240798441000750D+03
 0.323680151691168D+02 0.180737293113482D+02 0.416193527722215D+01 0.265274765011016D+02
0.109470432555D-02 0.000000000000D+00 0.000000000000D+00 0.116135360825D-04 0.216653890288D-06  6 -1 2 25 4 -3 21 2 0.17564524D-01 0.47945400D+00 0.21353063D+06 0.21353063D+06 0.21353063D+06 0.10956485D+01  1  2  1  1  6  1       -1 0.665376893381D-02 0.100000000000D+01
  </mgrwgt>
  </event>
  <event>
  7     66 0.18082911E-05 0.60964519E+02 0.75467711E-02 0.94374858E-01
       -1 -1    0    0    0  501 0.00000000E+00 0.00000000E+00 0.42586788E+03 0.42586800E+03 0.32000000E+00 0.0000E+00 0.9000E+01
        2 -1    0    0  503    0 0.00000000E+00 0.00000000E+00 -.92285976E+03 0.92285982E+03 0.32000000E+00 0.0000E+00 0.9000E+01
       24  2    1    2    0    0 0.35305224E+03 -.24317959E+03 -.13930382E+03 0.45806309E+03 0.81449616E+02 0.0000E+00 0.0000E+00
       25  1    1    2    0    0 -.43506805E+03 0.23816099E+03 0.12315891E+02 0.51164592E+03 0.12500000E+03 0.0000E+00 0.9000E+01
        4  1    3    3  502    0 0.78033217E+02 -.50237058E+02 -.66855884E+02 0.11438993E+03 0.15500000E+01 0.0000E+00 0.9000E+01
       -3  1    3    3    0  502 0.27501902E+03 -.19294253E+03 -.72447940E+02 0.34367315E+03 0.50000000E+00 0.0000E+00 0.9000E+01
       21  1    1    2  503  501 0.82015812E+02 0.50186036E+01 -.37000395E+03 0.37901881E+03 0.75000000E+00 0.0000E+00 0.9000E+01
#aMCatNLO 2  0  0  2  1 0.75900668D+01 0.00000000D+00  -5  6  0 0.00000000D+00 0.00000000D+00 0.00000000D+00 0.00000000D+00 0.00000000D+00
  <mgrwgt>
 0.1634206373D-02    1    2    0
 0.478920096290194D+03 0.000000000000000D+00 0.000000000000000D+00 0.478920096290194D+03
 0.478920096290194D+03 0.000000000000000D+00 0.000000000000000D+00 -.478920096290194D+03
 0.483613447232825D+03 -.392276777769190D+03 0.240779413091528D+03 0.800073134078172D+02
 0.113235755567509D+03 0.873239899593394D+02 -.495946223074833D+02 -.523185488589266D+02
 0.360990989780053D+03 0.304952787809851D+03 -.191184790784045D+03 -.276887645488907D+02
 0.000000000000000D+00 0.000000000000000D+00 0.000000000000000D+00 -.000000000000000D+00
 0.485820674468940D+03 0.000000000000000D+00 0.000000000000000D+00 0.485820674468940D+03
 0.808972928472448D+03 0.000000000000000D+00 0.000000000000000D+00 -.808972928472448D+03
 0.517717136334305D+03 -.435068049667791D+03 0.238160985918602D+03 0.800073134078172D+02
 0.106434321986084D+03 0.779365187576747D+02 -.501690480861270D+02 -.523185488589266D+02
 0.337206754995375D+03 0.275115718987641D+03 -.193010541417251D+03 -.276887645488907D+02
 0.333435389625624D+03 0.820158119224756D+02 0.501860358477658D+01 -.323152254003508D+03
0.145730270425D-03 0.000000000000D+00 0.000000000000D+00 0.139467948050D-03 0.146278636335D-06  6 -1 2 25 4 -3 21 2 0.65518093D-01 0.14197832D+00 0.26133707D+06 0.26133707D+06 0.26133707D+06 0.10890131D+01  1  2  1  2  6  2        2 0.163420637287D-02 0.100000000000D+01
  </mgrwgt>
  </event>
  <event>
  7     66 0.18082911E-05 0.54238907E+02 0.75467711E-02 0.93974987E-01
       -1 -1    0    0    0  503 0.00000000E+00 0.00000000E+00 0.18619091E+03 0.18619118E+03 0.32000000E+00 0.0000E+00 0.9000E+01
        2 -1    0    0  501    0 0.00000000E+00 0.00000000E+00 -.34064456E+04 0.34064456E+04 0.32000000E+00 0.0000E+00 0.9000E+01
       24  2    1    2    0    0 0.48126547E+03 -.65397354E+02 -.22265099E+03 0.54112791E+03 0.85747833E+02 0.0000E+00 0.0000E+00
       25  1    1    2    0    0 -.46522860E+03 -.21905058E+02 -.25445318E+04 0.25898233E+04 0.12500000E+03 0.0000E+00 0.9000E+01
        4  1    3    3  502    0 0.18568469E+03 -.50988471E+02 -.12466394E+03 0.22939514E+03 0.15500000E+01 0.0000E+00 0.9000E+01
       -3  1    3    3    0  502 0.29558077E+03 -.14408883E+02 -.97987046E+02 0.31173277E+03 0.50000000E+00 0.0000E+00 0.9000E+01
       21  1    1    2  501  503 -.16036864E+02 0.87302411E+02 -.45307186E+03 0.46168557E+03 0.75000000E+00 0.0000E+00 0.9000E+01
#aMCatNLO 2  0  0  1  2 0.24754954D+01 0.00000000D+00  -5  6  0 0.00000000D+00 0.00000000D+00 0.00000000D+00 0.00000000D+00 0.00000000D+00
  <mgrwgt>
 0.9112773465D-03    1    2    0
 0.731039642634424D+03 0.000000000000000D+00 0.000000000000000D+00 0.731039642634424D+03
 0.731039642634424D+03 0.000000000000000D+00 0.000000000000000D+00 -.731039642634424D+03
 0.733868596759421D+03 -.473242516556430D+03 0.217215492431166D+02 -.546358684502642D+03
 0.250062948331215D+03 0.182828823798335D+03 -.359301406253527D+02 0.166775670621526D+03
 0.478147740178213D+03 0.290413692758095D+03 0.142085913822361D+02 0.379583013881116D+03
 0.000000000000000D+00 -.000000000000000D+00 0.000000000000000D+00 -.000000000000000D+00
 0.749726788384992D+03 0.000000000000000D+00 0.000000000000000D+00 0.749726788384992D+03
 0.845972068664303D+03 0.000000000000000D+00 0.000000000000000D+00 -.845972068664303D+03
 0.728731978870188D+03 -.465228603307275D+03 -.219050578945893D+02 -.546358684502642D+03
 0.254674149771598D+03 0.185594390409769D+03 -.509854930254967D+02 0.166775670621526D+03
 0.481365091871859D+03 0.295671076575403D+03 -.144118604792821D+02 0.379583013881116D+03
 0.130927636535650D+03 -.160368636778973D+02 0.873024113993681D+02 -.962452802793112D+02
0.539906525697D-03 0.000000000000D+00 0.000000000000D+00 0.520677727000D-05 0.419578950559D-08  6 -1 2 25 4 -3 21 2 0.28644737D-01 0.52406783D+00 0.28062557D+06 0.28062557D+06 0.28062557D+06 0.10867035D+01  1  2  1  1  6  1       -1 0.911277346463D-03 0.100000000000D+01
  </mgrwgt>
  </event>
  <event>
  7     66 0.18082911E-05 0.45356954E+02 0.75467711E-02 0.89698179E-01
       -1 -1    0    0    0  501 0.00000000E+00 0.00000000E+00 0.34313224E+03 0.34313239E+03 0.32000000E+00 0.0000E+00 0.9000E+01
        2 -1    0    0  503    0 0.00000000E+00 0.00000000E+00 -.20251359E+04 0.20251360E+04 0.32000000E+00 0.0000E+00 0.9000E+01
       24  2    1    2    0    0 -.53492427E+03 -.57307403E+03 -.53483501E+03 0.95257761E+03 0.82448771E+02 0.0000E+00 0.0000E+00
       25  1    1    2    0    0 0.50753012E+03 0.56329451E+03 -.97672301E+03 0.12427793E+04 0.12500000E+03 0.0000E+00 0.9000E+01
        4  1    3    3  502    0 -.19683130E+03 -.18733833E+03 -.22920964E+03 0.35549637E+03 0.15500000E+01 0.0000E+00 0.9000E+01
       -3  1    3    3    0  502 -.33809297E+03 -.38573570E+03 -.30562537E+03 0.59708124E+03 0.50000000E+00 0.0000E+00 0.9000E+01
       21  1    1    2  503  501 0.27394151E+02 0.97795169E+01 -.17044568E+03 0.17291145E+03 0.75000000E+00 0.0000E+00 0.9000E+01
#aMCatNLO 2  0  0  2  1 0.29750719D+02 0.00000000D+00  -5  6  0 0.00000000D+00 0.00000000D+00 0.00000000D+00 0.00000000D+00 0.00000000D+00
  <mgrwgt>
 0.9430757632D-03    1    2    0
 0.795917425561361D+03 0.000000000000000D+00 0.000000000000000D+00 0.795917425561361D+03
 0.795917425561361D+03 0.000000000000000D+00 0.000000000000000D+00 -.795917425561361D+03
 0.798690075098711D+03 0.521167707251888D+03 0.568163035993486D+03 -.166900633640679D+03
 0.267913360025942D+03 -.192070186370325D+03 -.185549242841305D+03 0.214030481258446D+02
 0.525231415998069D+03 -.329097520881563D+03 -.382613793152180D+03 0.145497585514834D+03
 0.000000000000000D+00 0.000000000000000D+00 0.000000000000000D+00 -.000000000000000D+00
 0.798919013994574D+03 0.000000000000000D+00 0.000000000000000D+00 0.798919013994574D+03
 0.869783346336883D+03 0.000000000000000D+00 0.000000000000000D+00 -.869783346336883D+03
 0.786364005011906D+03 0.507530115972765D+03 0.563294512887687D+03 -.166900633640679D+03
 0.272403383052435D+03 -.196718998670064D+03 -.187208835773266D+03 0.214030481258446D+02
 0.533333196599221D+03 -.338205267872844D+03 -.385865194060250D+03 0.145497585514834D+03
 0.766017756678957D+02 0.273941505701426D+02 0.977951694582920D+01 -.708643323423090D+02
0.259483737230D-03 0.000000000000D+00 0.000000000000D+00 0.604026180280D-04 0.430548148597D-06  6 -1 2 25 4 -3 21 2 0.52789468D-01 0.31155868D+00 0.62583911D+06 0.62583911D+06 0.62583911D+06 0.10616876D+01  1  2  1  2  6  2        2 0.943075763164D-03 0.100000000000D+01
  </mgrwgt>
  </event>
  <event>
  7     66 0.18082911E-05 0.60971691E+02 0.75467711E-02 0.94727386E-01
       -1 -1    0    0    0  501 0.00000000E+00 0.00000000E+00 0.12750340E+04 0.12750340E+04 0.32000000E+00 0.0000E+00 0.9000E+01
        2 -1    0    0  503    0 0.00000000E+00 0.00000000E+00 -.24677070E+03 0.24677091E+03 0.32000000E+00 0.0000E+00 0.9000E+01
       24  2    1    2    0    0 0.29763661E+03 0.36921735E+03 0.79558207E+03 0.92963403E+03 0.79747104E+02 0.0000E+00 0.0000E+00
       25  1    1    2    0    0 -.29694175E+03 -.38079767E+03 0.25998657E+03 0.56249381E+03 0.12500000E+03 0.0000E+00 0.9000E+01
        4  1    3    3  502    0 0.14640987E+03 0.24296358E+03 0.48359775E+03 0.56065706E+03 0.15500000E+01 0.0000E+00 0.9000E+01
       -3  1    3    3    0  502 0.15122674E+03 0.12625377E+03 0.31198432E+03 0.36897697E+03 0.50000000E+00 0.0000E+00 0.9000E+01
       21  1    1    2  503  501 -.69486399E+00 0.11580320E+02 -.27305335E+02 0.29677104E+02 0.75000000E+00 0.0000E+00 0.9000E+01
#aMCatNLO 2  0  0  2  1 0.29750719D+02 0.00000000D+00  -5  6  0 0.00000000D+00 0.00000000D+00 0.00000000D+00 0.00000000D+00 0.00000000D+00
  <mgrwgt>
 0.7398480692D-02    1    2    0
 0.527277382663667D+03 0.000000000000000D+00 0.000000000000000D+00 0.527277382663667D+03
 0.527277382663667D+03 0.000000000000000D+00 0.000000000000000D+00 -.527277382663667D+03
 0.531670421247088D+03 -.297293366057914D+03 -.374937739088355D+03 -.195158353995732D+03
 0.311735405510861D+03 0.146153930789916D+03 0.246334340299236D+03 0.123034078015066D+03
 0.211148938569384D+03 0.151139435267997D+03 0.128603398789119D+03 0.721242759806661D+02
 0.000000000000000D+00 -.000000000000000D+00 0.000000000000000D+00 -.000000000000000D+00
 0.527798157475949D+03 0.000000000000000D+00 0.000000000000000D+00 0.527798157475949D+03
 0.596134706670895D+03 0.000000000000000D+00 0.000000000000000D+00 -.596134706670895D+03
 0.535623982342572D+03 -.296941747520385D+03 -.380797670562376D+03 -.195158353995732D+03
 0.309145514770518D+03 0.146358479076158D+03 0.242925421790774D+03 0.123034078015066D+03
 0.209849078360077D+03 0.151278132432077D+03 0.126291928288002D+03 0.721242759806661D+02
 0.693142886736772D+02 -.694863987849351D+00 0.115803204836009D+02 -.683365491949464D+02
0.222402074687D-02 0.000000000000D+00 0.000000000000D+00 0.157873107796D-03 0.751138083978D-05  6 -1 2 25 4 -3 21 2 0.19615834D+00 0.37964596D-01 0.24555959D+06 0.24555959D+06 0.24555959D+06 0.10910451D+01  1  2  1  2  6  2        2 0.739848069244D-02 0.100000000000D+01
  </mgrwgt>
  </event>
  <event>
  7     66 0.18082911E-05 0.29626592E+02 0.75467711E-02 0.95152513E-01
       -1 -1    0    0    0  501 0.00000000E+00 0.00000000E+00 0.68706604E+03 0.68706611E+03 0.32000000E+00 0.0000E+00 0.9000E+01
        2 -1    0    0  503    0 0.00000000E+00 0.00000000E+00 -.34635028E+03 0.34635043E+03 0.32000000E+00 0.0000E+00 0.9000E+01
       24  2    1    2    0    0 0.13809311E+03 -.44310880E+03 0.15366507E+03 0.49575454E+03 0.82124915E+02 0.0000E+00 0.0000E+00
       25  1    1    2    0    0 -.14975074E+03 0.42953365E+03 0.20309985E+03 0.51361366E+03 0.12500000E+03 0.0000E+00 0.9000E+01
        4  1    3    3  502    0 0.36707108E+02 -.76710898E+02 0.60386169E+02 0.10431139E+03 0.15500000E+01 0.0000E+00 0.9000E+01
       -3  1    3    3    0  502 0.10138600E+03 -.36639790E+03 0.93278901E+02 0.39144316E+03 0.50000000E+00 0.0000E+00 0.9000E+01
       21  1    1    2  503  501 0.11657631E+02 0.13575142E+02 -.16049158E+02 0.24048343E+02 0.75000000E+00 0.0000E+00 0.9000E+01
#aMCatNLO 2  0  0  2  1 0.29750719D+02 0.00000000D+00  -5  6  0 0.00000000D+00 0.00000000D+00 0.00000000D+00 0.00000000D+00 0.00000000D+00
  <mgrwgt>
 0.2934699233D-02    1    2    0
 0.472022980658092D+03 0.000000000000000D+00 0.000000000000000D+00 0.472022980658092D+03
 0.472022980658092D+03 0.000000000000000D+00 0.000000000000000D+00 -.472022980658092D+03
 0.476726405748144D+03 -.143891610421116D+03 0.436356523435733D+03 0.230489662033432D+02
 0.879268384102572D+02 0.377619171049583D+02 -.753143716450918D+02 0.251577414146566D+02
 0.379392717157782D+03 0.106129693316157D+03 -.361042151790641D+03 -.482067076179998D+02
 0.000000000000000D+00 0.000000000000000D+00 0.000000000000000D+00 -.000000000000000D+00
 0.474867713483017D+03 0.000000000000000D+00 0.000000000000000D+00 0.474867713483017D+03
 0.501110540566140D+03 0.000000000000000D+00 0.000000000000000D+00 -.501110540566140D+03
 0.472314194838471D+03 -.149750738086835D+03 0.429533654380328D+03 0.230489662033432D+02
 0.885593268831761D+02 0.366723378255804D+02 -.765831708883942D+02 0.251577414146566D+02
 0.383342005537474D+03 0.101420769258971D+03 -.366525625452088D+03 -.482067076179998D+02
 0.317627267900354D+02 0.116576310022832D+02 0.135751419601541D+02 -.262428270831232D+02
0.220076479336D-03 0.000000000000D+00 0.000000000000D+00 0.285878818544D-04 0.570467979600D-06  6 -1 2 25 4 -3 21 2 0.10570150D+00 0.53284182D-01 0.22793692D+06 0.22793692D+06 0.22793692D+06 0.10934906D+01  1  2  1  2  6  2        2 0.293469923307D-02 0.100000000000D+01
  </mgrwgt>
  </event>
  <event>
  7     66 0.18082911E-05 0.58995560E+02 0.75467711E-02 0.95108785E-01
       -1 -1    0    0    0  501 0.00000000E+00 0.00000000E+00 0.18688715E+03 0.18688742E+03 0.32000000E+00 0.0000E+00 0.9000E+01
        2 -1    0    0  503    0 0.00000000E+00 0.00000000E+00 -.17172612E+04 0.17172612E+04 0.32000000E+00 0.0000E+00 0.9000E+01
       24  2    1    2    0    0 -.27948725E+03 -.36919477E+03 -.11987627E+04 0.12876439E+04 0.81097267E+02 0.0000E+00 0.0000E+00
       25  1    1    2    0    0 0.27080945E+03 0.37827809E+03 -.26717993E+03 0.55085587E+03 0.12500000E+03 0.0000E+00 0.9000E+01
        4  1    3    3  502    0 -.15650592E+03 -.23335334E+03 -.82171668E+03 0.86842880E+03 0.15500000E+01 0.0000E+00 0.9000E+01
       -3  1    3    3    0  502 -.12298133E+03 -.13584143E+03 -.37704603E+03 0.41921505E+03 0.50000000E+00 0.0000E+00 0.9000E+01
       21  1    1    2  503  501 0.86777918E+01 -.90833240E+01 -.64431381E+02 0.65648886E+02 0.75000000E+00 0.0000E+00 0.9000E+01
#aMCatNLO 2  0  0  2  1 0.38357754D+02 0.00000000D+00  -5  6  0 0.00000000D+00 0.00000000D+00 0.00000000D+00 0.00000000D+00 0.00000000D+00
  <mgrwgt>
 0.3590681829D-02    1    2    0
 0.554737689929162D+03 0.000000000000000D+00 0.000000000000000D+00 0.554737689929162D+03
 0.554737689929162D+03 0.000000000000000D+00 0.000000000000000D+00 -.554737689929162D+03
 0.558815397969003D+03 0.275183791106251D+03 0.373699334569360D+03 0.285083036082585D+03
 0.353963070489119D+03 -.153701256120102D+03 -.236207491407278D+03 -.214177029908132D+03
 0.196696911400202D+03 -.121482534986150D+03 -.137491843162081D+03 -.709060061744531D+02
 0.000000000000000D+00 0.000000000000000D+00 -.000000000000000D+00 -.000000000000000D+00
 0.556580299172227D+03 0.000000000000000D+00 0.000000000000000D+00 0.556580299172227D+03
 0.576605903199878D+03 0.000000000000000D+00 0.000000000000000D+00 -.576605903199878D+03
 0.559758353499980D+03 0.270809453827247D+03 0.378278094222666D+03 0.285083036082585D+03
 0.353254096859754D+03 -.156466926613821D+03 -.233312575066062D+03 -.214177029908132D+03
 0.196534046799204D+03 -.123020319005711D+03 -.135882195122808D+03 -.709060061744531D+02
 0.236397052131674D+02 0.867779179228518D+01 -.908332403379556D+01 -.200256040276511D+02
0.207497573611D-03 0.000000000000D+00 0.000000000000D+00 0.188431567815D-03 0.761691460263D-05  6 -1 2 25 4 -3 21 2 0.28751586D-01 0.26419123D+00 0.22968242D+06 0.22968242D+06 0.22968242D+06 0.10932393D+01  1  2  1  2  6  2        2 0.359068182867D-02 0.100000000000D+01
  </mgrwgt>
  </event>
  <event>
  6     66 0.18082911E-05 0.53859551E+02 0.75467711E-02 0.86849553E-01
       -1 -1    0    0    0  501 0.00000000E+00 0.00000000E+00 0.50109361E+03 0.50109372E+03 0.32000000E+00 0.0000E+00 0.9000E+01
        2 -1    0    0  501    0 -.00000000E+00 -.00000000E+00 -.23207085E+04 0.23207085E+04 0.32000000E+00 0.0000E+00 0.9000E+01
       25  1    1    2    0    0 -.82235304E+03 0.63444082E+03 -.11341083E+04 0.15429213E+04 0.12500000E+03 0.0000E+00 0.9000E+01
        4  1    1    2  503    0 0.28827374E+03 -.17654711E+03 -.20312345E+03 0.39437567E+03 0.15500000E+01 0.0000E+00 0.9000E+01
       -3  1    1    2    0  502 0.54147132E+03 -.46863109E+03 -.49152646E+03 0.86856479E+03 0.50000000E+00 0.0000E+00 0.9000E+01
       21  1    1    2  502  503 -.73920211E+01 0.10737381E+02 0.91433265E+01 0.15940397E+02 0.75000000E+00 0.0000E+00 0.9000E+01
#aMCatNLO 2  0  0  4  1 0.34790763D+03 0.00000000D+00  -5  6  0 0.00000000D+00 0.00000000D+00 0.00000000D+00 0.00000000D+00 0.00000000D+00
  <mgrwgt>
 0.4284920011D-01    1    2    0
 0.107837486963203D+04 0.000000000000000D+00 0.000000000000000D+00 0.107837486963203D+04
 0.107837486963203D+04 -.000000000000000D+00 -.000000000000000D+00 -.107837486963203D+04
 0.107863376090880D+04 -.836516356543099D+03 0.642801690992683D+03 -.186740893928111D+03
 0.367287474864015D+03 0.304333321427396D+03 -.179599378525869D+03 0.100126829042347D+03
 0.710828503491244D+03 0.532183035115703D+03 -.463202312466814D+03 0.866140648857640D+02
 0.000000000000000D+00 0.000000000000000D+00 0.000000000000000D+00 0.000000000000000D+00
 0.107837486963203D+04 0.000000000000000D+00 0.000000000000000D+00 0.107837486963203D+04
 0.107837486963203D+04 -.000000000000000D+00 -.000000000000000D+00 -.107837486963203D+04
 0.106179392049152D+04 -.822291334058604D+03 0.634406930978403D+03 -.182060807016339D+03
 0.344259368683974D+03 0.288008244262498D+03 -.176367847950486D+03 0.667843272994187D+02
 0.722006453156948D+03 0.541705482265871D+03 -.468821892939285D+03 0.897469864909229D+02
 0.286899969316162D+02 -.742239246976483D+01 0.107828099113682D+02 0.255294932259970D+02
0.387273667560D-01 0.000000000000D+00 0.000000000000D+00 0.891945499222D-07 0.130523783229D-06  6 -1 2 25 4 -3 21 2 0.77091335D-01 0.35703208D+00 0.11164940D+07 0.11164940D+07 0.11164940D+07 0.10446931D+01  1  2  1  3  6  4        4 0.428492001090D-01 0.100000000000D+01
  </mgrwgt>
  </event>
  <event>
  6     66 0.18082911E-05 0.13593566E+02 0.75467711E-02 0.93452671E-01
       -1 -1    0    0    0  501 0.00000000E+00 0.00000000E+00 0.15164039E+03 0.15164073E+03 0.32000000E+00 0.0000E+00 0.9000E+01
        2 -1    0    0  501    0 -.00000000E+00 -.00000000E+00 -.20542192E+04 0.20542193E+04 0.32000000E+00 0.0000E+00 0.9000E+01
       24  2    1    2    0    0 0.47076048E+03 0.27633972E+03 -.10525812E+04 0.11879700E+04 0.73255986E+02 0.0000E+00 0.0000E+00
       25  1    1    2    0    0 -.47076048E+03 -.27633972E+03 -.84999769E+03 0.10178900E+04 0.12500000E+03 0.0000E+00 0.9000E+01
        4  1    3    3  502    0 0.17422666E+02 -.33148942E+01 -.41668327E+02 0.45312138E+02 0.15500000E+01 0.0000E+00 0.9000E+01
       -3  1    3    3    0  502 0.45333781E+03 0.27965461E+03 -.10109128E+04 0.11426578E+04 0.50000000E+00 0.0000E+00 0.9000E+01
#aMCatNLO 1  0  0  4  5 0.77297380D+00 0.00000000D+00  -5  6  0 0.00000000D+00 0.00000000D+00 0.00000000D+00 0.00000000D+00 0.00000000D+00
  <mgrwgt>
 0.3490874559D-03    8    2    0
 0.558124544491599D+03 0.000000000000000D+00 0.000000000000000D+00 0.558124544491599D+03
 0.558124544491599D+03 -.000000000000000D+00 -.000000000000000D+00 -.558124544491599D+03
 0.562719648251552D+03 -.470760476026819D+03 -.276339717791117D+03 0.552208032400740D+02
 0.182830265702810D+02 0.172204142218968D+02 -.344031485645992D+01 -.508828343199514D+01
 0.535246414161365D+03 0.453540061804922D+03 0.279780032647577D+03 -.501325198080789D+02
 0.000000000000000D+00 0.000000000000000D+00 0.000000000000000D+00 -.000000000000000D+00
 0.558124544491599D+03 0.000000000000000D+00 0.000000000000000D+00 0.558124544491599D+03
 0.558124544491599D+03 -.000000000000000D+00 -.000000000000000D+00 -.558124544491599D+03
 0.562695733815008D+03 -.470729315269484D+03 -.276345943124319D+03 0.552115958677522D+02
 0.870259446895536D+01 0.841173094652941D+01 -.104756675726428D+01 -.196990783118569D+01
 0.535269255571615D+03 0.453569702486523D+03 0.279774110996916D+03 -.501412780288254D+02
 0.958150512761946D+01 0.874788183643175D+01 -.238060111533282D+01 -.310041000774117D+01
0.766648436512D-06 0.000000000000D+00 0.000000000000D+00 0.932353525137D-06 0.000000000000D+00  6 -1 2 25 4 -3 21 0 0.23329319D-01 0.31603376D+00 0.30827914D+06 0.30827914D+06 0.30827914D+06 0.10836782D+01  1  2  2  3  6  4        4 0.101721753632D-04 0.100000000000D+01
0.341722876319D-06 0.000000000000D+00 -.294413185938D-08 0.932353525137D-06 0.000000000000D+00  6 -1 2 25 4 -3 21 2 0.23329319D-01 0.31603376D+00 0.30827914D+06 0.30827914D+06 0.30827914D+06 0.10836782D+01  1  2  3  3  6  4        4 0.532466566254D-05 0.100000000000D+01
-.224603467360D-06 0.000000000000D+00 0.000000000000D+00 0.932353525137D-06 0.000000000000D+00  6 -1 2 25 4 -3 21 2 0.23329319D-01 0.31603376D+00 0.30827914D+06 0.30827914D+06 0.30827914D+06 0.10836782D+01  1  2 15  3  6  4        4 -.349973166333D-05 0.100000000000D+01
0.746543867441D-12 0.000000000000D+00 0.000000000000D+00 0.932353525137D-06 0.000000000000D+00  6 -1 2 25 4 -3 21 2 0.23329319D-01 0.31603376D+00 0.30826860D+06 0.30826860D+06 0.30826860D+06 0.10836793D+01  1  2 12  3  6  4        4 0.116325543591D-10 0.100000000000D+01
-.691202363474D-04 0.000000000000D+00 0.000000000000D+00 0.932353525137D-06 0.000000000000D+00  6 -1 2 25 4 -3 21 2 0.23329319D-01 0.31603376D+00 0.30827914D+06 0.30827914D+06 0.30827914D+06 0.10836782D+01  1  2  4  3  6  4        4 -.107701934688D-02 0.100000000000D+01
-.235905772607D-04 0.000000000000D+00 0.000000000000D+00 0.932353525137D-06 0.000000000000D+00  6 -1 2 25 4 -3 21 2 0.23329319D-01 0.31603376D+00 0.30827914D+06 0.30827914D+06 0.30827914D+06 0.10836782D+01  1  2  5  3  6  4        4 -.367584219273D-03 0.100000000000D+01
0.934119516590D-04 0.000000000000D+00 -.000000000000D+00 0.932353525137D-06 0.000000000000D+00  6 -1 2 25 4 -3 21 2 0.23329319D-01 0.31603376D+00 0.30827914D+06 0.30827914D+06 0.30827914D+06 0.10836782D+01  1  2  6  3  6  4        4 0.145552857575D-02 0.100000000000D+01
0.209323520756D-04 0.000000000000D+00 0.000000000000D+00 0.932353525137D-06 0.253089426672D-05  6 -1 2 25 4 -3 21 2 0.23329319D-01 0.31603376D+00 0.30826860D+06 0.30826860D+06 0.30826860D+06 0.10836793D+01  1  2 11  3  6  4        4 0.326165325312D-03 0.100000000000D+01
  </mgrwgt>
  </event>
  <event>
  6     66 -.18082911E-05 0.16110806E+02 0.75467711E-02 0.94494318E-01
       -1 -1    0    0    0  501 0.00000000E+00 0.00000000E+00 0.62136544E+03 0.62136552E+03 0.32000000E+00 0.0000E+00 0.9000E+01
        2 -1    0    0  501    0 0.00000000E+00 0.00000000E+00 -.43234075E+03 0.43234086E+03 0.32000000E+00 0.0000E+00 0.9000E+01
       24  2    1    2    0    0 0.39999644E+03 0.29369437E+03 -.14653301E+02 0.50292216E+03 0.80389330E+02 0.0000E+00 0.0000E+00
       25  1    1    2    0    0 -.39999644E+03 -.29369437E+03 0.20367799E+03 0.55078422E+03 0.12500000E+03 0.0000E+00 0.9000E+01
        4  1    3    3  502    0 0.39399147E+03 0.27552088E+03 -.24489122E+02 0.48139709E+03 0.15500000E+01 0.0000E+00 0.9000E+01
       -3  1    3    3    0  502 0.60049662E+01 0.18173489E+02 0.98358204E+01 0.21525071E+02 0.50000000E+00 0.0000E+00 0.9000E+01
#aMCatNLO 1  0  0  5  4 0.82713177D+00 0.00000000D+00  -5  6  0 0.00000000D+00 0.00000000D+00 0.00000000D+00 0.00000000D+00 0.00000000D+00
  <mgrwgt>
 -.3385179176D-02    8    2    0
 0.518306571016923D+03 0.000000000000000D+00 0.000000000000000D+00 0.518306571016923D+03
 0.518306571016923D+03 -.000000000000000D+00 -.000000000000000D+00 -.518306571016923D+03
 0.522726038260226D+03 -.399996439357131D+03 -.293694371195454D+03 0.106601950755863D+03
 0.493812287176786D+03 0.394004493144531D+03 0.275524789602913D+03 -.112681518728497D+03
 0.200748165968345D+02 0.599194621259972D+01 0.181695815925402D+02 0.607956797263386D+01
 0.000000000000000D+00 0.000000000000000D+00 0.000000000000000D+00 0.000000000000000D+00
 0.518306571016923D+03 0.000000000000000D+00 0.000000000000000D+00 0.518306571016923D+03
 0.518306571016923D+03 -.000000000000000D+00 -.000000000000000D+00 -.518306571016923D+03
 0.522697637605628D+03 -.399983883492298D+03 -.293656297620951D+03 0.106614690228315D+03
 0.493839075576284D+03 0.394016355145841D+03 0.275560759151538D+03 -.112669483266112D+03
 0.578186044711192D+01 0.921584540813912D+00 0.543535142991514D+01 0.174285598869483D+01
 0.142945684048238D+02 0.504594380564315D+01 0.126601870394973D+02 0.431193704910253D+01
0.540000685104D-05 0.000000000000D+00 0.000000000000D+00 0.691631004811D-04 0.000000000000D+00  6 -1 2 25 4 -3 21 0 0.95594698D-01 0.66513976D-01 0.25586247D+06 0.25586247D+06 0.25586247D+06 0.10897026D+01  1  2  2  4  6  5       -3 0.588289072541D-04 0.100000000000D+01
0.207366349484D-05 0.000000000000D+00 -.207374481624D-07 0.691631004811D-04 0.000000000000D+00  6 -1 2 25 4 -3 21 2 0.95594698D-01 0.66513976D-01 0.25586247D+06 0.25586247D+06 0.25586247D+06 0.10897026D+01  1  2  3  4  6  5       -3 0.268256797386D-04 0.100000000000D+01
-.164971876661D-05 0.000000000000D+00 0.000000000000D+00 0.691631004811D-04 0.000000000000D+00  6 -1 2 25 4 -3 21 2 0.95594698D-01 0.66513976D-01 0.25586247D+06 0.25586247D+06 0.25586247D+06 0.10897026D+01  1  2 15  4  6  5       -3 -.213413735652D-04 0.100000000000D+01
0.206838733389D-10 0.000000000000D+00 0.000000000000D+00 0.691631004811D-04 0.000000000000D+00  6 -1 2 25 4 -3 21 2 0.95594698D-01 0.66513976D-01 0.25586662D+06 0.25586662D+06 0.25586662D+06 0.10897021D+01  1  2 12  4  6  5       -3 0.267573865219D-09 0.100000000000D+01
-.794188633167D-03 0.000000000000D+00 0.000000000000D+00 0.691631004811D-04 0.000000000000D+00  6 -1 2 25 4 -3 21 2 0.95594698D-01 0.66513976D-01 0.25586247D+06 0.25586247D+06 0.25586247D+06 0.10897026D+01  1  2  4  4  6  5       -3 -.102739185883D-01 0.100000000000D+01
-.100708408344D-03 0.000000000000D+00 0.000000000000D+00 0.691631004811D-04 0.000000000000D+00  6 -1 2 25 4 -3 21 2 0.95594698D-01 0.66513976D-01 0.25586247D+06 0.25586247D+06 0.25586247D+06 0.10897026D+01  1  2  5  4  6  5       -3 -.130280130597D-02 0.100000000000D+01
0.524776153732D-03 0.000000000000D+00 -.000000000000D+00 0.691631004811D-04 0.000000000000D+00  6 -1 2 25 4 -3 21 2 0.95594698D-01 0.66513976D-01 0.25586247D+06 0.25586247D+06 0.25586247D+06 0.10897026D+01  1  2  6  4  6  5       -3 0.678869887497D-02 0.100000000000D+01
0.103470311182D-03 0.000000000000D+00 0.000000000000D+00 0.691631004811D-04 0.102351071115D-03  6 -1 2 25 4 -3 21 2 0.95594698D-01 0.66513976D-01 0.25586662D+06 0.25586662D+06 0.25586662D+06 0.10897021D+01  1  2 11  4  6  5       -3 0.133852836192D-02 0.100000000000D+01
  </mgrwgt>
  </event>
  <event>
  6     66 -.18082911E-05 0.17213434E+02 0.75467711E-02 0.93250822E-01
       -1 -1    0    0    0  501 0.00000000E+00 0.00000000E+00 0.15303501E+03 0.15303534E+03 0.32000000E+00 0.0000E+00 0.9000E+01
        2 -1    0    0  501    0 -.00000000E+00 -.00000000E+00 -.20978787E+04 0.20978788E+04 0.32000000E+00 0.0000E+00 0.9000E+01
       24  2    1    2    0    0 0.44627865E+03 -.33145228E+03 -.10293932E+04 0.11726285E+04 0.79886976E+02 0.0000E+00 0.0000E+00
       25  1    1    2    0    0 -.44627865E+03 0.33145228E+03 -.91545054E+03 0.10782856E+04 0.12500000E+03 0.0000E+00 0.9000E+01
        4  1    3    3  502    0 0.66111770E+01 -.23283549E+02 -.35710358E+02 0.43167853E+02 0.15500000E+01 0.0000E+00 0.9000E+01
       -3  1    3    3    0  502 0.43966747E+03 -.30816873E+03 -.99368284E+03 0.11294606E+04 0.50000000E+00 0.0000E+00 0.9000E+01
#aMCatNLO 1  0  0  4  4 0.98067074D+00 0.00000000D+00  -5  6  0 0.00000000D+00 0.00000000D+00 0.00000000D+00 0.00000000D+00 0.00000000D+00
  <mgrwgt>
 -.3438490329D-02    6    2    0
 0.566612124372877D+03 0.000000000000000D+00 0.000000000000000D+00 0.566612124372877D+03
 0.566612124372877D+03 -.000000000000000D+00 -.000000000000000D+00 -.566612124372877D+03
 0.570690342392869D+03 -.446278649466131D+03 0.331452276841659D+03 0.322059328021537D+02
 0.242560093136635D+02 0.644584655295986D+01 -.231683979440921D+02 0.316707858197630D+01
 0.538277897039222D+03 0.439832802913171D+03 -.308283878897567D+03 -.353730113841300D+02
 0.000000000000000D+00 0.000000000000000D+00 0.000000000000000D+00 0.000000000000000D+00
 0.566612124372877D+03 0.000000000000000D+00 0.000000000000000D+00 0.566612124372877D+03
 0.566612124372877D+03 -.000000000000000D+00 -.000000000000000D+00 -.566612124372877D+03
 0.570488283392457D+03 -.446207537967690D+03 0.331196679771397D+03 0.322408724647404D+02
 0.230700565328191D+02 0.657695953001223D+01 -.220089795878425D+02 0.213914218087135D+01
 0.538468702377882D+03 0.439899899389039D+03 -.308525044715087D+03 -.353400444479949D+02
 0.119720644259711D+01 -.269320951361882D+00 -.662655468467343D+00 0.960029802383176D+00
0.468377288572D-05 0.000000000000D+00 0.000000000000D+00 0.304749685141D-04 0.000000000000D+00  6 -1 2 25 4 -3 21 0 0.23543875D-01 0.32275060D+00 0.31975836D+06 0.31975836D+06 0.31975836D+06 0.10825084D+01  1  2  2  3  6  4        4 0.578257589723D-04 0.100000000000D+01
0.182524016201D-05 0.000000000000D+00 -.179869211469D-07 0.304749685141D-04 0.000000000000D+00  6 -1 2 25 4 -3 21 2 0.23543875D-01 0.32275060D+00 0.31975836D+06 0.31975836D+06 0.31975836D+06 0.10825084D+01  1  2  3  3  6  4        4 0.264063311291D-04 0.100000000000D+01
-.140972595005D-05 0.000000000000D+00 0.000000000000D+00 0.304749685141D-04 0.000000000000D+00  6 -1 2 25 4 -3 21 2 0.23543875D-01 0.32275060D+00 0.31975836D+06 0.31975836D+06 0.31975836D+06 0.10825084D+01  1  2 15  3  6  4        4 -.203949546000D-04 0.100000000000D+01
-.255240004874D-03 0.000000000000D+00 0.000000000000D+00 0.304749685141D-04 0.000000000000D+00  6 -1 2 25 4 -3 21 2 0.23543875D-01 0.32275060D+00 0.31975836D+06 0.31975836D+06 0.31975836D+06 0.10825084D+01  1  2  4  3  6  4        4 -.369263849567D-02 0.100000000000D+01
-.738928715176D-04 0.000000000000D+00 0.000000000000D+00 0.304749685141D-04 0.000000000000D+00  6 -1 2 25 4 -3 21 2 0.23543875D-01 0.32275060D+00 0.31975836D+06 0.31975836D+06 0.31975836D+06 0.10825084D+01  1  2  5  3  6  4        4 -.106903172195D-02 0.100000000000D+01
0.870474190374D-04 0.000000000000D+00 -.000000000000D+00 0.304749685141D-04 0.000000000000D+00  6 -1 2 25 4 -3 21 2 0.23543875D-01 0.32275060D+00 0.31975836D+06 0.31975836D+06 0.31975836D+06 0.10825084D+01  1  2  6  3  6  4        4 0.125934275329D-02 0.100000000000D+01
  </mgrwgt>
  </event>
  <event>
  6     66 -.18082911E-05 0.10752874E+02 0.75467711E-02 0.95014389E-01
       -1 -1    0    0    0  501 0.00000000E+00 0.00000000E+00 0.92663705E+02 0.92664257E+02 0.32000000E+00 0.0000E+00 0.9000E+01
        2 -1    0    0  501    0 -.00000000E+00 -.00000000E+00 -.25691074E+04 0.25691074E+04 0.32000000E+00 0.0000E+00 0.9000E+01
       24  2    1    2    0    0 0.43646379E+03 -.18530359E+03 -.10909772E+04 0.11920845E+04 0.77434356E+02 0.0000E+00 0.0000E+00
       25  1    1    2    0    0 -.43646379E+03 0.18530359E+03 -.13854664E+04 0.14696871E+04 0.12500000E+03 0.0000E+00 0.9000E+01
        4  1    3    3  502    0 0.60582359E+01 -.90691513E+01 -.60756978E+02 0.61747588E+02 0.15500000E+01 0.0000E+00 0.9000E+01
       -3  1    3    3    0  502 0.43040556E+03 -.17623444E+03 -.10302203E+04 0.11303369E+04 0.50000000E+00 0.0000E+00 0.9000E+01
#aMCatNLO 1  0  0  4  4 0.27495446D+00 0.00000000D+00  -5  6  0 0.00000000D+00 0.00000000D+00 0.00000000D+00 0.00000000D+00 0.00000000D+00
  <mgrwgt>
 -.9062041043D-03    7    2    0
 0.487917787246591D+03 0.000000000000000D+00 0.000000000000000D+00 0.487917787246591D+03
 0.487917787246591D+03 -.000000000000000D+00 -.000000000000000D+00 -.487917787246591D+03
 0.492851467114627D+03 -.436463792130012D+03 0.185303588719719D+03 -.493913636592775D+02
 0.140535555676780D+02 0.588595099486083D+01 -.899888212017346D+01 -.904865324604337D+01
 0.468930551810877D+03 0.430577841135151D+03 -.176304706599546D+03 0.584400169053210D+02
 0.000000000000000D+00 0.000000000000000D+00 0.000000000000000D+00 -.000000000000000D+00
 0.487917787246591D+03 0.000000000000000D+00 0.000000000000000D+00 0.487917787246591D+03
 0.487917787246591D+03 -.000000000000000D+00 -.000000000000000D+00 -.487917787246591D+03
 0.492829113648175D+03 -.436446679893900D+03 0.185277426253242D+03 -.494176708254399D+02
 0.135316875246323D+02 0.590571098764859D+01 -.852993901885299D+01 -.868730598800942D+01
 0.468951743500834D+03 0.430594123553204D+03 -.176329600378108D+03 0.584149854439479D+02
 0.523029819541001D+00 -.531546469534771D-01 -.417886856281454D+00 -.310008630498485D+00
0.375579295110D-05 0.000000000000D+00 0.000000000000D+00 0.654115073896D-05 0.000000000000D+00  6 -1 2 25 4 -3 21 0 0.14255999D-01 0.39524733D+00 0.23348127D+06 0.23348127D+06 0.23348127D+06 0.10926996D+01  1  2  2  3  6  4        4 0.570591546229D-04 0.100000000000D+01
0.165997426835D-05 0.000000000000D+00 -.144232338552D-07 0.654115073896D-05 0.000000000000D+00  6 -1 2 25 4 -3 21 2 0.14255999D-01 0.39524733D+00 0.23348127D+06 0.23348127D+06 0.23348127D+06 0.10926996D+01  1  2  3  3  6  4        4 0.301110981623D-04 0.100000000000D+01
-.114415003157D-05 0.000000000000D+00 0.000000000000D+00 0.654115073896D-05 0.000000000000D+00  6 -1 2 25 4 -3 21 2 0.14255999D-01 0.39524733D+00 0.23348127D+06 0.23348127D+06 0.23348127D+06 0.10926996D+01  1  2 15  3  6  4        4 -.207543059972D-04 0.100000000000D+01
-.263804844961D-03 0.000000000000D+00 0.000000000000D+00 0.654115073896D-05 0.000000000000D+00  6 -1 2 25 4 -3 21 2 0.14255999D-01 0.39524733D+00 0.23348127D+06 0.23348127D+06 0.23348127D+06 0.10926996D+01  1  2  4  3  6  4        4 -.478528717809D-02 0.100000000000D+01
-.229274754606D-03 0.000000000000D+00 0.000000000000D+00 0.654115073896D-05 0.000000000000D+00  6 -1 2 25 4 -3 21 2 0.14255999D-01 0.39524733D+00 0.23348127D+06 0.23348127D+06 0.23348127D+06 0.10926996D+01  1  2  5  3  6  4        4 -.415892870974D-02 0.100000000000D+01
0.263243500560D-03 0.000000000000D+00 -.000000000000D+00 0.654115073896D-05 0.000000000000D+00  6 -1 2 25 4 -3 21 2 0.14255999D-01 0.39524733D+00 0.23348127D+06 0.23348127D+06 0.23348127D+06 0.10926996D+01  1  2  6  3  6  4        4 0.477510467304D-02 0.100000000000D+01
0.176218778896D-03 0.000000000000D+00 0.000000000000D+00 0.654115073896D-05 0.366108077747D-03  6 -1 2 25 4 -3 21 2 0.14255999D-01 0.39524733D+00 0.23350186D+06 0.23350186D+06 0.23350186D+06 0.10926967D+01  1  2 11  3  6  4        4 0.319649116375D-02 0.100000000000D+01
  </mgrwgt>
  </event>
  <event>
  7     66 0.18082911E-05 0.59070864E+02 0.75467711E-02 0.93573470E-01
       -1 -1    0    0    0  503 0.00000000E+00 0.00000000E+00 0.11650262E+03 0.11650306E+03 0.32000000E+00 0.0000E+00 0.9000E+01
        2 -1    0    0  501    0 0.00000000E+00 0.00000000E+00 -.33508516E+04 0.33508517E+04 0.32000000E+00 0.0000E+00 0.9000E+01
       24  2    1    2    0    0 -.47896831E+03 -.11330871E+03 -.82623272E+03 0.96511686E+03 0.80873675E+02 0.0000E+00 0.0000E+00
       25  1    1    2    0    0 0.50402176E+03 0.38290576E+02 -.23418894E+04 0.23990780E+04 0.12500000E+03 0.0000E+00 0.9000E+01
        4  1    3    3  502    0 -.96797162E+02 0.92598411E+01 -.15074325E+03 0.17939165E+03 0.15500000E+01 0.0000E+00 0.9000E+01
       -3  1    3    3    0  502 -.38217115E+03 -.12256855E+03 -.67548947E+03 0.78572521E+03 0.50000000E+00 0.0000E+00 0.9000E+01
       21  1    1    2  501  503 -.25053450E+02 0.75018132E+02 -.66226872E+02 0.10315986E+03 0.75000000E+00 0.0000E+00 0.9000E+01
#aMCatNLO 2  0  0  1  4 0.24232507D+02 0.00000000D+00  -5  6  0 0.00000000D+00 0.00000000D+00 0.00000000D+00 0.00000000D+00 0.00000000D+00
  <mgrwgt>
 0.9075825240D-04    1    2    0
 0.564480661781730D+03 0.000000000000000D+00 0.000000000000000D+00 0.564480661781730D+03
 0.564480661781730D+03 0.000000000000000D+00 0.000000000000000D+00 -.564480661781730D+03
 0.568504027611964D+03 0.491341070038677D+03 0.762606573935657D+02 -.245642208177205D+03
 0.114153641894876D+03 -.991569299370218D+02 0.167805898974510D+02 0.540126744942487D+02
 0.446303654056619D+03 -.392184140101656D+03 -.930412472910167D+02 0.191629533682957D+03
 0.000000000000000D+00 -.000000000000000D+00 0.000000000000000D+00 0.000000000000000D+00
 0.672451147950399D+03 0.000000000000000D+00 0.000000000000000D+00 0.672451147950399D+03
 0.580536221745273D+03 0.000000000000000D+00 0.000000000000000D+00 -.580536221745273D+03
 0.575733614808741D+03 0.504021758000213D+03 0.382905764508819D+02 -.245642208177205D+03
 0.111117926600921D+03 -.966604219033781D+02 0.930523742453709D+01 0.540126744942487D+02
 0.444876811825286D+03 -.382307886265646D+03 -.122613945452290D+03 0.191629533682957D+03
 0.121259016460725D+03 -.250534498311887D+02 0.750181315768711D+02 0.919149262051258D+02
0.230095928478D-04 0.000000000000D+00 0.000000000000D+00 0.117566320223D-03 0.118984226979D-06  6 -1 2 25 4 -3 21 2 0.17923480D-01 0.51551466D+00 0.30161407D+06 0.30161407D+06 0.30161407D+06 0.10843795D+01  1  2  1  1  6  1       -1 0.907582523995D-04 0.100000000000D+01
  </mgrwgt>
  </event>
  <event>
  7     66 0.18082911E-05 0.30042075E+02 0.75467711E-02 0.93172586E-01
       -1 -1    0    0    0  501 0.00000000E+00 0.00000000E+00 0.73490030E+03 0.73490037E+03 0.32000000E+00 0.0000E+00 0.9000E+01
        2 -1    0    0  503    0 0.00000000E+00 0.00000000E+00 -.68337321E+03 0.68337328E+03 0.32000000E+00 0.0000E+00 0.9000E+01
       24  2    1    2    0    0 0.25567535E+03 0.49999923E+03 0.25548810E+03 0.62192606E+03 0.78413927E+02 0.0000E+00 0.0000E+00
       25  1    1    2    0    0 -.23708717E+03 -.45917950E+03 0.54094154E+02 0.53442241E+03 0.12500000E+03 0.0000E+00 0.9000E+01
        4  1    3    3  502    0 0.16335030E+03 0.35191788E+03 0.13909029E+03 0.41216262E+03 0.15500000E+01 0.0000E+00 0.9000E+01
       -3  1    3    3    0  502 0.92325051E+02 0.14808135E+03 0.11639781E+03 0.20976344E+03 0.50000000E+00 0.0000E+00 0.9000E+01
       21  1    1    2  503  501 -.18588182E+02 -.40819726E+02 -.25805516E+03 0.26192518E+03 0.75000000E+00 0.0000E+00 0.9000E+01
#aMCatNLO 2  0  0  2  1 0.99564778D+00 0.00000000D+00  -5  6  0 0.00000000D+00 0.00000000D+00 0.00000000D+00 0.00000000D+00 0.00000000D+00
  <mgrwgt>
 0.1181023811D-02    1    2    0
 0.556616755640270D+03 0.000000000000000D+00 0.000000000000000D+00 0.556616755640270D+03
 0.556616755640270D+03 0.000000000000000D+00 0.000000000000000D+00 -.556616755640270D+03
 0.560872940912333D+03 -.246271329433724D+03 -.479347950611150D+03 -.923549153618072D+02
 0.373759309357217D+03 0.156954754529484D+03 0.337894322837241D+03 0.298102827248526D+02
 0.178601261010990D+03 0.893165749042397D+02 0.141453627773908D+03 0.625446326369546D+02
 0.000000000000000D+00 -.000000000000000D+00 -.000000000000000D+00 -.000000000000000D+00
 0.558538594994419D+03 0.000000000000000D+00 0.000000000000000D+00 0.558538594994419D+03
 0.899151014550669D+03 0.000000000000000D+00 0.000000000000000D+00 -.899151014550669D+03
 0.539639295717825D+03 -.237087170805990D+03 -.459179499248992D+03 -.923549153618072D+02
 0.389073111980303D+03 0.163320857268510D+03 0.351874311496280D+03 0.298102827248526D+02
 0.185424307960913D+03 0.923544953004967D+02 0.148124913869620D+03 0.625446326369546D+02
 0.343552893886047D+03 -.185881817630165D+02 -.408197261169085D+02 -.340612419556250D+03
0.232566405203D-03 0.000000000000D+00 0.000000000000D+00 0.660960745319D-04 0.227303135110D-06  6 -1 2 25 4 -3 21 2 0.11306151D+00 0.10513427D+00 0.32434017D+06 0.32434017D+06 0.32434017D+06 0.10820542D+01  1  2  1  2  6  2        2 0.118102381093D-02 0.100000000000D+01
  </mgrwgt>
  </event>
  <event>
  7     66 0.18082911E-05 0.22335609E+03 0.75467711E-02 0.93675495E-01
       -1 -1    0    0    0  501 0.00000000E+00 0.00000000E+00 0.14982902E+03 0.14982937E+03 0.32000000E+00 0.0000E+00 0.9000E+01
        2 -1    0    0  503    0 0.00000000E+00 0.00000000E+00 -.28493470E+04 0.28493471E+04 0.32000000E+00 0.0000E+00 0.9000E+01
       24  2    1    2    0    0 0.64091417E+01 0.34945152E+03 -.45552467E+03 0.57979574E+03 0.80640812E+02 0.0000E+00 0.0000E+00
       25  1    1    2    0    0 0.24020812E+03 -.40274574E+03 -.68147705E+03 0.83662419E+03 0.12500000E+03 0.0000E+00 0.9000E+01
        4  1    3    3  502    0 0.17981735E+02 0.22960488E+03 -.35386427E+03 0.42221329E+03 0.15500000E+01 0.0000E+00 0.9000E+01
       -3  1    3    3    0  502 -.11572594E+02 0.11984664E+03 -.10166040E+03 0.15758245E+03 0.50000000E+00 0.0000E+00 0.9000E+01
       21  1    1    2  503  501 -.24661727E+03 0.53294221E+02 -.15625163E+04 0.15827565E+04 0.75000000E+00 0.0000E+00 0.9000E+01
#aMCatNLO 2  0  0  2  1 0.99564778D+00 0.00000000D+00  -5  6  0 0.00000000D+00 0.00000000D+00 0.00000000D+00 0.00000000D+00 0.00000000D+00
  <mgrwgt>
 0.1218773566D-01    1    2    0
 0.403054644098345D+03 0.000000000000000D+00 0.000000000000000D+00 0.403054644098345D+03
 0.403054644098345D+03 0.000000000000000D+00 0.000000000000000D+00 -.403054644098345D+03
 0.408712722865853D+03 0.106603473508732D+03 -.373873649620300D+03 -.165916662180030D+02
 0.252389716185898D+03 -.543235866252539D+02 0.245195740401450D+03 -.250712118085932D+02
 0.145006849144938D+03 -.522798868834784D+02 0.128677909218850D+03 0.416628780265962D+02
 0.000000000000000D+00 -.000000000000000D+00 0.000000000000000D+00 -.000000000000000D+00
 0.452929021690509D+03 0.000000000000000D+00 0.000000000000000D+00 0.452929021690509D+03
 0.942564845694068D+03 0.000000000000000D+00 0.000000000000000D+00 -.942564845694068D+03
 0.485596908238283D+03 0.240208124819067D+03 -.402745739485345D+03 -.165916662180030D+02
 0.231633774187110D+03 0.179867043613883D+02 0.229569419019236D+03 -.250712118085932D+02
 0.127442351751263D+03 -.115775627448294D+02 0.119882098977800D+03 0.416628780265962D+02
 0.550820833207921D+03 -.246617266435626D+03 0.532942214883088D+02 -.489635824003558D+03
0.219857819135D-02 0.000000000000D+00 0.000000000000D+00 0.359798411577D-03 0.480762732424D-07  6 -1 2 25 4 -3 21 2 0.23050635D-01 0.43836088D+00 0.29611893D+06 0.29611893D+06 0.29611893D+06 0.10849705D+01  1  2  1  2  6  2        2 0.121877356640D-01 0.100000000000D+01
  </mgrwgt>
  </event>
  <event>
  6     66 0.18082911E-05 0.18610193E+02 0.75467711E-02 0.93255773E-01
       -1 -1    0    0    0  501 0.00000000E+00 0.00000000E+00 0.11234373E+03 0.11234418E+03 0.32000000E+00 0.0000E+00 0.9000E+01
        2 -1    0    0  501    0 0.00000000E+00 0.00000000E+00 -.23079922E+04 0.23079922E+04 0.32000000E+00 0.0000E+00 0.9000E+01
       24  2    1    2    0    0 0.33176749E+03 -.36949079E+03 -.99361054E+03 0.11137709E+04 0.81429208E+02 0.0000E+00 0.0000E+00
       25  1    1    2    0    0 -.33176749E+03 0.36949079E+03 -.12020379E+04 0.13065655E+04 0.12500000E+03 0.0000E+00 0.9000E+01
        4  1    3    3  502    0 0.13570281E+01 -.24207824E+02 -.65180691E+02 0.69561378E+02 0.15500000E+01 0.0000E+00 0.9000E+01
       -3  1    3    3    0  502 0.33041046E+03 -.34528296E+03 -.92842984E+03 0.10442096E+04 0.50000000E+00 0.0000E+00 0.9000E+01
#aMCatNLO 1  0  0  2  1 0.56975339D+02 0.00000000D+00  -5  6  0 0.00000000D+00 0.00000000D+00 0.00000000D+00 0.00000000D+00 0.00000000D+00
  <mgrwgt>
 0.5871665081D-03    7    2    0
 0.509204309716116D+03 0.000000000000000D+00 0.000000000000000D+00 0.509204309716116D+03
 0.509204309716116D+03 0.000000000000000D+00 0.000000000000000D+00 -.509204309716116D+03
 0.513620162146414D+03 -.331767485668745D+03 0.369490788249651D+03 -.398442444400561D+02
 0.246186121218610D+02 0.123730990236857D+01 -.240835765145532D+02 -.495242054755122D+01
 0.480169845163957D+03 0.330530175766377D+03 -.345407211735098D+03 0.447966649876073D+02
 0.000000000000000D+00 0.000000000000000D+00 -.000000000000000D+00 -.000000000000000D+00
 0.549754251402568D+03 0.000000000000000D+00 0.000000000000000D+00 0.549754251402568D+03
 0.593184982303729D+03 0.000000000000000D+00 0.000000000000000D+00 -.593184982303729D+03
 0.569571192778704D+03 -.377953102798774D+03 0.405401322041673D+03 -.398442444400561D+02
 0.230553061175713D+02 -.795432811911071D+00 -.225030655142106D+02 -.495242054755122D+01
 0.431741162409380D+03 0.291647689804003D+03 -.315175054781591D+03 0.447966649876073D+02
 0.118571572400642D+03 0.871008458066827D+02 -.677232017458718D+02 -.434307309011615D+02
0.116587575466D-04 0.000000000000D+00 0.000000000000D+00 0.353582774890D-04 0.000000000000D+00  6 -1 2 25 4 -3 21 0 0.17283687D-01 0.35507576D+00 0.25718254D+06 0.25718254D+06 0.25718254D+06 0.10895349D+01  1  2  2  2  6  2        2 0.183207800083D-03 0.100000000000D+01
0.407651705704D-05 0.000000000000D+00 -.447726988002D-07 0.353582774890D-04 0.000000000000D+00  6 -1 2 25 4 -3 21 2 0.17283687D-01 0.35507576D+00 0.25718254D+06 0.25718254D+06 0.25718254D+06 0.10895349D+01  1  2  3  2  6  2        2 0.760436977209D-04 0.100000000000D+01
-.379795263706D-05 0.000000000000D+00 0.000000000000D+00 0.353582774890D-04 0.000000000000D+00  6 -1 2 25 4 -3 21 2 0.17283687D-01 0.35507576D+00 0.25718254D+06 0.25718254D+06 0.25718254D+06 0.10895349D+01  1  2 15  2  6  2        2 -.708473332136D-04 0.100000000000D+01
-.381423742694D-06 0.000000000000D+00 0.000000000000D+00 0.353582774890D-04 0.000000000000D+00  6 -1 2 25 4 -3 21 2 0.17283687D-01 0.35507576D+00 0.25718254D+06 0.25718254D+06 0.25718254D+06 0.10895349D+01  1  2  4  2  6  2        2 -.711511110762D-05 0.100000000000D+01
-.448267406189D-04 0.000000000000D+00 -.106545378248D-04 0.353582774890D-04 0.000000000000D+00  6 -1 2 25 4 -3 21 2 0.17283687D-01 0.42515483D+00 0.25718254D+06 0.25718254D+06 0.25718254D+06 0.10895349D+01  1  2  5  2  6  2        2 -.454327521018D-03 0.100000000000D+01
0.461654680705D-04 0.000000000000D+00 0.104840058830D-04 0.353582774890D-04 0.000000000000D+00  6 -1 2 25 4 -3 21 2 0.17283687D-01 0.35507576D+00 0.25718254D+06 0.25718254D+06 0.25718254D+06 0.10895349D+01  1  2  6  2  6  2        2 0.861174588496D-03 0.100000000000D+01
-.108056599316D-05 0.000000000000D+00 -.281150783091D-06 0.353582774890D-04 0.000000000000D+00  6 -1 21 25 4 -3 -2 2 0.17283687D-01 0.42515483D+00 0.25718254D+06 0.25718254D+06 0.25718254D+06 0.10895349D+01  1  2  5  6  6  2        2 -.969612854872D-06 0.100000000000D+01
  </mgrwgt>
  </event>
  <event>
  7     66 0.18082911E-05 0.15248885E+02 0.75467711E-02 0.93103140E-01
       -1 -1    0    0    0  501 0.00000000E+00 0.00000000E+00 0.25506309E+03 0.25506329E+03 0.32000000E+00 0.0000E+00 0.9000E+01
        2 -1    0    0  503    0 0.00000000E+00 0.00000000E+00 -.16613120E+04 0.16613120E+04 0.32000000E+00 0.0000E+00 0.9000E+01
       24  2    1    2    0    0 -.28724417E+03 0.47290441E+03 -.44833153E+03 0.71685127E+03 0.82017033E+02 0.0000E+00 0.0000E+00
       25  1    1    2    0    0 0.26758576E+03 -.48354630E+03 -.54556506E+03 0.78656557E+03 0.12500000E+03 0.0000E+00 0.9000E+01
        4  1    3    3  502    0 0.25481542E+01 0.15830538E+02 -.25049113E+02 0.29781867E+02 0.15500000E+01 0.0000E+00 0.9000E+01
       -3  1    3    3    0  502 -.28979233E+03 0.45707387E+03 -.42328242E+03 0.68706940E+03 0.50000000E+00 0.0000E+00 0.9000E+01
       21  1    1    2  503  501 0.19658410E+02 0.10641892E+02 -.41235234E+03 0.41295849E+03 0.75000000E+00 0.0000E+00 0.9000E+01
#aMCatNLO 2  0  0  2  5 0.22354037D+02 0.00000000D+00  -5  6  0 0.00000000D+00 0.00000000D+00 0.00000000D+00 0.00000000D+00 0.00000000D+00
  <mgrwgt>
 0.2067653207D-03    1    2    0
 0.563899829103294D+03 0.000000000000000D+00 0.000000000000000D+00 0.563899829103294D+03
 0.563899829103294D+03 0.000000000000000D+00 0.000000000000000D+00 -.563899829103294D+03
 0.567844770261173D+03 0.277480901345208D+03 -.478189659425162D+03 -.340834581646700D+02
 0.176265117372441D+02 0.295728620246958D+01 0.158331863655251D+02 -.715951002893630D+01
 0.542328376208171D+03 -.280438187547678D+03 0.462356473059637D+03 0.412429681936063D+02
 0.000000000000000D+00 0.000000000000000D+00 0.000000000000000D+00 -.000000000000000D+00
 0.564680815578523D+03 0.000000000000000D+00 0.000000000000000D+00 0.564680815578523D+03
 0.750403512099302D+03 0.000000000000000D+00 0.000000000000000D+00 -.750403512099302D+03
 0.567631786091385D+03 0.267585760824812D+03 -.483546298780829D+03 -.340834581646700D+02
 0.174290245097386D+02 0.265179380349305D+01 0.156678109871925D+02 -.715951002893630D+01
 0.542960364737005D+03 -.289895965021617D+03 0.457236595991734D+03 0.412429681936063D+02
 0.187063152339697D+03 0.196584103933117D+02 0.106418918019028D+02 -.185722696520779D+03
0.196530584368D-04 0.000000000000D+00 0.000000000000D+00 0.152728447634D-04 0.199036358582D-06  6 -1 2 25 4 -3 21 2 0.39240441D-01 0.25558614D+00 0.32846881D+06 0.32846881D+06 0.32846881D+06 0.10816509D+01  1  2  1  2  6  2        2 0.206765320693D-03 0.100000000000D+01
  </mgrwgt>
  </event>
  <event>
  7     66 0.18082911E-05 0.43501079E+02 0.75467711E-02 0.91851453E-01
       -1 -1    0    0    0  503 0.00000000E+00 0.00000000E+00 0.61168689E+03 0.61168697E+03 0.32000000E+00 0.0000E+00 0.9000E+01
        2 -1    0    0  501    0 0.00000000E+00 0.00000000E+00 -.11163654E+04 0.11163655E+04 0.32000000E+00 0.0000E+00 0.9000E+01
       24  2    1    2    0    0 -.60841398E+03 0.14498260E+03 0.19233360E+03 0.65936065E+03 0.81097052E+02 0.0000E+00 0.0000E+00
       25  1    1    2    0    0 0.58592096E+03 -.99498191E+02 -.76945053E+03 0.98024608E+03 0.12500000E+03 0.0000E+00 0.9000E+01
        4  1    3    3  502    0 -.26166046E+03 0.29801066E+02 0.55123329E+02 0.26906372E+03 0.15500000E+01 0.0000E+00 0.9000E+01
       -3  1    3    3    0  502 -.34675352E+03 0.11518154E+03 0.13721027E+03 0.39029694E+03 0.50000000E+00 0.0000E+00 0.9000E+01
       21  1    1    2  501  503 0.22493015E+02 -.45484413E+02 0.72438365E+02 0.88445728E+02 0.75000000E+00 0.0000E+00 0.9000E+01
#aMCatNLO 2  0  0  1  1 0.71209384D+02 0.00000000D+00  -5  6  0 0.00000000D+00 0.00000000D+00 0.00000000D+00 0.00000000D+00 0.00000000D+00
  <mgrwgt>
 0.1898274072D-02    1    2    0
 0.766921041619720D+03 0.000000000000000D+00 0.000000000000000D+00 0.766921041619720D+03
 0.766921041619720D+03 0.000000000000000D+00 0.000000000000000D+00 -.766921041619720D+03
 0.769870585239176D+03 0.597119988144802D+03 -.122144377608392D+03 -.453435980920263D+03
 0.303479706469567D+03 -.257061183054556D+03 0.206957710281139D+02 0.159972389702093D+03
 0.460491791530697D+03 -.340058805090246D+03 0.101448606580279D+03 0.293463591218170D+03
 0.000000000000000D+00 0.000000000000000D+00 -.000000000000000D+00 0.000000000000000D+00
 0.883531347811088D+03 0.000000000000000D+00 0.000000000000000D+00 0.883531347811088D+03
 0.772880544242683D+03 0.000000000000000D+00 0.000000000000000D+00 -.772880544242683D+03
 0.757913224326343D+03 0.585920964603898D+03 -.994981912060264D+02 -.453435980920263D+03
 0.308029107576531D+03 -.261543690043500D+03 0.297601049364016D+02 0.159972389702093D+03
 0.468738841455329D+03 -.346870289587322D+03 0.115222499191023D+03 0.293463591218170D+03
 0.121730718695568D+03 0.224930150269248D+02 -.454844129213987D+02 0.110650803568405D+03
0.489677513831D-03 0.000000000000D+00 0.000000000000D+00 0.148539872077D-03 0.359692450774D-06  6 -1 2 25 4 -3 21 2 0.94105545D-01 0.17174829D+00 0.41395886D+06 0.41395886D+06 0.41395886D+06 0.10743553D+01  1  2  1  1  6  1       -1 0.189827407171D-02 0.100000000000D+01
  </mgrwgt>
  </event>
  <event>
  6     66 0.18082911E-05 0.42007078E+02 0.75467711E-02 0.94305169E-01
       -1 -1    0    0    0  501 0.00000000E+00 0.00000000E+00 0.25149178E+03 0.25149199E+03 0.32000000E+00 0.0000E+00 0.9000E+01
        2 -1    0    0  501    0 -.00000000E+00 -.00000000E+00 -.11525392E+04 0.11525392E+04 0.32000000E+00 0.0000E+00 0.9000E+01
       25  1    1    2    0    0 -.21238253E+03 0.43052104E+03 -.25100087E+03 0.55595066E+03 0.12500000E+03 0.0000E+00 0.9000E+01
        4  1    1    2  503    0 0.15618832E+03 -.22114595E+03 -.24640568E+03 0.36608535E+03 0.15500000E+01 0.0000E+00 0.9000E+01
       -3  1    1    2    0  502 0.10366881E+03 -.17497996E+03 -.29131039E+03 0.35528467E+03 0.50000000E+00 0.0000E+00 0.9000E+01
       21  1    1    2  502  503 -.47474595E+02 -.34395136E+02 -.11233046E+03 0.12671052E+03 0.75000000E+00 0.0000E+00 0.9000E+01
#aMCatNLO 2  0  0  4  5 0.23986001D+01 0.00000000D+00  -5  6  0 0.00000000D+00 0.00000000D+00 0.00000000D+00 0.00000000D+00 0.00000000D+00
  <mgrwgt>
 0.1382495208D-01    1    2    0
 0.538381189521784D+03 0.000000000000000D+00 0.000000000000000D+00 0.538381189521784D+03
 0.538381189521784D+03 -.000000000000000D+00 -.000000000000000D+00 -.538381189521784D+03
 0.543828046231947D+03 -.223871128444409D+03 0.457525991441493D+03 0.143790225234412D+03
 0.324923425631046D+03 0.124711915049613D+03 -.293239667793979D+03 -.635032912576071D+02
 0.208010907180575D+03 0.991592133947953D+02 -.164286323647513D+03 -.802869339768053D+02
 0.000000000000000D+00 0.000000000000000D+00 0.000000000000000D+00 -.000000000000000D+00
 0.538381189521784D+03 0.000000000000000D+00 0.000000000000000D+00 0.538381189521784D+03
 0.538381189521784D+03 -.000000000000000D+00 -.000000000000000D+00 -.538381189521784D+03
 0.514791674962539D+03 -.212348033196111D+03 0.430431317919520D+03 0.137922666601777D+03
 0.270641575998848D+03 0.156141617466748D+03 -.220571668112576D+03 -.146559605636669D+02
 0.219813300121543D+03 0.103816087805473D+03 -.175236202050088D+03 -.826582138335355D+02
 0.715158279606376D+02 -.476096720761102D+02 -.346234477568560D+02 -.406084922045750D+02
0.652039492356D-03 0.000000000000D+00 0.000000000000D+00 0.818266868140D-06 0.570209704309D-07  6 -1 2 25 4 -3 21 2 0.38691063D-01 0.17731374D+00 0.26458891D+06 0.26458891D+06 0.26458891D+06 0.10886109D+01  1  2  1  3  6  4        4 0.138249520753D-01 0.100000000000D+01
  </mgrwgt>
  </event>
  <event>
  7     66 0.18082911E-05 0.73444381E+02 0.75467711E-02 0.88237554E-01
       -1 -1    0    0    0  503 0.00000000E+00 0.00000000E+00 0.51220697E+03 0.51220707E+03 0.32000000E+00 0.0000E+00 0.9000E+01
        2 -1    0    0  501    0 0.00000000E+00 0.00000000E+00 -.19485219E+04 0.19485220E+04 0.32000000E+00 0.0000E+00 0.9000E+01
       24  2    1    2    0    0 0.77445250E+03 0.46021225E+03 -.11447957E+04 0.14591388E+04 0.83408621E+02 0.0000E+00 0.0000E+00
       25  1    1    2    0    0 -.76712869E+03 -.47423261E+03 -.32320945E+03 0.96616372E+03 0.12500000E+03 0.0000E+00 0.9000E+01
        4  1    3    3  502    0 0.41869865E+03 0.20080181E+03 -.59696428E+03 0.75630594E+03 0.15500000E+01 0.0000E+00 0.9000E+01
       -3  1    3    3    0  502 0.35575386E+03 0.25941045E+03 -.54783138E+03 0.70283288E+03 0.50000000E+00 0.0000E+00 0.9000E+01
       21  1    1    2  501  503 -.73238170E+01 0.14020351E+02 0.31690148E+02 0.35426495E+02 0.75000000E+00 0.0000E+00 0.9000E+01
#aMCatNLO 2  0  0  1  1 0.71209384D+02 0.00000000D+00  -5  6  0 0.00000000D+00 0.00000000D+00 0.00000000D+00 0.00000000D+00 0.00000000D+00
  <mgrwgt>
 0.1374900639D-02    1    2    0
 0.965246498158552D+03 0.000000000000000D+00 0.000000000000000D+00 0.965246498158552D+03
 0.965246498158552D+03 0.000000000000000D+00 0.000000000000000D+00 -.965246498158552D+03
 0.967491521086835D+03 -.770800000873897D+03 -.467204422456840D+03 0.328636926812082D+03
 0.495933410503217D+03 0.416709164198543D+03 0.204321513510726D+03 -.174803144259450D+03
 0.467068064727052D+03 0.354090836675354D+03 0.262882908946114D+03 -.153833782552632D+03
 0.000000000000000D+00 -.000000000000000D+00 0.000000000000000D+00 0.000000000000000D+00
 0.103295293803776D+04 0.000000000000000D+00 0.000000000000000D+00 0.103295293803776D+04
 0.966203214816403D+03 0.000000000000000D+00 0.000000000000000D+00 -.966203214816403D+03
 0.967992879157374D+03 -.767128685913890D+03 -.474232605039890D+03 0.328636926812082D+03
 0.496047050117048D+03 0.418590797914966D+03 0.200719407601126D+03 -.174803144259450D+03
 0.466517870263565D+03 0.355861704996044D+03 0.259492846795650D+03 -.153833782552632D+03
 0.685983533161767D+02 -.732381699711959D+01 0.140203506431134D+02 0.667497232213577D+02
0.773812040008D-03 0.000000000000D+00 0.000000000000D+00 0.266161903426D-04 0.630613572264D-06  6 -1 2 25 4 -3 21 2 0.78800916D-01 0.29977198D+00 0.83811137D+06 0.83811137D+06 0.83811137D+06 0.10530080D+01  1  2  1  1  6  1       -1 0.137490063915D-02 0.100000000000D+01
  </mgrwgt>
  </event>
  <event>
  7     66 0.18082911E-05 0.78406815E+02 0.75467711E-02 0.94223603E-01
       -1 -1    0    0    0  501 0.00000000E+00 0.00000000E+00 0.58731302E+03 0.58731311E+03 0.32000000E+00 0.0000E+00 0.9000E+01
        2 -1    0    0  503    0 0.00000000E+00 0.00000000E+00 -.58620869E+03 0.58620878E+03 0.32000000E+00 0.0000E+00 0.9000E+01
       24  2    1    2    0    0 -.20504771E+03 -.40705020E+03 0.15482823E+03 0.48771654E+03 0.78493431E+02 0.0000E+00 0.0000E+00
       25  1    1    2    0    0 0.11127683E+03 0.44391988E+03 0.30954849E+02 0.47542675E+03 0.12500000E+03 0.0000E+00 0.9000E+01
        4  1    3    3  502    0 -.18293696E+03 -.29700612E+03 0.10050941E+03 0.36301943E+03 0.15500000E+01 0.0000E+00 0.9000E+01
       -3  1    3    3    0  502 -.22110747E+02 -.11004408E+03 0.54318813E+02 0.12469711E+03 0.50000000E+00 0.0000E+00 0.9000E+01
       21  1    1    2  503  501 0.93770878E+02 -.36869676E+02 -.18467875E+03 0.21037859E+03 0.75000000E+00 0.0000E+00 0.9000E+01
#aMCatNLO 2  0  0  2  1 0.10432093D+03 0.00000000D+00  -5  6  0 0.00000000D+00 0.00000000D+00 0.00000000D+00 0.00000000D+00 0.00000000D+00
  <mgrwgt>
 0.5057658201D-02    1    2    0
 0.469834357433379D+03 0.000000000000000D+00 0.000000000000000D+00 0.469834357433379D+03
 0.469834357433379D+03 0.000000000000000D+00 0.000000000000000D+00 -.469834357433379D+03
 0.474870058454918D+03 0.158707014744716D+03 0.425270849533252D+03 -.619141375217684D+02
 0.345582050085694D+03 -.148319555782861D+03 -.310585958579998D+03 0.310584134615678D+02
 0.119216606326145D+03 -.103874589618550D+02 -.114684890953254D+03 0.308557240602006D+02
 0.000000000000000D+00 0.000000000000000D+00 -.000000000000000D+00 -.000000000000000D+00
 0.483096904545596D+03 0.000000000000000D+00 0.000000000000000D+00 0.483096904545596D+03
 0.712667189549199D+03 0.000000000000000D+00 0.000000000000000D+00 -.712667189549199D+03
 0.478440957031784D+03 0.111276829971134D+03 0.443919875711823D+03 -.619141375217684D+02
 0.350177692178157D+03 -.182935764551567D+03 -.296975246612246D+03 0.310584134615678D+02
 0.116436716572718D+03 -.221119439054130D+02 -.110074952626290D+03 0.308557240602006D+02
 0.250708728312135D+03 0.937708784858463D+02 -.368696764732867D+02 -.229570285003604D+03
0.491214805860D-03 0.000000000000D+00 0.000000000000D+00 0.564379076156D-04 0.377687924520D-07  6 -1 2 25 4 -3 21 2 0.90355760D-01 0.90185863D-01 0.26845268D+06 0.26845268D+06 0.26845268D+06 0.10881400D+01  1  2  1  2  6  2        2 0.505765820075D-02 0.100000000000D+01
  </mgrwgt>
  </event>
  <event>
  7     66 0.18082911E-05 0.44747192E+02 0.75467711E-02 0.94601621E-01
       -1 -1    0    0    0  501 0.00000000E+00 0.00000000E+00 0.99118007E+03 0.99118013E+03 0.32000000E+00 0.0000E+00 0.9000E+01
        2 -1    0    0  503    0 0.00000000E+00 0.00000000E+00 -.33084929E+03 0.33084944E+03 0.32000000E+00 0.0000E+00 0.9000E+01
       24  2    1    2    0    0 0.24068315E+03 0.39692944E+03 0.37638311E+03 0.60318030E+03 0.81736627E+02 0.0000E+00 0.0000E+00
       25  1    1    2    0    0 -.27973617E+03 -.38954103E+03 0.37369018E+03 0.62069629E+03 0.12500000E+03 0.0000E+00 0.9000E+01
        4  1    3    3  502    0 0.72119186E+02 0.16487613E+03 0.10518206E+03 0.20844899E+03 0.15500000E+01 0.0000E+00 0.9000E+01
       -3  1    3    3    0  502 0.16856396E+03 0.23205331E+03 0.27120104E+03 0.39473131E+03 0.50000000E+00 0.0000E+00 0.9000E+01
       21  1    1    2  503  501 0.39053026E+02 -.73884100E+01 -.89742497E+02 0.98152971E+02 0.75000000E+00 0.0000E+00 0.9000E+01
#aMCatNLO 2  0  0  2  1 0.10432093D+03 0.00000000D+00  -5  6  0 0.00000000D+00 0.00000000D+00 0.00000000D+00 0.00000000D+00 0.00000000D+00
  <mgrwgt>
 0.3016314971D-02    1    2    0
 0.483136694322718D+03 0.000000000000000D+00 0.000000000000000D+00 0.483136694322718D+03
 0.483136694322718D+03 0.000000000000000D+00 0.000000000000000D+00 -.483136694322718D+03
 0.487764848386696D+03 -.259871200599925D+03 -.393299266577930D+03 -.849666579977839D+01
 0.183927426586491D+03 0.794552487016915D+02 0.163399950846106D+03 -.285765247707184D+02
 0.294581113672250D+03 0.180415951898233D+03 0.229899315731824D+03 0.370731905704968D+02
 0.000000000000000D+00 0.000000000000000D+00 -.000000000000000D+00 -.000000000000000D+00
 0.485604772755828D+03 0.000000000000000D+00 0.000000000000000D+00 0.485604772755828D+03
 0.675303042415902D+03 0.000000000000000D+00 0.000000000000000D+00 -.675303042415902D+03
 0.495673010852332D+03 -.279736175064998D+03 -.389541028285478D+03 -.849666579977839D+01
 0.182121087668588D+03 0.720612437624451D+02 0.164798816600810D+03 -.285765247707184D+02
 0.289296377602265D+03 0.168621905791574D+03 0.232130621680841D+03 0.370731905704968D+02
 0.193817339048546D+03 0.390530255109791D+02 -.738840999617290D+01 -.189698269660074D+03
0.555060653827D-03 0.000000000000D+00 0.000000000000D+00 0.132138920997D-03 0.558855800622D-06  6 -1 2 25 4 -3 21 2 0.15248903D+00 0.50899830D-01 0.25106223D+06 0.25106223D+06 0.25106223D+06 0.10903206D+01  1  2  1  2  6  2        2 0.301631497084D-02 0.100000000000D+01
  </mgrwgt>
  </event>
  <event>
  7     66 0.18082911E-05 0.46918412E+02 0.75467711E-02 0.94616861E-01
       -1 -1    0    0    0  503 0.00000000E+00 0.00000000E+00 0.25244332E+03 0.25244353E+03 0.32000000E+00 0.0000E+00 0.9000E+01
        2 -1    0    0  501    0 0.00000000E+00 0.00000000E+00 -.11842452E+04 0.11842452E+04 0.32000000E+00 0.0000E+00 0.9000E+01
       24  2    1    2    0    0 -.48815650E+03 -.21517608E+02 -.43513874E+03 0.65931845E+03 0.81211496E+02 0.0000E+00 0.0000E+00
       25  1    1    2    0    0 0.47056567E+03 0.42920253E+01 -.54026148E+03 0.72729495E+03 0.12500000E+03 0.0000E+00 0.9000E+01
        4  1    3    3  502    0 -.17083758E+03 0.42230290E+01 -.20272892E+03 0.26515039E+03 0.15500000E+01 0.0000E+00 0.9000E+01
       -3  1    3    3    0  502 -.31731892E+03 -.25740637E+02 -.23240983E+03 0.39416805E+03 0.50000000E+00 0.0000E+00 0.9000E+01
       21  1    1    2  501  503 0.17590834E+02 0.17225583E+02 0.43598387E+02 0.50075343E+02 0.75000000E+00 0.0000E+00 0.9000E+01
#aMCatNLO 2  0  0  1  2 0.39167952D+01 0.00000000D+00  -5  6  0 0.00000000D+00 0.00000000D+00 0.00000000D+00 0.00000000D+00 0.00000000D+00
  <mgrwgt>
 0.1401071344D-02    1    2    0
 0.492616721909388D+03 0.000000000000000D+00 0.000000000000000D+00 0.492616721909388D+03
 0.492616721909388D+03 0.000000000000000D+00 0.000000000000000D+00 -.492616721909388D+03
 0.497199236385679D+03 0.479364495218135D+03 0.129081551914190D+02 -.403130365554321D+02
 0.169379939778487D+03 -.167678635534319D+03 0.721903190436373D+01 -.228325373770968D+02
 0.318654267654610D+03 -.311685859683815D+03 -.201271870957827D+02 0.631455739325289D+02
 0.000000000000000D+00 0.000000000000000D+00 0.000000000000000D+00 0.000000000000000D+00
 0.605021364779568D+03 0.000000000000000D+00 0.000000000000000D+00 0.605021364779568D+03
 0.494120516534863D+03 0.000000000000000D+00 0.000000000000000D+00 -.494120516534863D+03
 0.488569965252451D+03 0.470565668689609D+03 0.429202529846759D+01 -.403130365554321D+02
 0.172300417013921D+03 -.170728422627105D+03 0.423256982875706D+01 -.228325373770968D+02
 0.324670635125389D+03 -.317428080288431D+03 -.257501776665081D+02 0.631455739325289D+02
 0.113600863922669D+03 0.175908342259263D+02 0.172255825392835D+02 0.110900848244705D+03
0.690682868260D-04 0.000000000000D+00 0.000000000000D+00 0.221156912035D-03 0.236165562795D-05  6 -1 2 25 4 -3 21 2 0.38837356D-01 0.18219113D+00 0.25038812D+06 0.25038812D+06 0.25038812D+06 0.10904084D+01  1  2  1  1  6  1       -1 0.140107134390D-02 0.100000000000D+01
  </mgrwgt>
  </event>
  <event>
  7     66 0.18082911E-05 0.45840566E+02 0.75467711E-02 0.91849851E-01
       -1 -1    0    0    0  501 0.00000000E+00 0.00000000E+00 0.98746951E+03 0.98746956E+03 0.32000000E+00 0.0000E+00 0.9000E+01
        2 -1    0    0  503    0 0.00000000E+00 0.00000000E+00 -.42991909E+03 0.42991921E+03 0.32000000E+00 0.0000E+00 0.9000E+01
       24  2    1    2    0    0 -.30390434E+03 0.53870755E+03 0.35628730E+03 0.71810099E+03 0.78515701E+02 0.0000E+00 0.0000E+00
       25  1    1    2    0    0 0.32498970E+03 -.54452779E+03 0.20263336E+03 0.67735818E+03 0.12500000E+03 0.0000E+00 0.9000E+01
        4  1    3    3  502    0 -.20274693E+03 0.37612609E+03 0.20425805E+03 0.47360417E+03 0.15500000E+01 0.0000E+00 0.9000E+01
       -3  1    3    3    0  502 -.10115741E+03 0.16258146E+03 0.15202925E+03 0.24449682E+03 0.50000000E+00 0.0000E+00 0.9000E+01
       21  1    1    2  503  501 -.21085362E+02 0.58202394E+01 -.13702502E+01 0.21929609E+02 0.75000000E+00 0.0000E+00 0.9000E+01
#aMCatNLO 2  0  0  2  1 0.10432093D+03 0.00000000D+00  -5  6  0 0.00000000D+00 0.00000000D+00 0.00000000D+00 0.00000000D+00 0.00000000D+00
  <mgrwgt>
 0.3848432070D-03    1    2    0
 0.639225214257907D+03 0.000000000000000D+00 0.000000000000000D+00 0.639225214257907D+03
 0.639225214257907D+03 0.000000000000000D+00 0.000000000000000D+00 -.639225214257907D+03
 0.642925117100858D+03 0.314322918036471D+03 -.541583414417540D+03 -.749414079399981D+02
 0.432646198382589D+03 -.209808584609283D+03 0.378035824020091D+03 0.158747143787484D+02
 0.202879113032366D+03 -.104514333427188D+03 0.163547590397449D+03 0.590666935612497D+02
 0.000000000000000D+00 -.000000000000000D+00 0.000000000000000D+00 -.000000000000000D+00
 0.646038463686053D+03 0.000000000000000D+00 0.000000000000000D+00 0.646038463686053D+03
 0.657119723541676D+03 0.000000000000000D+00 0.000000000000000D+00 -.657119723541676D+03
 0.650668912176018D+03 0.324989699505043D+03 -.544527789799488D+03 -.749414079399981D+02
 0.427528131589664D+03 -.202715716680835D+03 0.376077963931041D+03 0.158747143787484D+02
 0.200440499033477D+03 -.101188620671463D+03 0.162629586518374D+03 0.590666935612497D+02
 0.245206444285704D+02 -.210853621527449D+02 0.582023935007246D+01 -.110812598556229D+02
0.985707023130D-04 0.000000000000D+00 0.000000000000D+00 0.712996738387D-04 0.917692968597D-06  6 -1 2 25 4 -3 21 2 0.15191706D+00 0.66140828D-01 0.41408315D+06 0.41408315D+06 0.41408315D+06 0.10743460D+01  1  2  1  2  6  2        2 0.384843206987D-03 0.100000000000D+01
  </mgrwgt>
  </event>
  <event>
  7     66 0.18082911E-05 0.42182665E+02 0.75467711E-02 0.92370837E-01
       -1 -1    0    0    0  503 0.00000000E+00 0.00000000E+00 0.61711861E+03 0.61711869E+03 0.32000000E+00 0.0000E+00 0.9000E+01
        2 -1    0    0  501    0 0.00000000E+00 0.00000000E+00 -.66156917E+03 0.66156925E+03 0.32000000E+00 0.0000E+00 0.9000E+01
       24  2    1    2    0    0 0.19618401E+03 0.57132177E+03 -.19868424E+03 0.64087406E+03 0.79670575E+02 0.0000E+00 0.0000E+00
       25  1    1    2    0    0 -.19332534E+03 -.54252580E+03 0.14098660E+03 0.60597950E+03 0.12500000E+03 0.0000E+00 0.9000E+01
        4  1    3    3  502    0 0.16054163E+03 0.37078682E+03 -.11024160E+03 0.41882228E+03 0.15500000E+01 0.0000E+00 0.9000E+01
       -3  1    3    3    0  502 0.35642372E+02 0.20053495E+03 -.88442642E+02 0.22205179E+03 0.50000000E+00 0.0000E+00 0.9000E+01
       21  1    1    2  501  503 -.28586668E+01 -.28795975E+02 0.13247082E+02 0.31834381E+02 0.75000000E+00 0.0000E+00 0.9000E+01
#aMCatNLO 2  0  0  1  2 0.62713534D+02 0.00000000D+00  -5  6  0 0.00000000D+00 0.00000000D+00 0.00000000D+00 0.00000000D+00 0.00000000D+00
  <mgrwgt>
 0.1163980463D-02    1    2    0
 0.622590836285544D+03 0.000000000000000D+00 0.000000000000000D+00 0.622590836285544D+03
 0.622590836285544D+03 0.000000000000000D+00 0.000000000000000D+00 -.622590836285544D+03
 0.626316236266925D+03 -.194747930889975D+03 -.556855885645825D+03 0.169209319622896D+03
 0.405268148745605D+03 0.159594047960820D+03 0.361252479711241D+03 -.909321623280164D+02
 0.213597287558559D+03 0.351538829291546D+02 0.195603405934585D+03 -.782771572948794D+02
 0.000000000000000D+00 -.000000000000000D+00 -.000000000000000D+00 0.000000000000000D+00
 0.646363620659534D+03 0.000000000000000D+00 0.000000000000000D+00 0.646363620659534D+03
 0.631627730070685D+03 0.000000000000000D+00 0.000000000000000D+00 -.631627730070685D+03
 0.613160438600192D+03 -.193325338251292D+03 -.542525799577458D+03 0.169209319622896D+03
 0.414098262435859D+03 0.160534464709733D+03 0.370725502828048D+03 -.909321623280164D+02
 0.218259174322704D+03 0.356495403595018D+02 0.200596271386129D+03 -.782771572948794D+02
 0.324734753714634D+02 -.285866681794234D+01 -.287959746367180D+02 0.147358905888491D+02
0.149946791908D-03 0.000000000000D+00 0.000000000000D+00 0.132284722044D-03 0.977918039680D-06  6 -1 2 25 4 -3 21 2 0.94940690D-01 0.10177919D+00 0.37578025D+06 0.37578025D+06 0.37578025D+06 0.10773886D+01  1  2  1  1  6  1       -1 0.116398046281D-02 0.100000000000D+01
  </mgrwgt>
  </event>
  <event>
  7     66 0.18082911E-05 0.33626288E+02 0.75467711E-02 0.90676604E-01
       21 -1    0    0  503  501 0.00000000E+00 0.00000000E+00 0.23212997E+03 0.23213119E+03 0.75000000E+00 0.0000E+00 0.9000E+01
        2 -1    0    0  501    0 0.00000000E+00 0.00000000E+00 -.33468349E+04 0.33468349E+04 0.32000000E+00 0.0000E+00 0.9000E+01
       24  2    1    2    0    0 -.51814549E+03 -.39572701E+03 -.18718231E+04 0.19837192E+04 0.79659425E+02 0.0000E+00 0.0000E+00
       25  1    1    2    0    0 0.56966854E+03 0.42863340E+03 -.13147987E+04 0.15008562E+04 0.12500000E+03 0.0000E+00 0.9000E+01
        4  1    3    3  502    0 -.18053831E+03 -.11018153E+03 -.51804388E+03 0.55955868E+03 0.15500000E+01 0.0000E+00 0.9000E+01
        1  1    1    2  503    0 -.51523058E+02 -.32906393E+02 0.71916861E+02 0.94390643E+02 0.32000000E+00 0.0000E+00 0.9000E+01
       -3  1    3    3    0  502 -.33760717E+03 -.28554548E+03 -.13537792E+04 0.14241605E+04 0.50000000E+00 0.0000E+00 0.9000E+01
#aMCatNLO 2  0  0  1  2 0.62713534D+02 0.00000000D+00  -5  6  0 0.00000000D+00 0.00000000D+00 0.00000000D+00 0.00000000D+00 0.00000000D+00
  <mgrwgt>
 0.4061852752D-03    1    2    0
 0.704267390041340D+03 0.000000000000000D+00 0.000000000000000D+00 0.704267390041340D+03
 0.704267390041340D+03 0.000000000000000D+00 0.000000000000000D+00 -.704267390041340D+03
 0.707561371927754D+03 0.543247397181371D+03 0.411758925049171D+03 0.142670768352534D+03
 0.221292767263445D+03 -.188337148525073D+03 -.115135747375327D+03 -.156002245138529D+02
 0.000000000000000D+00 -.000000000000000D+00 -.000000000000000D+00 0.000000000000000D+00
 0.479680640891481D+03 -.354910248656297D+03 -.296623177673844D+03 -.127070543838681D+03
 0.109839828974356D+04 0.000000000000000D+00 0.000000000000000D+00 0.109839828974356D+04
 0.707305126488289D+03 0.000000000000000D+00 0.000000000000000D+00 -.707305126488289D+03
 0.737718639849311D+03 0.569668544194728D+03 0.428633401864429D+03 0.142670768352534D+03
 0.211922069947851D+03 -.180417553146283D+03 -.110077714560247D+03 -.156002245138529D+02
 0.395842542630011D+03 -.515230580240621D+02 -.329063930358002D+02 0.391093163255272D+03
 0.460220163804678D+03 -.337727933024383D+03 -.285649294268382D+03 -.127070543838681D+03
0.348843929139D-04 0.000000000000D+00 0.000000000000D+00 0.127058789175D-03 0.117180592312D-07  6 21 2 25 4 1 -3 2 0.35712395D-01 0.51489772D+00 0.51739462D+06 0.51739462D+06 0.51739462D+06 0.10674623D+01  1  2  1  5  5  1       -1 0.406185275160D-03 0.100000000000D+01
  </mgrwgt>
  </event>
  <event>
  7     66 0.18082911E-05 0.58662325E+02 0.75467711E-02 0.94291627E-01
       21 -1    0    0  503  501 0.00000000E+00 0.00000000E+00 0.20631709E+03 0.20631846E+03 0.75000000E+00 0.0000E+00 0.9000E+01
        2 -1    0    0  501    0 0.00000000E+00 0.00000000E+00 -.22890297E+04 0.22890297E+04 0.32000000E+00 0.0000E+00 0.9000E+01
       24  2    1    2    0    0 -.48953357E+03 0.68963061E+02 -.11233042E+04 0.12298191E+04 0.79016128E+02 0.0000E+00 0.0000E+00
       25  1    1    2    0    0 0.49791105E+03 -.78907599E+02 -.10513626E+04 0.11726594E+04 0.12500000E+03 0.0000E+00 0.9000E+01
        4  1    3    3  502    0 -.20150056E+03 0.29955646E+00 -.52251065E+03 0.56001996E+03 0.15500000E+01 0.0000E+00 0.9000E+01
        1  1    1    2  503    0 -.83774832E+01 0.99445375E+01 0.91954275E+02 0.92869625E+02 0.32000000E+00 0.0000E+00 0.9000E+01
       -3  1    3    3    0  502 -.28803300E+03 0.68663505E+02 -.60079359E+03 0.66979913E+03 0.50000000E+00 0.0000E+00 0.9000E+01
#aMCatNLO 2  0  0  1  2 0.62713534D+02 0.00000000D+00  -5  6  0 0.00000000D+00 0.00000000D+00 0.00000000D+00 0.00000000D+00 0.00000000D+00
  <mgrwgt>
 0.4039582291D-02    1    2    0
 0.510528664967860D+03 0.000000000000000D+00 0.000000000000000D+00 0.510528664967860D+03
 0.510528664967860D+03 0.000000000000000D+00 0.000000000000000D+00 -.510528664967860D+03
 0.515122653620578D+03 0.493665048828705D+03 -.738673606118297D+02 0.237651188572652D+02
 0.206385191448616D+03 -.203084158003175D+03 0.227499150001675D+01 -.366946376341016D+02
 0.000000000000000D+00 -.000000000000000D+00 0.000000000000000D+00 0.000000000000000D+00
 0.299549484866526D+03 -.290580890825530D+03 0.715923691118130D+02 0.129295187768364D+02
 0.924796088958521D+03 0.000000000000000D+00 0.000000000000000D+00 0.924796088958521D+03
 0.510672103938507D+03 0.000000000000000D+00 0.000000000000000D+00 -.510672103938507D+03
 0.519934229711032D+03 0.497911049457038D+03 -.789075989971524D+02 0.237651188572652D+02
 0.204713521379886D+03 -.201397752723343D+03 0.273134842742458D+00 -.366946376341016D+02
 0.414328071725440D+03 -.837748320910829D+01 0.994453749280708D+01 0.414123985020014D+03
 0.296492370080669D+03 -.288135813524587D+03 0.686899266616029D+02 0.129295187768364D+02
0.552032777036D-04 0.000000000000D+00 0.000000000000D+00 0.120129316641D-03 0.346084224484D-06  6 21 2 25 4 1 -3 2 0.31741194D-01 0.35215848D+00 0.26522603D+06 0.26522603D+06 0.26522603D+06 0.10885327D+01  1  2  1  5  5  1       -1 0.403958229052D-02 0.100000000000D+01
  </mgrwgt>
  </event>
  <event>
  7     66 0.18082911E-05 0.51044724E+02 0.75467711E-02 0.94694075E-01
       -1 -1    0    0    0  501 0.00000000E+00 0.00000000E+00 0.76404566E+02 0.76405236E+02 0.32000000E+00 0.0000E+00 0.9000E+01
        2 -1    0    0  503    0 0.00000000E+00 0.00000000E+00 -.34600173E+04 0.34600173E+04 0.32000000E+00 0.0000E+00 0.9000E+01
       24  2    1    2    0    0 -.47800454E+03 -.96906052E+02 -.20690966E+04 0.21276411E+04 0.88412899E+02 0.0000E+00 0.0000E+00
       25  1    1    2    0    0 0.45364239E+03 0.99790649E+02 -.12683257E+04 0.13564751E+04 0.12500000E+03 0.0000E+00 0.9000E+01
        4  1    3    3  502    0 -.16046550E+03 -.45299620E+02 -.88776868E+03 0.90329224E+03 0.15500000E+01 0.0000E+00 0.9000E+01
       -3  1    3    3    0  502 -.31753904E+03 -.51606432E+02 -.11813279E+04 0.12243488E+04 0.50000000E+00 0.0000E+00 0.9000E+01
       21  1    1    2  503  501 0.24362152E+02 -.28845968E+01 -.46190479E+02 0.52306388E+02 0.75000000E+00 0.0000E+00 0.9000E+01
#aMCatNLO 2  0  0  2  1 0.10432093D+03 0.00000000D+00  -5  6  0 0.00000000D+00 0.00000000D+00 0.00000000D+00 0.00000000D+00 0.00000000D+00
  <mgrwgt>
 0.7678168552D-03    1    2    0
 0.500019069145833D+03 0.000000000000000D+00 0.000000000000000D+00 0.500019069145833D+03
 0.500019069145833D+03 0.000000000000000D+00 0.000000000000000D+00 -.500019069145833D+03
 0.503923005440094D+03 0.465783836793302D+03 0.983530441812311D+02 0.108099451868049D+03
 0.180439373890283D+03 -.155932637911243D+03 -.458109578272185D+02 -.783883679311627D+02
 0.315675758961290D+03 -.309851198882059D+03 -.525420863540126D+02 -.297110839368863D+02
 0.000000000000000D+00 0.000000000000000D+00 -.000000000000000D+00 0.000000000000000D+00
 0.521017273984317D+03 0.000000000000000D+00 0.000000000000000D+00 0.521017273984317D+03
 0.507386521075786D+03 0.000000000000000D+00 0.000000000000000D+00 -.507386521075786D+03
 0.493011244678411D+03 0.453642394512845D+03 0.997906497916301D+02 0.108099451868049D+03
 0.184160227596075D+03 -.160373016016818D+03 -.452851955388994D+02 -.783883679311627D+02
 0.323167526954306D+03 -.317631530314427D+03 -.516208574044717D+02 -.297110839368863D+02
 0.280647958313111D+02 0.243621518183999D+02 -.288459684825901D+01 0.136307529085309D+02
0.115878753385D-03 0.000000000000D+00 0.000000000000D+00 0.509512296683D-05 0.537411132497D-07  6 -1 2 25 4 -3 21 2 0.11754486D-01 0.53230518D+00 0.24700374D+06 0.24700374D+06 0.24700374D+06 0.10908533D+01  1  2  1  2  6  2        2 0.767816855153D-03 0.100000000000D+01
  </mgrwgt>
  </event>
  <event>
  7     66 0.18082911E-05 0.39617531E+02 0.75467711E-02 0.91551223E-01
       -1 -1    0    0    0  501 0.00000000E+00 0.00000000E+00 0.11630654E+04 0.11630654E+04 0.32000000E+00 0.0000E+00 0.9000E+01
        2 -1    0    0  503    0 0.00000000E+00 0.00000000E+00 -.49191471E+03 0.49191481E+03 0.32000000E+00 0.0000E+00 0.9000E+01
       24  2    1    2    0    0 0.54627960E+03 -.34826490E+03 0.50481404E+03 0.82543437E+03 0.82430801E+02 0.0000E+00 0.0000E+00
       25  1    1    2    0    0 -.53918083E+03 0.35885279E+03 0.27896443E+03 0.71619651E+03 0.12500000E+03 0.0000E+00 0.9000E+01
        4  1    3    3  502    0 0.11295463E+03 -.10541805E+03 0.94242967E+02 0.18098578E+03 0.15500000E+01 0.0000E+00 0.9000E+01
       -3  1    3    3    0  502 0.43332497E+03 -.24284684E+03 0.41057107E+03 0.64444858E+03 0.50000000E+00 0.0000E+00 0.9000E+01
       21  1    1    2  503  501 -.70987639E+01 -.10587891E+02 -.11262779E+03 0.11334936E+03 0.75000000E+00 0.0000E+00 0.9000E+01
#aMCatNLO 2  0  0  2  1 0.10147262D+03 0.00000000D+00  -5  6  0 0.00000000D+00 0.00000000D+00 0.00000000D+00 0.00000000D+00 0.00000000D+00
  <mgrwgt>
 0.3682952665D-02    1    2    0
 0.663730853901694D+03 0.000000000000000D+00 0.000000000000000D+00 0.663730853901694D+03
 0.663730853901694D+03 0.000000000000000D+00 0.000000000000000D+00 -.663730853901694D+03
 0.667056811706097D+03 -.542747781652877D+03 0.353532644087406D+03 -.988903691921066D+02
 0.154604927779973D+03 0.111979410924849D+03 -.106568166691427D+03 0.255363873766677D+01
 0.505799968317318D+03 0.430768370728028D+03 -.246964477395979D+03 0.963367304544398D+02
 0.000000000000000D+00 -.000000000000000D+00 -.000000000000000D+00 -.000000000000000D+00
 0.663966710326061D+03 0.000000000000000D+00 0.000000000000000D+00 0.663966710326061D+03
 0.861681555554598D+03 0.000000000000000D+00 0.000000000000000D+00 -.861681555554598D+03
 0.667004948224141D+03 -.539180834662925D+03 0.358852787879277D+03 -.988903691921066D+02
 0.154360887412909D+03 0.112805508124845D+03 -.105336032907992D+03 0.255363873766677D+01
 0.506157076240353D+03 0.433474090389939D+03 -.242928864390682D+03 0.963367304544398D+02
 0.198125354003257D+03 -.709876385185958D+01 -.105878905806026D+02 -.197714845228538D+03
0.184335326989D-02 0.000000000000D+00 0.000000000000D+00 0.489033923736D-04 0.191090942635D-05  6 -1 2 25 4 -3 21 2 0.17893296D+00 0.75679116D-01 0.43799595D+06 0.43799595D+06 0.43799595D+06 0.10725981D+01  1  2  1  2  6  2        2 0.368295266458D-02 0.100000000000D+01
  </mgrwgt>
  </event>
  <event>
  7     66 0.18082911E-05 0.44640362E+02 0.75467711E-02 0.90949047E-01
       -1 -1    0    0    0  501 0.00000000E+00 0.00000000E+00 0.23278386E+03 0.23278408E+03 0.32000000E+00 0.0000E+00 0.9000E+01
        2 -1    0    0  503    0 0.00000000E+00 0.00000000E+00 -.21748351E+04 0.21748351E+04 0.32000000E+00 0.0000E+00 0.9000E+01
       24  2    1    2    0    0 -.53981992E+03 -.42984205E+03 -.11471117E+04 0.13410039E+04 0.79098557E+02 0.0000E+00 0.0000E+00
       25  1    1    2    0    0 0.48307918E+03 0.41353567E+03 -.69302846E+03 0.94883649E+03 0.12500000E+03 0.0000E+00 0.9000E+01
        4  1    3    3  502    0 -.22776545E+03 -.23081155E+03 -.52081874E+03 0.61351906E+03 0.15500000E+01 0.0000E+00 0.9000E+01
       -3  1    3    3    0  502 -.31205447E+03 -.19903050E+03 -.62629296E+03 0.72748488E+03 0.50000000E+00 0.0000E+00 0.9000E+01
       21  1    1    2  503  501 0.56740743E+02 0.16306381E+02 -.10191109E+03 0.11777879E+03 0.75000000E+00 0.0000E+00 0.9000E+01
#aMCatNLO 2  0  0  2  1 0.10147262D+03 0.00000000D+00  -5  6  0 0.00000000D+00 0.00000000D+00 0.00000000D+00 0.00000000D+00 0.00000000D+00
  <mgrwgt>
 0.7345658307D-03    1    2    0
 0.680765742968179D+03 0.000000000000000D+00 0.000000000000000D+00 0.680765742968179D+03
 0.680765742968179D+03 0.000000000000000D+00 0.000000000000000D+00 -.680765742968179D+03
 0.684206140177418D+03 0.511044203168318D+03 0.421572367602379D+03 0.116720193362864D+03
 0.315543202409761D+03 -.214262096799828D+03 -.226895507732619D+03 -.466657801038963D+02
 0.361782143349179D+03 -.296782106368490D+03 -.194676859869760D+03 -.700544132589678D+02
 0.000000000000000D+00 0.000000000000000D+00 0.000000000000000D+00 -.000000000000000D+00
 0.705446530676016D+03 0.000000000000000D+00 0.000000000000000D+00 0.705446530676016D+03
 0.717649695231620D+03 0.000000000000000D+00 0.000000000000000D+00 -.717649695231620D+03
 0.658502729651480D+03 0.483079178869283D+03 0.413535667582333D+03 0.116720193362864D+03
 0.327486318073331D+03 -.227654676955791D+03 -.230744320737642D+03 -.466657801038963D+02
 0.376821796527685D+03 -.312165245327460D+03 -.199097727588591D+03 -.700544132589678D+02
 0.602853816551406D+02 0.567407434139681D+02 0.163063807439003D+02 -.122031645556045D+02
0.119023906048D-03 0.000000000000D+00 0.000000000000D+00 0.100876115229D-03 0.176562789377D-06  6 -1 2 25 4 -3 21 2 0.35812803D-01 0.33458894D+00 0.49105774D+06 0.49105774D+06 0.49105774D+06 0.10690647D+01  1  2  1  2  6  2        2 0.734565830718D-03 0.100000000000D+01
  </mgrwgt>
  </event>
  <event>
  7     66 0.18082911E-05 0.21085794E+02 0.75467711E-02 0.94211599E-01
       -1 -1    0    0    0  503 0.00000000E+00 0.00000000E+00 0.17377210E+04 0.17377210E+04 0.32000000E+00 0.0000E+00 0.9000E+01
        2 -1    0    0  501    0 0.00000000E+00 0.00000000E+00 -.19541258E+03 0.19541284E+03 0.32000000E+00 0.0000E+00 0.9000E+01
       24  2    1    2    0    0 -.14009397E+03 -.48791350E+03 0.96160405E+03 0.10902477E+04 0.79194141E+02 0.0000E+00 0.0000E+00
       25  1    1    2    0    0 0.13671987E+03 0.46051391E+03 0.34246798E+03 0.60305447E+03 0.12500000E+03 0.0000E+00 0.9000E+01
        4  1    3    3  502    0 -.91892248E+02 -.42093122E+03 0.79079392E+03 0.90054689E+03 0.15500000E+01 0.0000E+00 0.9000E+01
       -3  1    3    3    0  502 -.48201724E+02 -.66982280E+02 0.17081013E+03 0.18970077E+03 0.50000000E+00 0.0000E+00 0.9000E+01
       21  1    1    2  501  503 0.33740976E+01 0.27399593E+02 0.23823639E+03 0.23983174E+03 0.75000000E+00 0.0000E+00 0.9000E+01
#aMCatNLO 2  0  0  1  2 0.62713534D+02 0.00000000D+00  -5  6  0 0.00000000D+00 0.00000000D+00 0.00000000D+00 0.00000000D+00 0.00000000D+00
  <mgrwgt>
 0.1132864149D-02    1    2    0
 0.539885672369900D+03 0.000000000000000D+00 0.000000000000000D+00 0.539885672369900D+03
 0.539885672369900D+03 0.000000000000000D+00 0.000000000000000D+00 -.539885672369900D+03
 0.544216815306512D+03 0.138400985559444D+03 0.474165488248053D+03 -.191204599874120D+03
 0.446191316221635D+03 -.904664977121752D+02 -.409464681195074D+03 0.152450576637494D+03
 0.893632132116546D+02 -.479344878472686D+02 -.647008070529788D+02 0.387540232366253D+02
 0.000000000000000D+00 0.000000000000000D+00 0.000000000000000D+00 0.000000000000000D+00
 0.626197821115937D+03 0.000000000000000D+00 0.000000000000000D+00 0.626197821115937D+03
 0.542274078714843D+03 0.000000000000000D+00 0.000000000000000D+00 -.542274078714843D+03
 0.531930054784986D+03 0.136719874354519D+03 0.460513908722658D+03 -.191204599874120D+03
 0.457010132178208D+03 -.918774408811869D+02 -.420922342544991D+03 0.152450576637494D+03
 0.911840091951823D+02 -.482165310953062D+02 -.669911587078291D+02 0.387540232366253D+02
 0.883477036724031D+02 0.337409762197382D+01 0.273995925301626D+02 0.839237424010940D+02
0.101325921103D-02 0.000000000000D+00 0.000000000000D+00 0.627549785598D-04 0.527103803016D-06  6 -1 2 25 4 -3 21 2 0.26734093D+00 0.30063409D-01 0.26902666D+06 0.26902666D+06 0.26902666D+06 0.10880707D+01  1  2  1  1  6  1       -1 0.113286414912D-02 0.100000000000D+01
  </mgrwgt>
  </event>
  <event>
  7     66 0.18082911E-05 0.26994105E+02 0.75467711E-02 0.94334194E-01
       21 -1    0    0  503  501 0.00000000E+00 0.00000000E+00 0.39942918E+03 0.39942988E+03 0.75000000E+00 0.0000E+00 0.9000E+01
        2 -1    0    0  501    0 0.00000000E+00 0.00000000E+00 -.77476441E+03 0.77476447E+03 0.32000000E+00 0.0000E+00 0.9000E+01
       24  2    1    2    0    0 -.98020701E+02 0.49504457E+03 -.19042412E+03 0.54540064E+03 0.80767182E+02 0.0000E+00 0.0000E+00
       25  1    1    2    0    0 0.89482754E+02 -.47637395E+03 -.25072890E+03 0.55984756E+03 0.12500000E+03 0.0000E+00 0.9000E+01
        4  1    3    3  502    0 -.87897982E+02 0.40608376E+03 -.12299239E+03 0.43331236E+03 0.15500000E+01 0.0000E+00 0.9000E+01
        1  1    1    2  503    0 0.85379470E+01 -.18670617E+02 0.65817792E+02 0.68946157E+02 0.32000000E+00 0.0000E+00 0.9000E+01
       -3  1    3    3    0  502 -.10122719E+02 0.88960810E+02 -.67431728E+02 0.11208828E+03 0.50000000E+00 0.0000E+00 0.9000E+01
#aMCatNLO 2  0  0  1  2 0.62713534D+02 0.00000000D+00  -5  6  0 0.00000000D+00 0.00000000D+00 0.00000000D+00 0.00000000D+00 0.00000000D+00
  <mgrwgt>
 0.2726007903D-03    1    2    0
 0.506590591696230D+03 0.000000000000000D+00 0.000000000000000D+00 0.506590591696230D+03
 0.506590591696230D+03 0.000000000000000D+00 0.000000000000000D+00 -.506590591696230D+03
 0.511082217960282D+03 0.937485416975100D+02 -.485702291597677D+03 -.297410218647006D+02
 0.410892814643848D+03 -.844011544208178D+02 0.398420543201943D+03 0.545015689044392D+02
 0.000000000000000D+00 0.000000000000000D+00 -.000000000000000D+00 0.000000000000000D+00
 0.912061507883307D+02 -.934738727669221D+01 0.872817483957336D+02 -.247605470397387D+02
 0.609517142824029D+03 0.000000000000000D+00 0.000000000000000D+00 0.609517142824029D+03
 0.507719377997404D+03 0.000000000000000D+00 0.000000000000000D+00 -.507719377997404D+03
 0.501446738912696D+03 0.894827541654937D+02 -.476373950055604D+03 -.297410218647006D+02
 0.419030379824440D+03 -.878976233281639D+02 0.406066553678125D+03 0.545015689044392D+02
 0.103847356256186D+03 0.853794695390265D+01 -.186706170094835D+02 0.101797764826625D+03
 0.929120458281102D+02 -.101230777912325D+02 0.889780133869620D+02 -.247605470397387D+02
0.204088263181D-05 0.000000000000D+00 0.000000000000D+00 0.969707202841D-04 0.399134402930D-07  6 21 2 25 4 1 -3 2 0.61450673D-01 0.11919453D+00 0.26322905D+06 0.26322905D+06 0.26322905D+06 0.10887784D+01  1  2  1  5  5  1       -1 0.272600790266D-03 0.100000000000D+01
  </mgrwgt>
  </event>
  <event>
  6     66 -.18082911E-05 0.18590202E+02 0.75467711E-02 0.95243487E-01
       -1 -1    0    0    0  501 0.00000000E+00 0.00000000E+00 0.17728597E+03 0.17728626E+03 0.32000000E+00 0.0000E+00 0.9000E+01
        2 -1    0    0  501    0 -.00000000E+00 -.00000000E+00 -.13117171E+04 0.13117171E+04 0.32000000E+00 0.0000E+00 0.9000E+01
       24  2    1    2    0    0 -.33255400E+03 -.32439840E+03 -.44481274E+03 0.64815560E+03 0.80130053E+02 0.0000E+00 0.0000E+00
       25  1    1    2    0    0 0.33255400E+03 0.32439840E+03 -.68961837E+03 0.84084778E+03 0.12500000E+03 0.0000E+00 0.9000E+01
        4  1    3    3  502    0 -.32582483E+03 -.30141978E+03 -.43719862E+03 0.62302548E+03 0.15500000E+01 0.0000E+00 0.9000E+01
       -3  1    3    3    0  502 -.67291754E+01 -.22978613E+02 -.76141166E+01 0.25130126E+02 0.50000000E+00 0.0000E+00 0.9000E+01
#aMCatNLO 1  0  0  5  1 0.32632481D+01 0.00000000D+00  -5  6  0 0.00000000D+00 0.00000000D+00 0.00000000D+00 0.00000000D+00 0.00000000D+00
  <mgrwgt>
 -.1306534677D-01    7    2    0
 0.482233634984637D+03 0.000000000000000D+00 0.000000000000000D+00 0.482233634984637D+03
 0.482233634984637D+03 -.000000000000000D+00 -.000000000000000D+00 -.482233634984637D+03
 0.487005271591283D+03 0.332554004826805D+03 0.324398395853927D+03 -.756481936251735D+02
 0.447626767729170D+03 -.325835006549844D+03 -.301422926077578D+03 0.578402224162280D+02
 0.298352306488214D+02 -.671899827696164D+01 -.229754697763489D+02 0.178079712089455D+02
 0.000000000000000D+00 0.000000000000000D+00 0.000000000000000D+00 -.000000000000000D+00
 0.482233634984637D+03 0.000000000000000D+00 0.000000000000000D+00 0.482233634984637D+03
 0.482233634984637D+03 -.000000000000000D+00 -.000000000000000D+00 -.482233634984637D+03
 0.481639099633279D+03 0.330956193155750D+03 0.318934713286469D+03 -.714133682743436D+02
 0.452656143744957D+03 -.327320053679562D+03 -.306501012726637D+03 0.617761776642926D+02
 0.228898796604840D+02 -.210516602297368D+01 -.173271859287310D+02 0.148082238866902D+02
 0.728214693055465D+01 -.153097345321531D+01 0.489348536889881D+01 -.517103327663918D+01
0.534029792363D-04 0.000000000000D+00 0.000000000000D+00 0.868962174032D-04 0.000000000000D+00  6 -1 2 25 4 -3 21 0 0.27274790D-01 0.20180265D+00 0.22510562D+06 0.22510562D+06 0.22510562D+06 0.10939027D+01  1  2  2  4  6  5       -3 0.141057145775D-02 0.100000000000D+01
0.161867928149D-04 0.000000000000D+00 -.205081501595D-06 0.868962174032D-04 0.000000000000D+00  6 -1 2 25 4 -3 21 2 0.27274790D-01 0.20180265D+00 0.22510562D+06 0.22510562D+06 0.22510562D+06 0.10939027D+01  1  2  3  4  6  5       -3 0.511620369423D-03 0.100000000000D+01
-.164482403240D-04 0.000000000000D+00 0.000000000000D+00 0.868962174032D-04 0.000000000000D+00  6 -1 2 25 4 -3 21 2 0.27274790D-01 0.20180265D+00 0.22510562D+06 0.22510562D+06 0.22510562D+06 0.10939027D+01  1  2 15  4  6  5       -3 -.519884012055D-03 0.100000000000D+01
-.488384026046D-03 0.000000000000D+00 0.000000000000D+00 0.868962174032D-04 0.000000000000D+00  6 -1 2 25 4 -3 21 2 0.27274790D-01 0.20180265D+00 0.22510562D+06 0.22510562D+06 0.22510562D+06 0.10939027D+01  1  2  4  4  6  5       -3 -.154364869362D-01 0.100000000000D+01
0.554033480436D-06 0.000000000000D+00 0.000000000000D+00 0.868962174032D-04 0.000000000000D+00  6 -1 2 25 4 -3 21 2 0.27274790D-01 0.20180265D+00 0.22510562D+06 0.22510562D+06 0.22510562D+06 0.10939027D+01  1  2  5  4  6  5       -3 0.175114871225D-04 0.100000000000D+01
-.705138767213D-06 0.000000000000D+00 0.000000000000D+00 0.868962174032D-04 0.000000000000D+00  6 -1 2 25 4 -3 21 2 0.27274790D-01 0.20180265D+00 0.22510562D+06 0.22510562D+06 0.22510562D+06 0.10939027D+01  1  2  6  4  6  5       -3 -.222875130794D-04 0.100000000000D+01
0.307943688914D-04 0.000000000000D+00 0.000000000000D+00 0.868962174032D-04 0.237453624218D-05  6 -1 2 25 4 -3 21 2 0.27274790D-01 0.20180265D+00 0.22435297D+06 0.22435297D+06 0.22435297D+06 0.10940132D+01  1  2 11  4  6  5       -3 0.973608381927D-03 0.100000000000D+01
  </mgrwgt>
  </event>
  <event>
  7     66 0.18082911E-05 0.47245916E+02 0.75467711E-02 0.92705299E-01
       -1 -1    0    0    0  503 0.00000000E+00 0.00000000E+00 0.15498934E+04 0.15498934E+04 0.32000000E+00 0.0000E+00 0.9000E+01
        2 -1    0    0  501    0 0.00000000E+00 0.00000000E+00 -.87864676E+03 0.87864682E+03 0.32000000E+00 0.0000E+00 0.9000E+01
       24  2    1    2    0    0 -.50576561E+03 0.28749131E+03 -.24474506E+03 0.63630512E+03 0.80832890E+02 0.0000E+00 0.0000E+00
       25  1    1    2    0    0 0.48805695E+03 -.25505598E+03 -.25575168E+03 0.61990891E+03 0.12500000E+03 0.0000E+00 0.9000E+01
        4  1    3    3  502    0 -.32533170E+03 0.14048861E+03 -.13873956E+03 0.38056383E+03 0.15500000E+01 0.0000E+00 0.9000E+01
       -3  1    3    3    0  502 -.18043392E+03 0.14700270E+03 -.10600550E+03 0.25574129E+03 0.50000000E+00 0.0000E+00 0.9000E+01
       21  1    1    2  501  503 0.17708666E+02 -.32435326E+02 0.11717434E+04 0.11723262E+04 0.75000000E+00 0.0000E+00 0.9000E+01
#aMCatNLO 2  0  0  1  4 0.62076240D+02 0.00000000D+00  -5  6  0 0.00000000D+00 0.00000000D+00 0.00000000D+00 0.00000000D+00 0.00000000D+00
  <mgrwgt>
 0.8999616994D-03    1    2    0
 0.575806188158388D+03 0.000000000000000D+00 0.000000000000000D+00 0.575806188158388D+03
 0.575806188158388D+03 0.000000000000000D+00 0.000000000000000D+00 -.575806188158388D+03
 0.579753281873742D+03 0.496854541402354D+03 -.271169718158300D+03 -.956119684866340D+01
 0.345804257852375D+03 -.319894169345650D+03 0.130579253092606D+03 0.140486237498762D+02
 0.226054836590658D+03 -.176960372056704D+03 0.140590465065695D+03 -.448742690121281D+01
 0.000000000000000D+00 0.000000000000000D+00 -.000000000000000D+00 0.000000000000000D+00
 0.236304633786987D+04 0.000000000000000D+00 0.000000000000000D+00 0.236304633786987D+04
 0.576293635117377D+03 0.000000000000000D+00 0.000000000000000D+00 -.576293635117377D+03
 0.564773896405320D+03 0.488056948142134D+03 -.255055980023708D+03 -.956119684866340D+01
 0.354579141028909D+03 -.325277779614157D+03 0.140439914243840D+03 0.140486237498762D+02
 0.232852114664843D+03 -.180487834556550D+03 0.147051391971593D+03 -.448742690121281D+01
 0.178713482088817D+04 0.177086660285719D+02 -.324353261917260D+02 0.178675270275249D+04
0.271976185803D-02 0.000000000000D+00 0.000000000000D+00 0.222720867060D-03 0.219335456658D-05  6 -1 2 25 4 -3 21 2 0.23844511D+00 0.13517641D+00 0.35328593D+06 0.35328593D+06 0.35328593D+06 0.10793374D+01  1  2  1  1  6  1       -1 0.899961699400D-03 0.100000000000D+01
  </mgrwgt>
  </event>
  <event>
  7     66 0.18082911E-05 0.11475358E+03 0.75467711E-02 0.94735022E-01
       -1 -1    0    0    0  501 0.00000000E+00 0.00000000E+00 0.57194653E+03 0.57194662E+03 0.32000000E+00 0.0000E+00 0.9000E+01
        2 -1    0    0  503    0 0.00000000E+00 0.00000000E+00 -.91410225E+03 0.91410231E+03 0.32000000E+00 0.0000E+00 0.9000E+01
       24  2    1    2    0    0 -.34604201E+03 -.82646083E+02 -.18389025E+03 0.40885908E+03 0.82308442E+02 0.0000E+00 0.0000E+00
       25  1    1    2    0    0 0.45539187E+03 0.16139381E+03 0.31162540E+03 0.58835798E+03 0.12500000E+03 0.0000E+00 0.9000E+01
        4  1    3    3  502    0 -.28144863E+03 -.57329858E+02 -.18082667E+03 0.33941233E+03 0.15500000E+01 0.0000E+00 0.9000E+01
       -3  1    3    3    0  502 -.64593376E+02 -.25316225E+02 -.30635789E+01 0.69446750E+02 0.50000000E+00 0.0000E+00 0.9000E+01
       21  1    1    2  503  501 -.10934987E+03 -.78747723E+02 -.46989087E+03 0.48883187E+03 0.75000000E+00 0.0000E+00 0.9000E+01
#aMCatNLO 2  0  0  2  1 0.57965300D+01 0.00000000D+00  -5  6  0 0.00000000D+00 0.00000000D+00 0.00000000D+00 0.00000000D+00 0.00000000D+00
  <mgrwgt>
 0.1004190661D-02    1    2    0
 0.489889528155622D+03 0.000000000000000D+00 0.000000000000000D+00 0.489889528155622D+03
 0.489889528155622D+03 0.000000000000000D+00 0.000000000000000D+00 -.489889528155622D+03
 0.494406016304774D+03 0.397217128552038D+03 0.119499573659869D+03 0.238224082826106D+03
 0.405033551104849D+03 -.324237163786430D+03 -.881459458458393D+02 -.226169695961414D+03
 0.803394889016210D+02 -.729799647656077D+02 -.313536278140295D+02 -.120543868646916D+02
 0.000000000000000D+00 -.000000000000000D+00 -.000000000000000D+00 -.000000000000000D+00
 0.502826903695773D+03 0.000000000000000D+00 0.000000000000000D+00 0.502826903695773D+03
 0.103975581938528D+04 0.000000000000000D+00 0.000000000000000D+00 -.103975581938528D+04
 0.552996776126025D+03 0.455391875334496D+03 0.161393806097907D+03 0.238224082826106D+03
 0.365574806999070D+03 -.281436107282561D+03 -.573229941538963D+02 -.226169695961414D+03
 0.704307408917528D+02 -.646058989296681D+02 -.253230891355512D+02 -.120543868646916D+02
 0.553580399064201D+03 -.109349869122267D+03 -.787477228084596D+02 -.536928915689502D+03
0.159050185067D-03 0.000000000000D+00 0.000000000000D+00 0.469969483142D-04 0.199559980973D-07  6 -1 2 25 4 -3 21 2 0.87991742D-01 0.14063106D+00 0.24522984D+06 0.24522984D+06 0.24522984D+06 0.10910891D+01  1  2  1  2  6  2        2 0.100419066133D-02 0.100000000000D+01
  </mgrwgt>
  </event>
  <event>
  7     66 0.18082911E-05 0.11252814E+03 0.75467711E-02 0.92083876E-01
       -1 -1    0    0    0  503 0.00000000E+00 0.00000000E+00 0.32062626E+03 0.32062642E+03 0.32000000E+00 0.0000E+00 0.9000E+01
        2 -1    0    0  501    0 0.00000000E+00 0.00000000E+00 -.18460201E+04 0.18460201E+04 0.32000000E+00 0.0000E+00 0.9000E+01
       24  2    1    2    0    0 -.53782028E+03 0.12672603E+03 -.11724817E+04 0.12987705E+04 0.82349487E+02 0.0000E+00 0.0000E+00
       25  1    1    2    0    0 0.55119156E+03 0.96506235E+01 -.43037925E+03 0.71046222E+03 0.12500000E+03 0.0000E+00 0.9000E+01
        4  1    3    3  502    0 -.14530667E+03 0.31799133E+01 -.26200830E+03 0.29962459E+03 0.15500000E+01 0.0000E+00 0.9000E+01
       -3  1    3    3    0  502 -.39251361E+03 0.12354612E+03 -.91047336E+03 0.99914592E+03 0.50000000E+00 0.0000E+00 0.9000E+01
       21  1    1    2  501  503 -.13371278E+02 -.13637666E+03 0.77467108E+02 0.15741378E+03 0.75000000E+00 0.0000E+00 0.9000E+01
#aMCatNLO 2  0  0  1  4 0.62076240D+02 0.00000000D+00  -5  6  0 0.00000000D+00 0.00000000D+00 0.00000000D+00 0.00000000D+00 0.00000000D+00
  <mgrwgt>
 0.4692233261D-03    1    2    0
 0.601887792825781D+03 0.000000000000000D+00 0.000000000000000D+00 0.601887792825781D+03
 0.601887792825781D+03 0.000000000000000D+00 0.000000000000000D+00 -.601887792825781D+03
 0.605561053219485D+03 0.544468588474528D+03 -.589184443284527D+02 0.226189659928923D+03
 0.152336145586180D+03 -.146847257902167D+03 -.139407601415958D+02 -.380504836413752D+02
 0.445878386845898D+03 -.397621330572361D+03 0.728592044700485D+02 -.188139176287548D+03
 0.000000000000000D+00 -.000000000000000D+00 -.000000000000000D+00 0.000000000000000D+00
 0.955909238754033D+03 0.000000000000000D+00 0.000000000000000D+00 0.955909238754033D+03
 0.619182197665555D+03 0.000000000000000D+00 0.000000000000000D+00 -.619182197665555D+03
 0.608844832717128D+03 0.551191557930903D+03 0.965062346637224D+01 0.226189659928923D+03
 0.150109461421134D+03 -.145172914421399D+03 0.313624316618787D+01 -.380504836413752D+02
 0.452595557903528D+03 -.392647365147910D+03 0.123589789312275D+03 -.188139176287548D+03
 0.363541584377800D+03 -.133712783615947D+02 -.136376655944836D+03 0.336727041088478D+03
0.863338449571D-04 0.000000000000D+00 0.000000000000D+00 0.341053995589D-04 0.123267119549D-07  6 -1 2 25 4 -3 21 2 0.49327101D-01 0.28400293D+00 0.39636224D+06 0.39636224D+06 0.39636224D+06 0.10757138D+01  1  2  1  1  6  1       -1 0.469223326071D-03 0.100000000000D+01
  </mgrwgt>
  </event>
  <event>
  7     66 0.18082911E-05 0.44811529E+02 0.75467711E-02 0.94421601E-01
       21 -1    0    0  503  501 0.00000000E+00 0.00000000E+00 0.25334574E+04 0.25334575E+04 0.75000000E+00 0.0000E+00 0.9000E+01
        2 -1    0    0  501    0 0.00000000E+00 0.00000000E+00 -.17771085E+03 0.17771114E+03 0.32000000E+00 0.0000E+00 0.9000E+01
       24  2    1    2    0    0 0.34187398E+03 -.34738083E+03 0.56346375E+03 0.74932346E+03 0.80268226E+02 0.0000E+00 0.0000E+00
       25  1    1    2    0    0 -.32639206E+03 0.36284315E+03 0.66469558E+03 0.83404565E+03 0.12500000E+03 0.0000E+00 0.9000E+01
        4  1    3    3  502    0 0.13323820E+03 -.88180972E+02 0.21013072E+03 0.26398035E+03 0.15500000E+01 0.0000E+00 0.9000E+01
        1  1    1    2  503    0 -.15481921E+02 -.15462320E+02 0.11275872E+04 0.11277995E+04 0.32000000E+00 0.0000E+00 0.9000E+01
       -3  1    3    3    0  502 0.20863578E+03 -.25919986E+03 0.35333303E+03 0.48534311E+03 0.50000000E+00 0.0000E+00 0.9000E+01
#aMCatNLO 2  0  0  1  1 0.10409833D+02 0.00000000D+00  -5  6  0 0.00000000D+00 0.00000000D+00 0.00000000D+00 0.00000000D+00 0.00000000D+00
  <mgrwgt>
 0.4335443972D-03    1    2    0
 0.499550699000676D+03 0.000000000000000D+00 0.000000000000000D+00 0.499550699000676D+03
 0.499550699000676D+03 0.000000000000000D+00 0.000000000000000D+00 -.499550699000676D+03
 0.504145834220459D+03 -.334206669773942D+03 0.355038430356925D+03 0.281360446783920D+02
 0.159229201148121D+03 0.130693320785897D+03 -.905567939249456D+02 0.852417000407274D+01
 0.000000000000000D+00 -.000000000000000D+00 -.000000000000000D+00 0.000000000000000D+00
 0.335726362632773D+03 0.203513348988045D+03 -.264481636431979D+03 -.366602146824647D+02
 0.900502224223985D+03 0.000000000000000D+00 0.000000000000000D+00 0.900502224223985D+03
 0.499969097929862D+03 0.000000000000000D+00 0.000000000000000D+00 -.499969097929862D+03
 0.504582562848441D+03 -.326392056896123D+03 0.362843149192147D+03 0.281360446783920D+02
 0.159891108586021D+03 0.133165543922737D+03 -.880877008575538D+02 0.852417000407274D+01
 0.401130350965733D+03 -.154819211189319D+02 -.154623195354084D+02 0.400533126294123D+03
 0.334867299753652D+03 0.208708434092318D+03 -.259293128799185D+03 -.366602146824647D+02
0.290528462554D-03 0.000000000000D+00 0.000000000000D+00 0.207433227833D-03 0.210343605595D-06  6 21 2 25 4 1 -3 2 0.38976265D+00 0.27340158D-01 0.25918110D+06 0.25918110D+06 0.25918110D+06 0.10892827D+01  1  2  1  5  5  1       -1 0.433544397185D-03 0.100000000000D+01
  </mgrwgt>
  </event>
  <event>
  7     66 0.18082911E-05 0.56115114E+02 0.75467711E-02 0.93904121E-01
       -1 -1    0    0    0  503 0.00000000E+00 0.00000000E+00 0.11634723E+03 0.11634767E+03 0.32000000E+00 0.0000E+00 0.9000E+01
        2 -1    0    0  501    0 0.00000000E+00 0.00000000E+00 -.29086711E+04 0.29086711E+04 0.32000000E+00 0.0000E+00 0.9000E+01
       24  2    1    2    0    0 0.40432965E+03 -.28594046E+03 -.14240748E+04 0.15099893E+04 0.82669006E+02 0.0000E+00 0.0000E+00
       25  1    1    2    0    0 -.44059173E+03 0.26532683E+03 -.13744620E+04 0.14728510E+04 0.12500000E+03 0.0000E+00 0.9000E+01
        4  1    3    3  502    0 0.21520647E+03 -.15325836E+03 -.88242077E+03 0.92112473E+03 0.15500000E+01 0.0000E+00 0.9000E+01
       -3  1    3    3    0  502 0.18912318E+03 -.13268210E+03 -.54165407E+03 0.58886459E+03 0.50000000E+00 0.0000E+00 0.9000E+01
       21  1    1    2  501  503 0.36262077E+02 0.20613628E+02 0.62129363E+01 0.42178466E+02 0.75000000E+00 0.0000E+00 0.9000E+01
#aMCatNLO 2  0  0  1  1 0.10409833D+02 0.00000000D+00  -5  6  0 0.00000000D+00 0.00000000D+00 0.00000000D+00 0.00000000D+00 0.00000000D+00
  <mgrwgt>
 0.1015305266D-02    1    2    0
 0.515700560301140D+03 0.000000000000000D+00 0.000000000000000D+00 0.515700560301140D+03
 0.515700560301140D+03 0.000000000000000D+00 0.000000000000000D+00 -.515700560301140D+03
 0.519962159391842D+03 -.422146922301282D+03 0.275812010658001D+03 0.213391182520225D+02
 0.274044563529666D+03 0.224695805479039D+03 -.147789642859413D+03 -.526349623708248D+02
 0.237394397680772D+03 0.197451116822243D+03 -.128022367798588D+03 0.312958441188022D+02
 0.000000000000000D+00 0.000000000000000D+00 0.000000000000000D+00 0.000000000000000D+00
 0.651635747822722D+03 0.000000000000000D+00 0.000000000000000D+00 0.651635747822722D+03
 0.519331861041500D+03 0.000000000000000D+00 0.000000000000000D+00 -.519331861041500D+03
 0.529716675077608D+03 -.440591726941917D+03 0.265326832487485D+03 0.213391182520225D+02
 0.269322434741894D+03 0.215147839184803D+03 -.153217302827174D+03 -.526349623708248D+02
 0.233205111041660D+03 0.189181810328365D+03 -.132723157729640D+03 0.312958441188022D+02
 0.138723388003060D+03 0.362620774287492D+02 0.206136280693296D+02 0.132303886781221D+03
0.131471690126D-03 0.000000000000D+00 0.000000000000D+00 0.648626633306D-04 0.241035232190D-06  6 -1 2 25 4 -3 21 2 0.17899574D-01 0.44748703D+00 0.28420785D+06 0.28420785D+06 0.28420785D+06 0.10862937D+01  1  2  1  1  6  1       -1 0.101530526619D-02 0.100000000000D+01
  </mgrwgt>
  </event>
  <event>
  7     66 0.18082911E-05 0.10495857E+03 0.75467711E-02 0.92163329E-01
       -1 -1    0    0    0  503 0.00000000E+00 0.00000000E+00 0.39434490E+03 0.39434503E+03 0.32000000E+00 0.0000E+00 0.9000E+01
        2 -1    0    0  501    0 0.00000000E+00 0.00000000E+00 -.12273279E+04 0.12273280E+04 0.32000000E+00 0.0000E+00 0.9000E+01
       24  2    1    2    0    0 0.87338947E+02 -.52701033E+03 -.92230290E+02 0.54803631E+03 0.80432532E+02 0.0000E+00 0.0000E+00
       25  1    1    2    0    0 -.22895201E+03 0.50493457E+03 -.73644820E+03 0.93024668E+03 0.12500000E+03 0.0000E+00 0.9000E+01
        4  1    3    3  502    0 0.78115830E+02 -.27116414E+03 -.24747616E+02 0.28327887E+03 0.15500000E+01 0.0000E+00 0.9000E+01
       -3  1    3    3    0  502 0.92231164E+01 -.25584620E+03 -.67482674E+02 0.26475744E+03 0.50000000E+00 0.0000E+00 0.9000E+01
       21  1    1    2  501  503 0.14161306E+03 0.22075762E+02 -.43045273E+01 0.14339000E+03 0.75000000E+00 0.0000E+00 0.9000E+01
#aMCatNLO 2  0  0  1  1 0.10409833D+02 0.00000000D+00  -5  6  0 0.00000000D+00 0.00000000D+00 0.00000000D+00 0.00000000D+00 0.00000000D+00
  <mgrwgt>
 0.1839928030D-03    1    2    0
 0.607879714383978D+03 0.000000000000000D+00 0.000000000000000D+00 0.607879714383978D+03
 0.607879714383978D+03 0.000000000000000D+00 0.000000000000000D+00 -.607879714383978D+03
 0.611645100691139D+03 -.157188140971294D+03 0.516121690424173D+03 -.259605504970823D+03
 0.331666906143803D+03 0.116241936005806D+03 -.265136109428925D+03 0.161844346276037D+03
 0.272447421933013D+03 0.409462049654879D+02 -.250985580995248D+03 0.977611586947864D+02
 0.000000000000000D+00 0.000000000000000D+00 0.000000000000000D+00 0.000000000000000D+00
 0.743141388961988D+03 0.000000000000000D+00 0.000000000000000D+00 0.743141388961988D+03
 0.651275070127940D+03 0.000000000000000D+00 0.000000000000000D+00 -.651275070127940D+03
 0.624818344626894D+03 -.228952011766596D+03 0.504934571879530D+03 -.259605504970823D+03
 0.325237983262449D+03 0.781154246344759D+02 -.271079570918361D+03 0.161844346276037D+03
 0.274122003923787D+03 0.922352217500650D+01 -.255930763146076D+03 0.977611586947864D+02
 0.170238127276798D+03 0.141613064957113D+03 0.220757621849073D+02 0.918663188340485D+02
0.225205083643D-04 0.000000000000D+00 0.000000000000D+00 0.198763988841D-03 0.610104191056D-07  6 -1 2 25 4 -3 21 2 0.60668385D-01 0.18881946D+00 0.39053999D+06 0.39053999D+06 0.39053999D+06 0.10761778D+01  1  2  1  1  6  1       -1 0.183992802977D-03 0.100000000000D+01
  </mgrwgt>
  </event>
  <event>
  6     66 0.18082911E-05 0.73417404E+02 0.75467711E-02 0.94911919E-01
       -1 -1    0    0    0  501 0.00000000E+00 0.00000000E+00 0.16123607E+03 0.16123639E+03 0.32000000E+00 0.0000E+00 0.9000E+01
        2 -1    0    0  501    0 -.00000000E+00 -.00000000E+00 -.17391230E+04 0.17391230E+04 0.32000000E+00 0.0000E+00 0.9000E+01
       25  1    1    2    0    0 0.54311234E+02 0.47164416E+03 -.42925309E+03 0.65213583E+03 0.12500000E+03 0.0000E+00 0.9000E+01
        4  1    1    2  502    0 -.57560735E+02 -.19808626E+03 -.53270206E+03 0.57124888E+03 0.15500000E+01 0.0000E+00 0.9000E+01
       -3  1    1    2    0  503 0.12536002E+02 -.26497375E+03 -.60349067E+03 0.65921884E+03 0.50000000E+00 0.0000E+00 0.9000E+01
       21  1    1    2  503  502 -.92865005E+01 -.85841570E+01 -.12441101E+02 0.17755854E+02 0.75000000E+00 0.0000E+00 0.9000E+01
#aMCatNLO 2  0  0  5  1 0.32632481D+01 0.00000000D+00  -5  6  0 0.00000000D+00 0.00000000D+00 0.00000000D+00 0.00000000D+00 0.00000000D+00
  <mgrwgt>
 0.4643012722D-02    1    2    0
 0.529537238941767D+03 0.000000000000000D+00 0.000000000000000D+00 0.529537238941767D+03
 0.529537238941767D+03 -.000000000000000D+00 -.000000000000000D+00 -.529537238941767D+03
 0.534006020477270D+03 0.542720218464571D+02 0.474945226360581D+03 0.202531502507548D+03
 0.229861295790962D+03 -.575936365478435D+02 -.196597274069821D+03 -.104253058277494D+03
 0.295207161615302D+03 0.332161470138636D+01 -.278347952290759D+03 -.982784442300538D+02
 0.000000000000000D+00 0.000000000000000D+00 -.000000000000000D+00 0.000000000000000D+00
 0.529537238941767D+03 0.000000000000000D+00 0.000000000000000D+00 0.529537238941767D+03
 0.529537238941767D+03 -.000000000000000D+00 -.000000000000000D+00 -.529537238941767D+03
 0.530622223192009D+03 0.543115383862069D+02 0.471633780299004D+03 0.201362304874136D+03
 0.231314026876494D+03 -.575765187857719D+02 -.198031725217463D+03 -.104759530935023D+03
 0.283807373524373D+03 0.125821482762576D+02 -.265020968106553D+03 -.100758132552279D+03
 0.133308542906592D+02 -.931716787669267D+01 -.858108697498731D+01 0.415535861316627D+01
0.216415379015D-03 0.000000000000D+00 0.000000000000D+00 0.611898679231D-04 0.422464886225D-05  6 -1 2 25 4 -3 21 2 0.24805576D-01 0.26755741D+00 0.23772891D+06 0.23772891D+06 0.23772891D+06 0.10921073D+01  1  2  1  4  6  5       -3 0.464301272153D-02 0.100000000000D+01
  </mgrwgt>
  </event>
  <event>
  7     66 0.18082911E-05 0.70738797E+02 0.75467711E-02 0.95082019E-01
       -1 -1    0    0    0  503 0.00000000E+00 0.00000000E+00 0.16875551E+03 0.16875581E+03 0.32000000E+00 0.0000E+00 0.9000E+01
        2 -1    0    0  501    0 0.00000000E+00 0.00000000E+00 -.25282510E+04 0.25282510E+04 0.32000000E+00 0.0000E+00 0.9000E+01
       24  2    1    2    0    0 -.27435257E+03 0.37944845E+03 -.80775908E+03 0.93695698E+03 0.78505963E+02 0.0000E+00 0.0000E+00
       25  1    1    2    0    0 0.25976694E+03 -.37380438E+03 -.16213635E+04 0.16886839E+04 0.12500000E+03 0.0000E+00 0.9000E+01
        4  1    3    3  502    0 -.16427085E+03 0.16978973E+03 -.44327949E+03 0.50230725E+03 0.15500000E+01 0.0000E+00 0.9000E+01
       -3  1    3    3    0  502 -.11008172E+03 0.20965871E+03 -.36447959E+03 0.43464972E+03 0.50000000E+00 0.0000E+00 0.9000E+01
       21  1    1    2  501  503 0.14585630E+02 -.56440643E+01 0.69627141E+02 0.71365940E+02 0.75000000E+00 0.0000E+00 0.9000E+01
#aMCatNLO 2  0  0  1  1 0.61985367D+02 0.00000000D+00  -5  6  0 0.00000000D+00 0.00000000D+00 0.00000000D+00 0.00000000D+00 0.00000000D+00
  <mgrwgt>
 0.6124379176D-02    1    2    0
 0.498274196831601D+03 0.000000000000000D+00 0.000000000000000D+00 0.498274196831601D+03
 0.498274196831601D+03 0.000000000000000D+00 0.000000000000000D+00 -.498274196831601D+03
 0.503021489580137D+03 0.267085023986282D+03 -.376636191452440D+03 -.155616156712174D+03
 0.239481506477223D+03 -.160705315435528D+03 0.168349168930698D+03 0.564247362041760D+02
 0.254045397605842D+03 -.106379708550754D+03 0.208287022521742D+03 0.991914205079980D+02
 0.000000000000000D+00 0.000000000000000D+00 -.000000000000000D+00 0.000000000000000D+00
 0.855868411301333D+03 0.000000000000000D+00 0.000000000000000D+00 0.855868411301333D+03
 0.498506584345820D+03 0.000000000000000D+00 0.000000000000000D+00 -.498506584345820D+03
 0.497041213593530D+03 0.259766941520989D+03 -.373804381827570D+03 -.155616156712174D+03
 0.242816567361348D+03 -.164234591215939D+03 0.169714859625110D+03 0.564247362041760D+02
 0.256813326773287D+03 -.110117980422364D+03 0.209733586470238D+03 0.991914205079980D+02
 0.357703887918988D+03 0.145856301173139D+02 -.564406426777696D+01 0.357361826955513D+03
0.841081953075D-03 0.000000000000D+00 0.000000000000D+00 0.693185514808D-04 0.208702580686D-05  6 -1 2 25 4 -3 21 2 0.25962390D-01 0.38896141D+00 0.23075824D+06 0.23075824D+06 0.23075824D+06 0.10930855D+01  1  2  1  1  6  1       -1 0.612437917575D-02 0.100000000000D+01
  </mgrwgt>
  </event>
  <event>
  7     66 0.18082911E-05 0.25003944E+02 0.75467711E-02 0.93514360E-01
       -1 -1    0    0    0  501 0.00000000E+00 0.00000000E+00 0.82733665E+03 0.82733671E+03 0.32000000E+00 0.0000E+00 0.9000E+01
        2 -1    0    0  503    0 0.00000000E+00 0.00000000E+00 -.71448070E+03 0.71448077E+03 0.32000000E+00 0.0000E+00 0.9000E+01
       24  2    1    2    0    0 -.45853006E+03 -.28546126E+03 0.49860031E+03 0.73946557E+03 0.80430742E+02 0.0000E+00 0.0000E+00
       25  1    1    2    0    0 0.41349595E+03 0.28287705E+03 -.11647518E+03 0.52932957E+03 0.12500000E+03 0.0000E+00 0.9000E+01
        4  1    3    3  502    0 -.10187394E+03 -.38148395E+02 0.69231863E+02 0.12895368E+03 0.15500000E+01 0.0000E+00 0.9000E+01
       -3  1    3    3    0  502 -.35665613E+03 -.24731287E+03 0.42936845E+03 0.61051188E+03 0.50000000E+00 0.0000E+00 0.9000E+01
       21  1    1    2  503  501 0.45034111E+02 0.25842164E+01 -.26926918E+03 0.27302235E+03 0.75000000E+00 0.0000E+00 0.9000E+01
#aMCatNLO 2  0  0  2  1 0.17613369D+03 0.00000000D+00  -5  6  0 0.00000000D+00 0.00000000D+00 0.00000000D+00 0.00000000D+00 0.00000000D+00
  <mgrwgt>
 0.8111662761D-03    1    2    0
 0.604521863341950D+03 0.000000000000000D+00 0.000000000000000D+00 0.604521863341950D+03
 0.604521863341950D+03 0.000000000000000D+00 0.000000000000000D+00 -.604521863341950D+03
 0.608308283802060D+03 0.435840498598324D+03 0.284159255917324D+03 -.289327747027975D+03
 0.109391137437027D+03 -.976016051072721D+02 -.378201982457864D+02 0.317801861998947D+02
 0.491344305444813D+03 -.338238893491052D+03 -.246339057671537D+03 0.257547560828081D+03
 0.000000000000000D+00 0.000000000000000D+00 0.000000000000000D+00 -.000000000000000D+00
 0.606317338533962D+03 0.000000000000000D+00 0.000000000000000D+00 0.606317338533962D+03
 0.974927478637148D+03 0.000000000000000D+00 0.000000000000000D+00 -.974927478637148D+03
 0.591890082933102D+03 0.413495950969891D+03 0.282877046799092D+03 -.289327747027975D+03
 0.113183518443903D+03 -.101745361787047D+03 -.380579816499033D+02 0.317801861998947D+02
 0.504811303201706D+03 -.356784699800789D+03 -.247403281586505D+03 0.257547560828081D+03
 0.371359912592399D+03 0.450341106179449D+02 0.258421643731637D+01 -.368610140103186D+03
0.224524917984D-03 0.000000000000D+00 0.000000000000D+00 0.185827723565D-03 0.629980299727D-06  6 -1 2 25 4 -3 21 2 0.12728249D+00 0.10992005D+00 0.30484996D+06 0.30484996D+06 0.30484996D+06 0.10840369D+01  1  2  1  2  6  2        2 0.811166276069D-03 0.100000000000D+01
  </mgrwgt>
  </event>
  <event>
  7     66 0.18082911E-05 0.70272728E+02 0.75467711E-02 0.93455182E-01
       -1 -1    0    0    0  503 0.00000000E+00 0.00000000E+00 0.69051906E+03 0.69051913E+03 0.32000000E+00 0.0000E+00 0.9000E+01
        2 -1    0    0  501    0 0.00000000E+00 0.00000000E+00 -.15871649E+04 0.15871649E+04 0.32000000E+00 0.0000E+00 0.9000E+01
       24  2    1    2    0    0 0.43332459E+03 0.31362889E+03 -.51646341E+03 0.74767524E+03 0.78425275E+02 0.0000E+00 0.0000E+00
       25  1    1    2    0    0 -.44284540E+03 -.31776709E+03 -.87318216E+03 0.10368992E+04 0.12500000E+03 0.0000E+00 0.9000E+01
        4  1    3    3  502    0 0.18456383E+03 0.18177592E+03 -.25172176E+03 0.36120983E+03 0.15500000E+01 0.0000E+00 0.9000E+01
       -3  1    3    3    0  502 0.24876076E+03 0.13185297E+03 -.26474165E+03 0.38646541E+03 0.50000000E+00 0.0000E+00 0.9000E+01
       21  1    1    2  501  503 0.95208073E+01 0.41382051E+01 0.49299972E+03 0.49310958E+03 0.75000000E+00 0.0000E+00 0.9000E+01
#aMCatNLO 2  0  0  1  2 0.97296026D+02 0.00000000D+00  -5  6  0 0.00000000D+00 0.00000000D+00 0.00000000D+00 0.00000000D+00 0.00000000D+00
  <mgrwgt>
 0.1201053963D-01    1    2    0
 0.559795389804912D+03 0.000000000000000D+00 0.000000000000000D+00 0.559795389804912D+03
 0.559795389804912D+03 0.000000000000000D+00 0.000000000000000D+00 -.559795389804912D+03
 0.564026612746267D+03 -.438028213087210D+03 -.315673311976723D+03 -.104798208626387D+03
 0.265450955007315D+03 0.186721853024263D+03 0.182708755355865D+03 0.470815232739103D+02
 0.290113211856243D+03 0.251306360062947D+03 0.132964556620858D+03 0.577166853524767D+02
 0.000000000000000D+00 0.000000000000000D+00 0.000000000000000D+00 0.000000000000000D+00
 0.195764830379213D+04 0.000000000000000D+00 0.000000000000000D+00 0.195764830379213D+04
 0.559838728624370D+03 0.000000000000000D+00 0.000000000000000D+00 -.559838728624370D+03
 0.568942559636513D+03 -.442845396960419D+03 -.317767093994039D+03 -.104798208626387D+03
 0.263199191767608D+03 0.184474126410257D+03 0.181731784227479D+03 0.470815232739103D+02
 0.287497156592692D+03 0.248850463274476D+03 0.131897104626617D+03 0.577166853524767D+02
 0.139784812441969D+04 0.952080727568592D+01 0.413820513994304D+01 0.139780957516776D+04
0.726720424797D-02 0.000000000000D+00 0.000000000000D+00 0.603669311294D-04 0.662004287450D-05  6 -1 2 25 4 -3 21 2 0.10623369D+00 0.24417918D+00 0.30812866D+06 0.30812866D+06 0.30812866D+06 0.10836939D+01  1  2  1  1  6  1       -1 0.120105396269D-01 0.100000000000D+01
  </mgrwgt>
  </event>
  <event>
  7     66 0.18082911E-05 0.10412286E+03 0.75467711E-02 0.89102302E-01
       -1 -1    0    0    0  501 0.00000000E+00 0.00000000E+00 0.11126321E+04 0.11126322E+04 0.32000000E+00 0.0000E+00 0.9000E+01
        2 -1    0    0  503    0 0.00000000E+00 0.00000000E+00 -.23400233E+04 0.23400234E+04 0.32000000E+00 0.0000E+00 0.9000E+01
       24  2    1    2    0    0 0.29299353E+03 0.63807748E+03 -.82520139E+03 0.10864891E+04 0.80704054E+02 0.0000E+00 0.0000E+00
       25  1    1    2    0    0 -.38491260E+03 -.73557385E+03 0.79813138E+03 0.11583891E+04 0.12500000E+03 0.0000E+00 0.9000E+01
        4  1    3    3  502    0 0.12995250E+03 0.21303970E+03 -.25411253E+03 0.35615888E+03 0.15500000E+01 0.0000E+00 0.9000E+01
       -3  1    3    3    0  502 0.16304103E+03 0.42503777E+03 -.57108886E+03 0.73033021E+03 0.50000000E+00 0.0000E+00 0.9000E+01
       21  1    1    2  503  501 0.91919078E+02 0.97496370E+02 -.12003212E+04 0.12077774E+04 0.75000000E+00 0.0000E+00 0.9000E+01
#aMCatNLO 2  0  0  2  1 0.17613369D+03 0.00000000D+00  -5  6  0 0.00000000D+00 0.00000000D+00 0.00000000D+00 0.00000000D+00 0.00000000D+00
  <mgrwgt>
 0.2804062290D-02    1    2    0
 0.112035604128950D+04 0.000000000000000D+00 0.000000000000000D+00 0.112035604128950D+04
 0.112035604128950D+04 0.000000000000000D+00 0.000000000000000D+00 -.112035604128950D+04
 0.112238929127670D+04 -.337974038973611D+03 -.685787232229930D+03 0.812158939040188D+03
 0.368089118274848D+03 0.144671750136897D+03 0.228561914782521D+03 -.249638007554199D+03
 0.750233673027452D+03 0.193302288836714D+03 0.457225317447409D+03 -.562520931485990D+03
 0.000000000000000D+00 0.000000000000000D+00 0.000000000000000D+00 -.000000000000000D+00
 0.112613068835408D+04 0.000000000000000D+00 0.000000000000000D+00 0.112613068835408D+04
 0.231197390555401D+04 0.000000000000000D+00 0.000000000000000D+00 -.231197390555401D+04
 0.116809834342247D+04 -.384912604257658D+03 -.735573847228826D+03 0.812158939040188D+03
 0.352866889668577D+03 0.129897323882366D+03 0.212891033763626D+03 -.249638007554199D+03
 0.723749736784732D+03 0.163096202822127D+03 0.425186443529315D+03 -.562520931485990D+03
 0.119338962403231D+04 0.919190775531655D+02 0.974963699358841D+02 -.118584321719993D+04
0.180490630652D-01 0.000000000000D+00 0.000000000000D+00 0.995312840845D-04 0.390539293557D-07  6 -1 2 25 4 -3 21 2 0.17117416D+00 0.36000356D+00 0.70420182D+06 0.70420182D+06 0.70420182D+06 0.10581553D+01  1  2  1  2  6  2        2 0.280406228960D-02 0.100000000000D+01
  </mgrwgt>
  </event>
  <event>
  7     66 0.18082911E-05 0.21615579E+02 0.75467711E-02 0.89511435E-01
       -1 -1    0    0    0  501 0.00000000E+00 0.00000000E+00 0.60698913E+03 0.60698922E+03 0.32000000E+00 0.0000E+00 0.9000E+01
        2 -1    0    0  503    0 0.00000000E+00 0.00000000E+00 -.14154841E+04 0.14154841E+04 0.32000000E+00 0.0000E+00 0.9000E+01
       24  2    1    2    0    0 0.66830339E+03 0.39308173E+03 -.16891867E+03 0.79750573E+03 0.79619118E+02 0.0000E+00 0.0000E+00
       25  1    1    2    0    0 -.69330521E+03 -.39616720E+03 -.26649740E+03 0.85103844E+03 0.12500000E+03 0.0000E+00 0.9000E+01
        4  1    3    3  502    0 0.55394806E+03 0.35354569E+03 -.12603990E+03 0.66913486E+03 0.15500000E+01 0.0000E+00 0.9000E+01
       -3  1    3    3    0  502 0.11435533E+03 0.39536040E+02 -.42878771E+02 0.12837087E+03 0.50000000E+00 0.0000E+00 0.9000E+01
       21  1    1    2  503  501 0.25001816E+02 0.30854665E+01 -.37307888E+03 0.37392917E+03 0.75000000E+00 0.0000E+00 0.9000E+01
#aMCatNLO 2  0  0  2  1 0.17613369D+03 0.00000000D+00  -5  6  0 0.00000000D+00 0.00000000D+00 0.00000000D+00 0.00000000D+00 0.00000000D+00
  <mgrwgt>
 0.8763264061D-03    1    2    0
 0.794901897135655D+03 0.000000000000000D+00 0.000000000000000D+00 0.794901897135655D+03
 0.794901897135655D+03 0.000000000000000D+00 0.000000000000000D+00 -.794901897135655D+03
 0.797822319165977D+03 -.680668182996230D+03 -.394607666411481D+03 -.432558345807061D+02
 0.668715733633234D+03 0.564367823861367D+03 0.354833207365431D+03 0.525650715721068D+02
 0.123265741472098D+03 0.116300359134863D+03 0.397744590460498D+02 -.930923699140069D+01
 0.000000000000000D+00 0.000000000000000D+00 0.000000000000000D+00 -.000000000000000D+00
 0.795558414804916D+03 0.000000000000000D+00 0.000000000000000D+00 0.795558414804916D+03
 0.107997414230132D+04 0.000000000000000D+00 0.000000000000000D+00 -.107997414230132D+04
 0.809392750044870D+03 -.693305205660804D+03 -.396167197536034D+03 -.432558345807061D+02
 0.659235578092338D+03 0.553926563606157D+03 0.353544654612162D+03 0.525650715721068D+02
 0.121375041412342D+03 0.114376826200651D+03 0.395370764315185D+02 -.930923699140069D+01
 0.285529187556686D+03 0.250018158539963D+02 0.308546649235318D+01 -.284415727496404D+03
0.347576597332D-03 0.000000000000D+00 0.000000000000D+00 0.806345985815D-04 0.797864373657D-06  6 -1 2 25 4 -3 21 2 0.93382895D-01 0.21776666D+00 0.64929884D+06 0.64929884D+06 0.64929884D+06 0.10605819D+01  1  2  1  2  6  2        2 0.876326406132D-03 0.100000000000D+01
  </mgrwgt>
  </event>
  <event>
  7     66 0.18082911E-05 0.82602747E+02 0.75467711E-02 0.93352661E-01
       -1 -1    0    0    0  501 0.00000000E+00 0.00000000E+00 0.17034690E+03 0.17034720E+03 0.32000000E+00 0.0000E+00 0.9000E+01
        2 -1    0    0  503    0 0.00000000E+00 0.00000000E+00 -.18980227E+04 0.18980228E+04 0.32000000E+00 0.0000E+00 0.9000E+01
       24  2    1    2    0    0 -.39620148E+02 0.54273981E+03 -.88405136E+03 0.10426055E+04 0.96659647E+02 0.0000E+00 0.0000E+00
       25  1    1    2    0    0 0.21495382E+02 -.54315472E+03 -.77540934E+03 0.95517734E+03 0.12500000E+03 0.0000E+00 0.9000E+01
        4  1    3    3  502    0 -.29993789E+02 0.25748221E+03 -.33281549E+03 0.42185930E+03 0.15500000E+01 0.0000E+00 0.9000E+01
       -3  1    3    3    0  502 -.96263587E+01 0.28525760E+03 -.55123587E+03 0.62074617E+03 0.50000000E+00 0.0000E+00 0.9000E+01
       21  1    1    2  503  501 0.18124766E+02 0.41491039E+00 -.68215140E+02 0.70587160E+02 0.75000000E+00 0.0000E+00 0.9000E+01
#aMCatNLO 2  0  0  2  1 0.17613369D+03 0.00000000D+00  -5  6  0 0.00000000D+00 0.00000000D+00 0.00000000D+00 0.00000000D+00 0.00000000D+00
  <mgrwgt>
 0.4216333643D-03    1    2    0
 0.556101977022880D+03 0.000000000000000D+00 0.000000000000000D+00 0.556101977022880D+03
 0.556101977022880D+03 0.000000000000000D+00 0.000000000000000D+00 -.556101977022880D+03
 0.558926075781631D+03 0.306013747573991D+02 -.542946285239330D+03 0.323457168172673D+02
 0.260722243591344D+03 -.257406620640417D+02 0.257513056605088D+03 0.316311918478209D+02
 0.292555634672784D+03 -.486071269335732D+01 0.285433228634242D+03 -.639769086650882D+02
 0.000000000000000D+00 0.000000000000000D+00 0.000000000000000D+00 -.000000000000000D+00
 0.560069674835711D+03 0.000000000000000D+00 0.000000000000000D+00 0.560069674835711D+03
 0.577278463084077D+03 0.000000000000000D+00 0.000000000000000D+00 -.577278463084077D+03
 0.558704185661285D+03 0.214953824277344D+02 -.543154738737777D+03 0.323457168172673D+02
 0.261080289863466D+03 -.299920947884068D+02 0.257415733217068D+03 0.316311918478209D+02
 0.292567229055127D+03 -.962805346143826D+01 0.285324095129027D+03 -.639769086650882D+02
 0.249964333399103D+02 0.181247658221107D+02 0.414910391682051D+00 -.172087882483661D+02
0.269801905954D-04 0.000000000000D+00 0.000000000000D+00 0.647655409639D-06 0.123385272685D-07  6 -1 2 25 4 -3 21 2 0.26206978D-01 0.29200060D+00 0.31390256D+06 0.31390256D+06 0.31390256D+06 0.10830993D+01  1  2  1  2  6  2        2 0.421633364318D-03 0.100000000000D+01
  </mgrwgt>
  </event>
  <event>
  6     66 0.18082911E-05 0.15694002E+02 0.75467711E-02 0.95324769E-01
       -1 -1    0    0    0  501 0.00000000E+00 0.00000000E+00 0.16971946E+03 0.16971976E+03 0.32000000E+00 0.0000E+00 0.9000E+01
        2 -1    0    0  501    0 0.00000000E+00 0.00000000E+00 -.13479875E+04 0.13479876E+04 0.32000000E+00 0.0000E+00 0.9000E+01
       24  2    1    2    0    0 -.78082878E+02 0.45532245E+03 -.47049894E+03 0.66332005E+03 0.72171793E+02 0.0000E+00 0.0000E+00
       25  1    1    2    0    0 0.78082878E+02 -.45532245E+03 -.70776913E+03 0.85438727E+03 0.12500000E+03 0.0000E+00 0.9000E+01
        4  1    3    3  502    0 -.17220464E+01 0.21845262E+02 -.49894559E+02 0.54516515E+02 0.15500000E+01 0.0000E+00 0.9000E+01
       -3  1    3    3    0  502 -.76360832E+02 0.43347719E+03 -.42060438E+03 0.60880353E+03 0.50000000E+00 0.0000E+00 0.9000E+01
#aMCatNLO 1  0  0  1  2 0.25837792D+02 0.00000000D+00  -5  6  0 0.00000000D+00 0.00000000D+00 0.00000000D+00 0.00000000D+00 0.00000000D+00
  <mgrwgt>
 0.2544374144D-02    7    4    0
 0.478309490979874D+03 0.000000000000000D+00 0.000000000000000D+00 0.478309490979874D+03
 0.478309490979874D+03 0.000000000000000D+00 0.000000000000000D+00 -.478309490979874D+03
 0.483753786407793D+03 0.780828784582577D+02 -.455322451189957D+03 -.705496661786480D+02
 0.248316133626024D+02 -.168688883510957D+01 0.216462621999612D+02 -.120500108306294D+02
 0.448033582189353D+03 -.763959896231482D+02 0.433676188989996D+03 0.825996770092774D+02
 0.000000000000000D+00 -.000000000000000D+00 -.000000000000000D+00 0.000000000000000D+00
 0.653174866424512D+03 0.000000000000000D+00 0.000000000000000D+00 0.653174866424512D+03
 0.622277011402313D+03 0.000000000000000D+00 0.000000000000000D+00 -.622277011402313D+03
 0.442692248901293D+03 0.183552683082026D+03 -.376407471196781D+03 -.705496661786480D+02
 0.292280740712389D+02 0.446745200544136D+01 0.262510842723614D+02 -.120500108306294D+02
 0.524174761454363D+03 0.342835536526674D+02 0.516489217557004D+03 0.825996770092774D+02
 0.279356793399930D+03 -.222303688740134D+03 -.166332830632584D+03 0.308978550221986D+02
 0.478309490979874D+03 0.000000000000000D+00 0.000000000000000D+00 0.478309490979874D+03
 0.478309490979874D+03 0.000000000000000D+00 0.000000000000000D+00 -.478309490979874D+03
 0.483753786407793D+03 0.780828784582577D+02 -.455322451189957D+03 -.705496661786480D+02
 0.248316133626024D+02 -.168688883510957D+01 0.216462621999612D+02 -.120500108306294D+02
 0.000000000000000D+00 -.000000000000000D+00 -.000000000000000D+00 0.000000000000000D+00
 0.448033582189353D+03 -.763959896231482D+02 0.433676188989996D+03 0.825996770092774D+02
 0.653174866424512D+03 0.000000000000000D+00 0.000000000000000D+00 0.653174866424512D+03
 0.622277011402313D+03 0.000000000000000D+00 0.000000000000000D+00 -.622277011402313D+03
 0.442692248901293D+03 0.183552683082026D+03 -.376407471196781D+03 -.705496661786480D+02
 0.292280740712389D+02 0.446745200544136D+01 0.262510842723614D+02 -.120500108306294D+02
 0.279356793399930D+03 -.222303688740134D+03 -.166332830632584D+03 0.308978550221986D+02
 0.524174761454363D+03 0.342835536526674D+02 0.516489217557004D+03 0.825996770092774D+02
0.577451346248D-04 0.000000000000D+00 0.000000000000D+00 0.169164300930D-05 0.000000000000D+00  6 -1 2 25 4 -3 21 0 0.26110712D-01 0.20738272D+00 0.22120435D+06 0.22120435D+06 0.22120435D+06 0.10944800D+01  1  2  2  1  6  1       -1 0.156566686353D-02 0.100000000000D+01
0.198273633379D-04 0.000000000000D+00 -.221756521602D-06 0.169164300930D-05 0.000000000000D+00  6 -1 2 25 4 -3 21 2 0.26110712D-01 0.20738272D+00 0.22120435D+06 0.22120435D+06 0.22120435D+06 0.10944800D+01  1  2  3  1  6  1       -1 0.643968392288D-03 0.100000000000D+01
-.180468008451D-04 0.000000000000D+00 0.000000000000D+00 0.169164300930D-05 0.000000000000D+00  6 -1 2 25 4 -3 21 2 0.26110712D-01 0.20738272D+00 0.22120435D+06 0.22120435D+06 0.22120435D+06 0.10944800D+01  1  2 15  1  6  1       -1 -.586137910931D-03 0.100000000000D+01
-.110681837533D-05 0.000000000000D+00 0.000000000000D+00 0.169164300930D-05 0.000000000000D+00  6 -1 2 25 4 -3 21 2 0.26110712D-01 0.20738272D+00 0.22120435D+06 0.22120435D+06 0.22120435D+06 0.10944800D+01  1  2  4  1  6  1       -1 -.359481004897D-04 0.100000000000D+01
-.327814868987D-04 0.000000000000D+00 -.258269039806D-04 0.169164300930D-05 0.000000000000D+00  6 -1 2 25 4 -3 21 2 0.46784467D-01 0.20738272D+00 0.22120435D+06 0.22120435D+06 0.22120435D+06 0.10944800D+01  1  2  5  1  6  1       -1 -.390687579845D-03 0.100000000000D+01
0.439931635539D-04 0.000000000000D+00 0.219814721403D-04 0.169164300930D-05 0.000000000000D+00  6 -1 2 25 4 -3 21 2 0.26110712D-01 0.20738272D+00 0.22120435D+06 0.22120435D+06 0.22120435D+06 0.10944800D+01  1  2  6  1  6  1       -1 0.142884388220D-02 0.100000000000D+01
-.735595690732D-06 0.000000000000D+00 -.165369261455D-05 0.169164300930D-05 0.000000000000D+00  6 21 2 25 4 1 -3 2 0.46784467D-01 0.20738272D+00 0.22120435D+06 0.22120435D+06 0.22120435D+06 0.10944800D+01  3  4  5  5  5  1       -1 -.813314030828D-04 0.100000000000D+01
  </mgrwgt>
  </event>
  <event>
  7     66 0.18082911E-05 0.48784028E+02 0.75467711E-02 0.86817474E-01
       -1 -1    0    0    0  501 0.00000000E+00 0.00000000E+00 0.63449169E+03 0.63449178E+03 0.32000000E+00 0.0000E+00 0.9000E+01
        2 -1    0    0  503    0 0.00000000E+00 0.00000000E+00 -.19473483E+04 0.19473483E+04 0.32000000E+00 0.0000E+00 0.9000E+01
       24  2    1    2    0    0 0.74833335E+03 -.72938292E+03 -.49492370E+03 0.11592671E+04 0.83357438E+02 0.0000E+00 0.0000E+00
       25  1    1    2    0    0 -.76133285E+03 0.70798096E+03 -.60738439E+03 0.12105394E+04 0.12500000E+03 0.0000E+00 0.9000E+01
        4  1    3    3  502    0 0.45934056E+03 -.50265889E+03 -.32766327E+03 0.75566218E+03 0.15500000E+01 0.0000E+00 0.9000E+01
       -3  1    3    3    0  502 0.28899279E+03 -.22672402E+03 -.16726043E+03 0.40360490E+03 0.50000000E+00 0.0000E+00 0.9000E+01
       21  1    1    2  503  501 0.12999508E+02 0.21401956E+02 -.21054851E+03 0.21203365E+03 0.75000000E+00 0.0000E+00 0.9000E+01
#aMCatNLO 2  0  0  2  1 0.17613369D+03 0.00000000D+00  -5  6  0 0.00000000D+00 0.00000000D+00 0.00000000D+00 0.00000000D+00 0.00000000D+00
  <mgrwgt>
 0.1243182595D-02    1    2    0
 0.104884131671357D+04 0.000000000000000D+00 0.000000000000000D+00 0.104884131671357D+04
 0.104884131671357D+04 0.000000000000000D+00 0.000000000000000D+00 -.104884131671357D+04
 0.105090944120799D+04 -.754828508866288D+03 0.718689496008552D+03 -.500498166806429D+02
 0.679123305961420D+03 0.463472485643940D+03 -.495658554295771D+03 0.269131437112465D+02
 0.367649886257733D+03 0.291356023222348D+03 -.223030941712780D+03 0.231366729693964D+02
 0.000000000000000D+00 0.000000000000000D+00 0.000000000000000D+00 -.000000000000000D+00
 0.105014397777740D+04 0.000000000000000D+00 0.000000000000000D+00 0.105014397777740D+04
 0.117657570676951D+04 0.000000000000000D+00 0.000000000000000D+00 -.117657570676951D+04
 0.104832949857463D+04 -.761332853326835D+03 0.707980960109229D+03 -.500498166806429D+02
 0.681356553855164D+03 0.459257134321998D+03 -.502598568194647D+03 0.269131437112465D+02
 0.368146033681131D+03 0.289076211227034D+03 -.226784348184964D+03 0.231366729693964D+02
 0.128887598435996D+03 0.129995077778038D+02 0.214019562703824D+02 -.126431728992108D+03
0.114683850058D-02 0.000000000000D+00 0.000000000000D+00 0.282080309981D-04 0.263423069594D-06  6 -1 2 25 4 -3 21 2 0.97614014D-01 0.29959174D+00 0.11240429D+07 0.11240429D+07 0.11240429D+07 0.10445001D+01  1  2  1  2  6  2        2 0.124318259500D-02 0.100000000000D+01
  </mgrwgt>
  </event>
  <event>
  7     66 0.18082911E-05 0.30097488E+02 0.75467711E-02 0.94718246E-01
       21 -1    0    0  503  501 0.00000000E+00 0.00000000E+00 0.15423654E+03 0.15423837E+03 0.75000000E+00 0.0000E+00 0.9000E+01
        2 -1    0    0  501    0 0.00000000E+00 0.00000000E+00 -.18494603E+04 0.18494603E+04 0.32000000E+00 0.0000E+00 0.9000E+01
       24  2    1    2    0    0 -.36347272E+03 -.27447196E+03 -.54646898E+03 0.71583115E+03 0.79615474E+02 0.0000E+00 0.0000E+00
       25  1    1    2    0    0 0.34865022E+03 0.31866996E+03 -.11401886E+04 0.12404686E+04 0.12500000E+03 0.0000E+00 0.9000E+01
        4  1    3    3  502    0 -.24126823E+03 -.20132639E+03 -.42556909E+03 0.52901241E+03 0.15500000E+01 0.0000E+00 0.9000E+01
        1  1    1    2  503    0 0.14822498E+02 -.44197996E+02 -.85661835E+01 0.47398852E+02 0.32000000E+00 0.0000E+00 0.9000E+01
       -3  1    3    3    0  502 -.12220448E+03 -.73145570E+02 -.12089988E+03 0.18681874E+03 0.50000000E+00 0.0000E+00 0.9000E+01
#aMCatNLO 2  0  0  1  2 0.25837792D+02 0.00000000D+00  -5  6  0 0.00000000D+00 0.00000000D+00 0.00000000D+00 0.00000000D+00 0.00000000D+00
  <mgrwgt>
 0.5589053070D-03    1    2    0
 0.495005579639944D+03 0.000000000000000D+00 0.000000000000000D+00 0.495005579639944D+03
 0.495005579639944D+03 0.000000000000000D+00 0.000000000000000D+00 -.495005579639944D+03
 0.499695615859689D+03 0.356190719550460D+03 0.296185553468008D+03 -.139545683316858D+03
 0.325643305832630D+03 -.236401437803344D+03 -.215708718134804D+03 0.602301565559553D+02
 0.000000000000000D+00 0.000000000000000D+00 -.000000000000000D+00 0.000000000000000D+00
 0.164672237587570D+03 -.119789281747116D+03 -.804768353332044D+02 0.793155267609029D+02
 0.566921159420050D+03 0.000000000000000D+00 0.000000000000000D+00 0.566921159420050D+03
 0.503166692755533D+03 0.000000000000000D+00 0.000000000000000D+00 -.503166692755533D+03
 0.508139265896404D+03 0.348650218960071D+03 0.318669955647630D+03 -.139545683316858D+03
 0.319913449288890D+03 -.241231416583838D+03 -.201306599320824D+03 0.602301565559553D+02
 0.789797527142592D+02 0.148224984177378D+02 -.441979961059860D+02 0.637544666645165D+02
 0.163055384276030D+03 -.122241300793970D+03 -.731653602208202D+02 0.793155267609029D+02
0.245654712942D-05 0.000000000000D+00 0.000000000000D+00 0.192678603217D-03 0.122333778072D-07  6 21 2 25 4 1 -3 2 0.23728826D-01 0.28453231D+00 0.24595490D+06 0.24595490D+06 0.24595490D+06 0.10909925D+01  1  2  1  5  5  1       -1 0.558905307007D-03 0.100000000000D+01
  </mgrwgt>
  </event>
  <event>
  7     66 0.18082911E-05 0.53985547E+02 0.75467711E-02 0.94021900E-01
       -1 -1    0    0    0  503 0.00000000E+00 0.00000000E+00 0.75876091E+03 0.75876097E+03 0.32000000E+00 0.0000E+00 0.9000E+01
        2 -1    0    0  501    0 0.00000000E+00 0.00000000E+00 -.47460185E+03 0.47460196E+03 0.32000000E+00 0.0000E+00 0.9000E+01
       24  2    1    2    0    0 -.48617769E+03 0.89639258E+02 -.13694518E+03 0.52034158E+03 0.87163278E+02 0.0000E+00 0.0000E+00
       25  1    1    2    0    0 0.49178189E+03 -.12684186E+03 0.34060027E+03 0.62415689E+03 0.12500000E+03 0.0000E+00 0.9000E+01
        4  1    3    3  502    0 -.20067915E+03 0.39302578E+02 -.10143502E+03 0.22827238E+03 0.15500000E+01 0.0000E+00 0.9000E+01
       -3  1    3    3    0  502 -.28549854E+03 0.50336680E+02 -.35510162E+02 0.29206920E+03 0.50000000E+00 0.0000E+00 0.9000E+01
       21  1    1    2  501  503 -.56042027E+01 0.37202598E+02 0.80503972E+02 0.88864461E+02 0.75000000E+00 0.0000E+00 0.9000E+01
#aMCatNLO 2  0  0  1  2 0.14516850D+02 0.00000000D+00  -5  6  0 0.00000000D+00 0.00000000D+00 0.00000000D+00 0.00000000D+00 0.00000000D+00
  <mgrwgt>
 0.4642834463D-03    1    2    0
 0.562802344280686D+03 0.000000000000000D+00 0.000000000000000D+00 0.562802344280686D+03
 0.562802344280686D+03 0.000000000000000D+00 0.000000000000000D+00 -.562802344280686D+03
 0.566368235673120D+03 0.488947092700318D+03 -.108023497461460D+03 0.233258746707563D+03
 0.252666136192666D+03 -.201847018317936D+03 0.475962789452000D+02 -.144334859979356D+03
 0.306570316695586D+03 -.287100074382382D+03 0.604272185162603D+02 -.889238867282070D+02
 0.000000000000000D+00 -.000000000000000D+00 0.000000000000000D+00 0.000000000000000D+00
 0.633858875295565D+03 0.000000000000000D+00 0.000000000000000D+00 0.633858875295565D+03
 0.568118734383342D+03 0.000000000000000D+00 0.000000000000000D+00 -.568118734383342D+03
 0.572689208068469D+03 0.491781892071115D+03 -.126841857261165D+03 0.233258746707563D+03
 0.250229154330964D+03 -.200595450839065D+03 0.392879494832859D+02 -.144334859979356D+03
 0.303314897335270D+03 -.285582238534426D+03 0.503513093009597D+02 -.889238867282070D+02
 0.757443499442032D+02 -.560420269762407D+01 0.372025984769197D+02 0.657401409122231D+02
0.635848232804D-04 0.000000000000D+00 0.000000000000D+00 0.663494141609D-05 0.297763387785D-07  6 -1 2 25 4 -3 21 2 0.11673208D+00 0.73015446D-01 0.27828198D+06 0.27828198D+06 0.27828198D+06 0.10869747D+01  1  2  1  1  6  1       -1 0.464283446325D-03 0.100000000000D+01
  </mgrwgt>
  </event>
  <event>
  7     66 0.18082911E-05 0.53959119E+02 0.75467711E-02 0.95493122E-01
       -1 -1    0    0    0  501 0.00000000E+00 0.00000000E+00 0.59173543E+03 0.59173552E+03 0.32000000E+00 0.0000E+00 0.9000E+01
        2 -1    0    0  503    0 0.00000000E+00 0.00000000E+00 -.46162235E+03 0.46162246E+03 0.32000000E+00 0.0000E+00 0.9000E+01
       24  2    1    2    0    0 -.10574683E+03 0.42321381E+03 -.29177389E+02 0.44438678E+03 0.79598772E+02 0.0000E+00 0.0000E+00
       25  1    1    2    0    0 0.10069821E+03 -.43968023E+03 0.24030228E+03 0.52614544E+03 0.12500000E+03 0.0000E+00 0.9000E+01
        4  1    3    3  502    0 -.72348324E+01 0.16800458E+03 -.30001929E+02 0.17082271E+03 0.15500000E+01 0.0000E+00 0.9000E+01
       -3  1    3    3    0  502 -.98512001E+02 0.25520923E+03 0.82454030E+00 0.27356406E+03 0.50000000E+00 0.0000E+00 0.9000E+01
       21  1    1    2  503  501 0.50486251E+01 0.16466421E+02 -.81011808E+02 0.82825764E+02 0.75000000E+00 0.0000E+00 0.9000E+01
#aMCatNLO 2  0  0  2  1 0.17613369D+03 0.00000000D+00  -5  6  0 0.00000000D+00 0.00000000D+00 0.00000000D+00 0.00000000D+00 0.00000000D+00
  <mgrwgt>
 0.8133932949D-02    1    2    0
 0.473566897291971D+03 0.000000000000000D+00 0.000000000000000D+00 0.473566897291971D+03
 0.473566897291971D+03 0.000000000000000D+00 0.000000000000000D+00 -.473566897291971D+03
 0.478470658365421D+03 0.103267176056767D+03 -.431301374241700D+03 0.128934812378663D+03
 0.184512318063181D+03 -.622205697026487D+01 0.171096672886557D+03 -.687896071456834D+02
 0.284150818155341D+03 -.970451190865023D+02 0.260204701355142D+03 -.601452052329798D+02
 0.000000000000000D+00 0.000000000000000D+00 0.000000000000000D+00 -.000000000000000D+00
 0.474370913999350D+03 0.000000000000000D+00 0.000000000000000D+00 0.474370913999350D+03
 0.575829639108155D+03 0.000000000000000D+00 0.000000000000000D+00 -.575829639108155D+03
 0.485497704145037D+03 0.100698208165397D+03 -.439680231258194D+03 0.128934812378663D+03
 0.181601382045091D+03 -.719774702063056D+01 0.167914395890456D+03 -.687896071456834D+02
 0.280191289825274D+03 -.985490862409580D+02 0.255299413987783D+03 -.601452052329798D+02
 0.102910177092104D+03 0.504862509619123D+01 0.164664213799559D+02 -.101458725108805D+03
0.599106323735D-03 0.000000000000D+00 0.000000000000D+00 0.181807247018D-03 0.399220541776D-05  6 -1 2 25 4 -3 21 2 0.91035974D-01 0.71018633D-01 0.21483937D+06 0.21483937D+06 0.21483937D+06 0.10954460D+01  1  2  1  2  6  2        2 0.813393294917D-02 0.100000000000D+01
  </mgrwgt>
  </event>
  <event>
  7     66 0.18082911E-05 0.29232561E+02 0.75467711E-02 0.91461186E-01
       -1 -1    0    0    0  501 0.00000000E+00 0.00000000E+00 0.25487772E+03 0.25487792E+03 0.32000000E+00 0.0000E+00 0.9000E+01
        2 -1    0    0  503    0 0.00000000E+00 0.00000000E+00 -.19607917E+04 0.19607918E+04 0.32000000E+00 0.0000E+00 0.9000E+01
       24  2    1    2    0    0 0.17922231E+03 -.63090563E+03 -.48770453E+03 0.82121016E+03 0.79798899E+02 0.0000E+00 0.0000E+00
       25  1    1    2    0    0 -.16849074E+03 0.63214292E+03 -.11828651E+04 0.13574935E+04 0.12500000E+03 0.0000E+00 0.9000E+01
        4  1    3    3  502    0 0.92117966E+01 -.10417371E+03 -.10565368E+03 0.14866782E+03 0.15500000E+01 0.0000E+00 0.9000E+01
       -3  1    3    3    0  502 0.17001051E+03 -.52673192E+03 -.38205085E+03 0.67254233E+03 0.50000000E+00 0.0000E+00 0.9000E+01
       21  1    1    2  503  501 -.10731574E+02 -.12372865E+01 -.35344343E+02 0.36965966E+02 0.75000000E+00 0.0000E+00 0.9000E+01
#aMCatNLO 2  0  0  2  2 0.41016220D+02 0.00000000D+00  -5  6  0 0.00000000D+00 0.00000000D+00 0.00000000D+00 0.00000000D+00 0.00000000D+00
  <mgrwgt>
 0.1942141708D-02    1    2    0
 0.699254983510314D+03 0.000000000000000D+00 0.000000000000000D+00 0.699254983510314D+03
 0.699254983510314D+03 0.000000000000000D+00 0.000000000000000D+00 -.699254983510314D+03
 0.702564625915881D+03 -.173878944615618D+03 0.631521689585950D+03 -.221175319125322D+03
 0.105201547220782D+03 0.834082246528364D+01 -.104072048551269D+03 0.129152982385800D+02
 0.590743793883964D+03 0.165538122150334D+03 -.527449641034681D+03 0.208260020886742D+03
 0.000000000000000D+00 -.000000000000000D+00 -.000000000000000D+00 -.000000000000000D+00
 0.701498328150879D+03 0.000000000000000D+00 0.000000000000000D+00 0.701498328150879D+03
 0.712402773753921D+03 0.000000000000000D+00 0.000000000000000D+00 -.712402773753921D+03
 0.701810030345565D+03 -.168490736431021D+03 0.632142917891505D+03 -.221175319125322D+03
 0.105176615236774D+03 0.914798694362290D+01 -.103978987295281D+03 0.129152982385800D+02
 0.591565042920420D+03 0.170074323457291D+03 -.526926644046623D+03 0.208260020886742D+03
 0.153494134020425D+02 -.107315739698924D+02 -.123728654960202D+01 -.109044456030422D+02
0.277484766217D-03 0.000000000000D+00 0.000000000000D+00 0.128903349018D-03 0.677225332088D-05  6 -1 2 25 4 -3 21 2 0.39211463D-01 0.30165635D+00 0.44550576D+06 0.44550576D+06 0.44550576D+06 0.10720705D+01  1  2  1  2  6  2        2 0.194214170752D-02 0.100000000000D+01
  </mgrwgt>
  </event>
  <event>
  7     66 0.18082911E-05 0.66572307E+02 0.75467711E-02 0.94558362E-01
       -1 -1    0    0    0  501 0.00000000E+00 0.00000000E+00 0.15555098E+03 0.15555130E+03 0.32000000E+00 0.0000E+00 0.9000E+01
        2 -1    0    0  503    0 0.00000000E+00 0.00000000E+00 -.18255676E+04 0.18255677E+04 0.32000000E+00 0.0000E+00 0.9000E+01
       24  2    1    2    0    0 -.38648415E+03 -.29930555E+03 -.10823321E+04 0.11902738E+04 0.79718601E+02 0.0000E+00 0.0000E+00
       25  1    1    2    0    0 0.38747377E+03 0.28557601E+03 -.51143133E+03 0.71335586E+03 0.12500000E+03 0.0000E+00 0.9000E+01
        4  1    3    3  502    0 -.19991494E+03 -.10621878E+03 -.51910454E+03 0.56632176E+03 0.15500000E+01 0.0000E+00 0.9000E+01
       -3  1    3    3    0  502 -.18656922E+03 -.19308677E+03 -.56322757E+03 0.62395202E+03 0.50000000E+00 0.0000E+00 0.9000E+01
       21  1    1    2  503  501 -.98962214E+00 0.13729543E+02 -.76253236E+02 0.77489342E+02 0.75000000E+00 0.0000E+00 0.9000E+01
#aMCatNLO 2  0  0  2  2 0.41016220D+02 0.00000000D+00  -5  6  0 0.00000000D+00 0.00000000D+00 0.00000000D+00 0.00000000D+00 0.00000000D+00
  <mgrwgt>
 0.2584295810D-02    1    2    0
 0.520464798811698D+03 0.000000000000000D+00 0.000000000000000D+00 0.520464798811698D+03
 0.520464798811698D+03 0.000000000000000D+00 0.000000000000000D+00 -.520464798811698D+03
 0.524917522959649D+03 0.386976389342134D+03 0.292476495725964D+03 0.156908187962511D+03
 0.239571999436690D+03 -.200080562417371D+03 -.102982352550737D+03 -.822018644554824D+02
 0.276440075227057D+03 -.186895826924763D+03 -.189494143175227D+03 -.747063235070285D+02
 0.000000000000000D+00 -.000000000000000D+00 0.000000000000000D+00 -.000000000000000D+00
 0.522581086900895D+03 0.000000000000000D+00 0.000000000000000D+00 0.522581086900895D+03
 0.543385676220852D+03 0.000000000000000D+00 0.000000000000000D+00 -.543385676220852D+03
 0.521473644396157D+03 0.387473774851936D+03 0.285576007661923D+03 0.156908187962511D+03
 0.240761032872549D+03 -.199852243699091D+03 -.106149936968130D+03 -.822018644554824D+02
 0.278785931034446D+03 -.186631909014525D+03 -.193155613711848D+03 -.747063235070285D+02
 0.249461548185954D+02 -.989622138319420D+00 0.137295430180547D+02 -.208045893199569D+02
0.127224678986D-03 0.000000000000D+00 0.000000000000D+00 0.191874656986D-03 0.642525226651D-05  6 -1 2 25 4 -3 21 2 0.23930690D-01 0.28085357D+00 0.25298682D+06 0.25298682D+06 0.25298682D+06 0.10900713D+01  1  2  1  2  6  2        2 0.258429581040D-02 0.100000000000D+01
  </mgrwgt>
  </event>
  <event>
  7     66 0.18082911E-05 0.11976120E+03 0.75467711E-02 0.91107826E-01
       -1 -1    0    0    0  503 0.00000000E+00 0.00000000E+00 0.19737794E+03 0.19737820E+03 0.32000000E+00 0.0000E+00 0.9000E+01
        2 -1    0    0  501    0 0.00000000E+00 0.00000000E+00 -.25744688E+04 0.25744688E+04 0.32000000E+00 0.0000E+00 0.9000E+01
       24  2    1    2    0    0 -.34478690E+03 0.56248056E+03 -.14628162E+04 0.16069598E+04 0.85007533E+02 0.0000E+00 0.0000E+00
       25  1    1    2    0    0 0.37163569E+03 -.41980545E+03 -.69134042E+03 0.89884719E+03 0.12500000E+03 0.0000E+00 0.9000E+01
        4  1    3    3  502    0 -.23978718E+03 0.42300428E+03 -.99058216E+03 0.11034881E+04 0.15500000E+01 0.0000E+00 0.9000E+01
       -3  1    3    3    0  502 -.10499971E+03 0.13947628E+03 -.47223399E+03 0.50347171E+03 0.50000000E+00 0.0000E+00 0.9000E+01
       21  1    1    2  501  503 -.26848792E+02 -.14267511E+03 -.22293430E+03 0.26604006E+03 0.75000000E+00 0.0000E+00 0.9000E+01
#aMCatNLO 2  0  0  1  2 0.14516850D+02 0.00000000D+00  -5  6  0 0.00000000D+00 0.00000000D+00 0.00000000D+00 0.00000000D+00 0.00000000D+00
  <mgrwgt>
 0.1833949355D-03    1    2    0
 0.635924729569009D+03 0.000000000000000D+00 0.000000000000000D+00 0.635924729569009D+03
 0.635924729569009D+03 0.000000000000000D+00 0.000000000000000D+00 -.635924729569009D+03
 0.639226504312345D+03 0.358638917679171D+03 -.488870605841896D+03 0.159277058250931D+03
 0.453897481659411D+03 -.249723610675154D+03 0.370028663785161D+03 -.820964682887610D+02
 0.178725473166262D+03 -.108915307004017D+03 0.118841942056735D+03 -.771805899621705D+02
 0.000000000000000D+00 -.000000000000000D+00 -.000000000000000D+00 0.000000000000000D+00
 0.718512009227192D+03 0.000000000000000D+00 0.000000000000000D+00 0.718512009227192D+03
 0.707214855339426D+03 0.000000000000000D+00 0.000000000000000D+00 -.707214855339426D+03
 0.596107273773600D+03 0.371635690538003D+03 -.419805447891121D+03 0.159277058250931D+03
 0.493082873508125D+03 -.239760563605432D+03 0.422972531237134D+03 -.820964682887610D+02
 0.190918478040495D+03 -.105026335004952D+03 0.139508031115839D+03 -.771805899621705D+02
 0.145618239244398D+03 -.268487919276196D+02 -.142675114461851D+03 0.112971538877652D+02
0.378337087970D-04 0.000000000000D+00 0.000000000000D+00 0.706259767664D-05 0.206473545062D-08  6 -1 2 25 4 -3 21 2 0.30365818D-01 0.39607161D+00 0.47640129D+06 0.47640129D+06 0.47640129D+06 0.10699975D+01  1  2  1  1  6  1       -1 0.183394935469D-03 0.100000000000D+01
  </mgrwgt>
  </event>
  <event>
  6     66 0.18082911E-05 0.65455423E+02 0.75467711E-02 0.93710847E-01
       -1 -1    0    0    0  501 0.00000000E+00 0.00000000E+00 0.24160334E+03 0.24160355E+03 0.32000000E+00 0.0000E+00 0.9000E+01
        2 -1    0    0  501    0 -.00000000E+00 -.00000000E+00 -.12560682E+04 0.12560683E+04 0.32000000E+00 0.0000E+00 0.9000E+01
       25  1    1    2    0    0 -.29682412E+03 -.44082996E+03 -.40517910E+03 0.67987552E+03 0.12500000E+03 0.0000E+00 0.9000E+01
        4  1    1    2  503    0 0.12973565E+03 0.19693148E+03 -.32904701E+03 0.40483044E+03 0.15500000E+01 0.0000E+00 0.9000E+01
       -3  1    1    2    0  502 0.15596563E+03 0.24647353E+03 -.27241680E+03 0.39910606E+03 0.50000000E+00 0.0000E+00 0.9000E+01
       21  1    1    2  502  503 0.11122843E+02 -.25750570E+01 -.78219891E+01 0.13859818E+02 0.75000000E+00 0.0000E+00 0.9000E+01
#aMCatNLO 2  0  0  4  5 0.10843794D+02 0.00000000D+00  -5  6  0 0.00000000D+00 0.00000000D+00 0.00000000D+00 0.00000000D+00 0.00000000D+00
  <mgrwgt>
 0.3180676819D-02    1    2    0
 0.550881537931267D+03 0.000000000000000D+00 0.000000000000000D+00 0.550881537931267D+03
 0.550881537931267D+03 -.000000000000000D+00 -.000000000000000D+00 -.550881537931267D+03
 0.555104256323776D+03 -.299157092406187D+03 -.444048985116820D+03 0.764281902740723D+02
 0.256827221401923D+03 0.144293463445447D+03 0.199069799147670D+03 -.742349858709258D+02
 0.289831598136835D+03 0.154863628960741D+03 0.244979185969151D+03 -.219320440314653D+01
 0.000000000000000D+00 0.000000000000000D+00 0.000000000000000D+00 0.000000000000000D+00
 0.550881537931267D+03 0.000000000000000D+00 0.000000000000000D+00 0.550881537931267D+03
 0.550881537931267D+03 -.000000000000000D+00 -.000000000000000D+00 -.550881537931267D+03
 0.551085233755420D+03 -.296810722357629D+03 -.440811891743778D+03 0.752210479459062D+02
 0.247065592740288D+03 0.129535454915807D+03 0.196737888119212D+03 -.745397639804229D+02
 0.291935436212741D+03 0.156097631594899D+03 0.246681637699561D+03 -.282806454111866D+01
 0.116768131540849D+02 0.111776358469227D+02 -.260763407499478D+01 0.214678057563523D+01
0.162141749877D-03 0.000000000000D+00 0.000000000000D+00 0.204323179119D-03 0.103289115500D-04  6 -1 2 25 4 -3 21 2 0.37169764D-01 0.19324129D+00 0.29424112D+06 0.29424112D+06 0.29424112D+06 0.10851752D+01  1  2  1  3  6  4        4 0.318067681927D-02 0.100000000000D+01
  </mgrwgt>
  </event>
  <event>
  7     66 0.18082911E-05 0.35973389E+02 0.75467711E-02 0.92281221E-01
       -1 -1    0    0    0  503 0.00000000E+00 0.00000000E+00 0.55557258E+03 0.55557267E+03 0.32000000E+00 0.0000E+00 0.9000E+01
        2 -1    0    0  501    0 0.00000000E+00 0.00000000E+00 -.11852840E+04 0.11852840E+04 0.32000000E+00 0.0000E+00 0.9000E+01
       24  2    1    2    0    0 0.82375352E+01 -.60759169E+03 -.84246050E+03 0.10418779E+04 0.80835707E+02 0.0000E+00 0.0000E+00
       25  1    1    2    0    0 0.47364327E+01 0.57506421E+03 0.12107020E+03 0.60083631E+03 0.12500000E+03 0.0000E+00 0.9000E+01
        4  1    3    3  502    0 -.30304835E+02 -.42593565E+03 -.57237263E+03 0.71410951E+03 0.15500000E+01 0.0000E+00 0.9000E+01
       -3  1    3    3    0  502 0.38542370E+02 -.18165604E+03 -.27008788E+03 0.32776843E+03 0.50000000E+00 0.0000E+00 0.9000E+01
       21  1    1    2  501  503 -.12973968E+02 0.32527481E+02 0.91678890E+02 0.98142459E+02 0.75000000E+00 0.0000E+00 0.9000E+01
#aMCatNLO 2  0  0  1  2 0.14516850D+02 0.00000000D+00  -5  6  0 0.00000000D+00 0.00000000D+00 0.00000000D+00 0.00000000D+00 0.00000000D+00
  <mgrwgt>
 0.1899879208D-02    1    2    0
 0.737712645075930D+03 0.000000000000000D+00 0.000000000000000D+00 0.737712645075930D+03
 0.737712645075930D+03 0.000000000000000D+00 0.000000000000000D+00 -.737712645075930D+03
 0.740793312257740D+03 -.172027212987855D+01 0.591252040470866D+03 0.428448126135044D+03
 0.506035063580533D+03 -.348087675249008D+02 -.414631631404707D+03 -.287993828953022D+03
 0.228596914313587D+03 0.365290396547793D+02 -.176620409066159D+03 -.140454297182022D+03
 0.000000000000000D+00 -.000000000000000D+00 0.000000000000000D+00 0.000000000000000D+00
 0.889953842781499D+03 0.000000000000000D+00 0.000000000000000D+00 0.889953842781499D+03
 0.739937011105452D+03 0.000000000000000D+00 0.000000000000000D+00 -.739937011105452D+03
 0.727951976661532D+03 0.473643270208401D+01 0.575064213581457D+03 0.428448126135044D+03
 0.515012536935856D+03 -.303201723779717D+02 -.425885142770975D+03 -.287993828953022D+03
 0.232876313763805D+03 0.385577075552164D+02 -.181706552175228D+03 -.140454297182022D+03
 0.154050026525760D+03 -.129739678793287D+02 0.325274813647458D+02 0.150016831676047D+03
0.434137770605D-03 0.000000000000D+00 0.000000000000D+00 0.128450908017D-03 0.654705243658D-06  6 -1 2 25 4 -3 21 2 0.85472610D-01 0.18235117D+00 0.38207658D+06 0.38207658D+06 0.38207658D+06 0.10768658D+01  1  2  1  1  6  1       -1 0.189987920774D-02 0.100000000000D+01
  </mgrwgt>
  </event>
  <event>
  6     66 0.18082911E-05 0.37334436E+02 0.75467711E-02 0.90106550E-01
       -1 -1    0    0    0  501 0.00000000E+00 0.00000000E+00 0.40977030E+03 0.40977043E+03 0.32000000E+00 0.0000E+00 0.9000E+01
        2 -1    0    0  501    0 -.00000000E+00 -.00000000E+00 -.16038765E+04 0.16038765E+04 0.32000000E+00 0.0000E+00 0.9000E+01
       25  1    1    2    0    0 -.38822440E+03 -.63382069E+03 -.25005818E+03 0.79410387E+03 0.12500000E+03 0.0000E+00 0.9000E+01
        4  1    1    2  502    0 0.54756928E+02 0.15608537E+03 -.15419733E+03 0.22614195E+03 0.15500000E+01 0.0000E+00 0.9000E+01
       -3  1    1    2    0  503 0.28317612E+03 0.47205130E+03 -.70300958E+03 0.89288513E+03 0.50000000E+00 0.0000E+00 0.9000E+01
       21  1    1    2  503  502 0.50291350E+02 0.56840320E+01 -.86841064E+02 0.10051597E+03 0.75000000E+00 0.0000E+00 0.9000E+01
#aMCatNLO 2  0  0  5  2 0.26353433D+01 0.00000000D+00  -5  6  0 0.00000000D+00 0.00000000D+00 0.00000000D+00 0.00000000D+00 0.00000000D+00
  <mgrwgt>
 0.1522543815D-02    1    2    0
 0.810691745251111D+03 0.000000000000000D+00 0.000000000000000D+00 0.810691745251111D+03
 0.810691745251111D+03 -.000000000000000D+00 -.000000000000000D+00 -.810691745251111D+03
 0.811087946452709D+03 -.393045969079174D+03 -.640728217613588D+03 0.277886441240303D+03
 0.165435620814201D+03 0.537112673069453D+02 0.154595562036018D+03 -.241714003986059D+02
 0.644859923235311D+03 0.339334701772229D+03 0.486132655577569D+03 -.253715040841697D+03
 0.000000000000000D+00 0.000000000000000D+00 0.000000000000000D+00 -.000000000000000D+00
 0.810691745251111D+03 0.000000000000000D+00 0.000000000000000D+00 0.810691745251111D+03
 0.810691745251111D+03 -.000000000000000D+00 -.000000000000000D+00 -.810691745251111D+03
 0.802050420354780D+03 -.388218593462642D+03 -.633812494241710D+03 0.274277090957794D+03
 0.167201550635780D+03 0.547066962197098D+02 0.156021618664691D+03 -.249156664166054D+02
 0.591185854754704D+03 0.283160439304279D+03 0.472103441972087D+03 -.215497611479027D+03
 0.609456647569574D+02 0.503514579386524D+02 0.568743360493221D+01 -.338638130621618D+02
0.339943887421D-03 0.000000000000D+00 0.000000000000D+00 0.574322448217D-07 0.190887775636D-08  6 -1 2 25 4 -3 21 2 0.63041597D-01 0.24675024D+00 0.57776122D+06 0.57776122D+06 0.57776122D+06 0.10641016D+01  1  2  1  4  6  5       -3 0.152254381481D-02 0.100000000000D+01
  </mgrwgt>
  </event>
  <event>
  7     66 0.18082911E-05 0.45987868E+02 0.75467711E-02 0.90221802E-01
       -1 -1    0    0    0  501 0.00000000E+00 0.00000000E+00 0.10814423E+04 0.10814423E+04 0.32000000E+00 0.0000E+00 0.9000E+01
        2 -1    0    0  503    0 0.00000000E+00 0.00000000E+00 -.90024059E+03 0.90024064E+03 0.32000000E+00 0.0000E+00 0.9000E+01
       24  2    1    2    0    0 -.21907872E+02 -.73597586E+03 0.17097474E+03 0.75999027E+03 0.78818903E+02 0.0000E+00 0.0000E+00
       25  1    1    2    0    0 0.56811629E+02 0.71055277E+03 0.40179229E+03 0.82775289E+03 0.12500000E+03 0.0000E+00 0.9000E+01
        4  1    3    3  502    0 -.72078621E+01 -.42376981E+03 0.13784751E+03 0.44568728E+03 0.15500000E+01 0.0000E+00 0.9000E+01
       -3  1    3    3    0  502 -.14700010E+02 -.31220605E+03 0.33127227E+02 0.31430299E+03 0.50000000E+00 0.0000E+00 0.9000E+01
       21  1    1    2  503  501 -.34903757E+02 0.25423099E+02 -.39156534E+03 0.39393982E+03 0.75000000E+00 0.0000E+00 0.9000E+01
#aMCatNLO 2  0  0  2  1 0.45469552D+01 0.00000000D+00  -5  6  0 0.00000000D+00 0.00000000D+00 0.00000000D+00 0.00000000D+00 0.00000000D+00
  <mgrwgt>
 0.2248731685D-02    1    2    0
 0.740101622495282D+03 0.000000000000000D+00 0.000000000000000D+00 0.740101622495282D+03
 0.740101622495282D+03 0.000000000000000D+00 0.000000000000000D+00 -.740101622495282D+03
 0.743281111743822D+03 0.394202414109099D+02 0.723220254788965D+03 0.110635973829588D+03
 0.417511907264963D+03 -.171271054081408D+02 -.416437204547869D+03 -.245542183080949D+02
 0.319410225981779D+03 -.222931360027691D+02 -.306783050241096D+03 -.860817555214933D+02
 0.000000000000000D+00 -.000000000000000D+00 0.000000000000000D+00 -.000000000000000D+00
 0.741229980677900D+03 0.000000000000000D+00 0.000000000000000D+00 0.741229980677900D+03
 0.131343540109306D+04 0.000000000000000D+00 0.000000000000000D+00 -.131343540109306D+04
 0.732105260880423D+03 0.568116286834418D+02 0.710552765915316D+03 0.110635973829588D+03
 0.424438143194653D+03 -.720246487779200D+01 -.423666085805186D+03 -.245542183080949D+02
 0.324289554995639D+03 -.147054068587686D+02 -.312309778672916D+03 -.860817555214933D+02
 0.573832422700241D+03 -.349037569468812D+02 0.254230985627862D+02 -.572205420415158D+03
0.192113032363D-02 0.000000000000D+00 0.000000000000D+00 0.646378907068D-04 0.245667579266D-06  6 -1 2 25 4 -3 21 2 0.16637569D+00 0.13849851D+00 0.56494878D+06 0.56494878D+06 0.56494878D+06 0.10647819D+01  1  2  1  2  6  2        2 0.224873168529D-02 0.100000000000D+01
  </mgrwgt>
  </event>
  <event>
  7     66 0.18082911E-05 0.43641604E+02 0.75467711E-02 0.95467149E-01
       -1 -1    0    0    0  501 0.00000000E+00 0.00000000E+00 0.25644358E+03 0.25644377E+03 0.32000000E+00 0.0000E+00 0.9000E+01
        2 -1    0    0  503    0 0.00000000E+00 0.00000000E+00 -.15344212E+04 0.15344213E+04 0.32000000E+00 0.0000E+00 0.9000E+01
       24  2    1    2    0    0 -.42181918E+03 -.12673300E+03 -.10407073E+03 0.46061969E+03 0.85715276E+02 0.0000E+00 0.0000E+00
       25  1    1    2    0    0 0.43455999E+03 0.13654456E+03 -.63660746E+03 0.79270477E+03 0.12500000E+03 0.0000E+00 0.9000E+01
        4  1    3    3  502    0 -.31005988E+03 -.86586943E+02 -.36500411E+02 0.32398937E+03 0.15500000E+01 0.0000E+00 0.9000E+01
       -3  1    3    3    0  502 -.11175930E+03 -.40146053E+02 -.67570318E+02 0.13663032E+03 0.50000000E+00 0.0000E+00 0.9000E+01
       21  1    1    2  503  501 -.12740814E+02 -.98115585E+01 -.53729948E+03 0.53754059E+03 0.75000000E+00 0.0000E+00 0.9000E+01
#aMCatNLO 2  0  0  2  1 0.45469552D+01 0.00000000D+00  -5  6  0 0.00000000D+00 0.00000000D+00 0.00000000D+00 0.00000000D+00 0.00000000D+00
  <mgrwgt>
 0.1916914944D-02    1    2    0
 0.505460044299243D+03 0.000000000000000D+00 0.000000000000000D+00 0.505460044299243D+03
 0.505460044299243D+03 0.000000000000000D+00 0.000000000000000D+00 -.505460044299243D+03
 0.509554282816366D+03 0.428095941153721D+03 0.131566662278799D+03 -.208433792080428D+03
 0.379655664212977D+03 -.314788236230792D+03 -.902380362348734D+02 0.192103843054161D+03
 0.121710141569143D+03 -.113307704922929D+03 -.413286260439255D+02 0.163299490262665D+02
 0.000000000000000D+00 -.000000000000000D+00 -.000000000000000D+00 -.000000000000000D+00
 0.505761238122716D+03 0.000000000000000D+00 0.000000000000000D+00 0.505761238122716D+03
 0.778019046421782D+03 0.000000000000000D+00 0.000000000000000D+00 -.778019046421782D+03
 0.516291049971330D+03 0.434559992307732D+03 0.136544555676805D+03 -.208433792080428D+03
 0.374860548226662D+03 -.310033882686591D+03 -.865767618180126D+02 0.192103843054161D+03
 0.119896383138774D+03 -.111785295174658D+03 -.401562353473764D+02 0.163299490262665D+02
 0.272732303207731D+03 -.127408144464824D+02 -.981155851141592D+01 -.272257808299066D+03
0.150390543701D-03 0.000000000000D+00 0.000000000000D+00 0.402223906252D-05 0.109451974958D-06  6 -1 2 25 4 -3 21 2 0.39452835D-01 0.23606458D+00 0.21580780D+06 0.21580780D+06 0.21580780D+06 0.10952970D+01  1  2  1  2  6  2        2 0.191691494398D-02 0.100000000000D+01
  </mgrwgt>
  </event>
  <event>
  7     66 0.18082911E-05 0.21522165E+02 0.75467711E-02 0.93534686E-01
       -1 -1    0    0    0  503 0.00000000E+00 0.00000000E+00 0.35213338E+03 0.35213353E+03 0.32000000E+00 0.0000E+00 0.9000E+01
        2 -1    0    0  501    0 0.00000000E+00 0.00000000E+00 -.18647997E+04 0.18647997E+04 0.32000000E+00 0.0000E+00 0.9000E+01
       24  2    1    2    0    0 0.15442499E+03 -.50596703E+03 -.45780919E+03 0.70417974E+03 0.80188129E+02 0.0000E+00 0.0000E+00
       25  1    1    2    0    0 -.15728164E+03 0.51878184E+03 -.12232675E+04 0.13438305E+04 0.12500000E+03 0.0000E+00 0.9000E+01
        4  1    3    3  502    0 0.34623672E+02 -.46687789E+02 -.71753648E+02 0.92355492E+02 0.15500000E+01 0.0000E+00 0.9000E+01
       -3  1    3    3    0  502 0.11980132E+03 -.45927924E+03 -.38605554E+03 0.61182424E+03 0.50000000E+00 0.0000E+00 0.9000E+01
       21  1    1    2  501  503 0.28566507E+01 -.12814813E+02 0.16841034E+03 0.16892302E+03 0.75000000E+00 0.0000E+00 0.9000E+01
#aMCatNLO 2  0  0  1  1 0.14361330D+02 0.00000000D+00  -5  6  0 0.00000000D+00 0.00000000D+00 0.00000000D+00 0.00000000D+00 0.00000000D+00
  <mgrwgt>
 0.2361846179D-02    1    2    0
 0.584840753503652D+03 0.000000000000000D+00 0.000000000000000D+00 0.584840753503652D+03
 0.584840753503652D+03 0.000000000000000D+00 0.000000000000000D+00 -.584840753503652D+03
 0.588771252525926D+03 -.155836395826980D+03 0.512298544277909D+03 -.210456187999640D+03
 0.589847661308012D+02 0.347235585105645D+02 -.471608582313201D+02 0.702357250649931D+01
 0.521925488350577D+03 0.121112837316416D+03 -.465137686046589D+03 0.203432615493141D+03
 0.000000000000000D+00 0.000000000000000D+00 -.000000000000000D+00 0.000000000000000D+00
 0.112257312034899D+04 0.000000000000000D+00 0.000000000000000D+00 0.112257312034899D+04
 0.584957743220278D+03 0.000000000000000D+00 0.000000000000000D+00 -.584957743220278D+03
 0.594801580840701D+03 -.157281638652629D+03 0.518781842055021D+03 -.210456187999640D+03
 0.583869928011027D+02 0.345802376368945D+02 -.465179268946701D+02 0.702357250649931D+01
 0.516566617722908D+03 0.119844750365209D+03 -.459449101978887D+03 0.203432615493141D+03
 0.537775672204561D+03 0.285665065052569D+01 -.128148131814647D+02 0.537615377128717D+03
0.513312614880D-03 0.000000000000D+00 0.000000000000D+00 0.122627601281D-03 0.542814655987D-05  6 -1 2 25 4 -3 21 2 0.54174356D-01 0.28689215D+00 0.30373289D+06 0.30373289D+06 0.30373289D+06 0.10841548D+01  1  2  1  1  6  1       -1 0.236184617864D-02 0.100000000000D+01
  </mgrwgt>
  </event>
  <event>
  6     66 0.18082911E-05 0.27338939E+02 0.75467711E-02 0.90877724E-01
       -1 -1    0    0    0  501 0.00000000E+00 0.00000000E+00 0.72552851E+03 0.72552858E+03 0.32000000E+00 0.0000E+00 0.9000E+01
        2 -1    0    0  501    0 0.00000000E+00 0.00000000E+00 -.70104171E+03 0.70104178E+03 0.32000000E+00 0.0000E+00 0.9000E+01
       25  1    1    2    0    0 -.46115145E+03 0.45364674E+03 -.91921642E+02 0.66522974E+03 0.12500000E+03 0.0000E+00 0.9000E+01
        4  1    1    2  502    0 0.38171236E+03 -.34427740E+03 0.83545436E+02 0.52078162E+03 0.15500000E+01 0.0000E+00 0.9000E+01
       -3  1    1    2    0  503 0.10125645E+03 -.15642633E+03 0.22965067E+02 0.18774906E+03 0.50000000E+00 0.0000E+00 0.9000E+01
       21  1    1    2  503  502 -.21817373E+02 0.47056983E+02 0.98979444E+01 0.52809935E+02 0.75000000E+00 0.0000E+00 0.9000E+01
#aMCatNLO 2  0  0  5  1 0.10264221D+01 0.00000000D+00  -5  6  0 0.00000000D+00 0.00000000D+00 0.00000000D+00 0.00000000D+00 0.00000000D+00
  <mgrwgt>
 0.9679212419D-02    1    2    0
 0.713180095498065D+03 0.000000000000000D+00 0.000000000000000D+00 0.713180095498065D+03
 0.713180095498065D+03 -.000000000000000D+00 -.000000000000000D+00 -.713180095498065D+03
 0.716598416965188D+03 -.490590739249558D+03 0.494177878616267D+03 -.114005447439639D+03
 0.483268551728392D+03 0.360419705655273D+03 -.314914037135349D+03 0.668975192375625D+02
 0.226493222302550D+03 0.130171033594285D+03 -.179263841480919D+03 0.471079282020768D+02
 0.000000000000000D+00 0.000000000000000D+00 0.000000000000000D+00 0.000000000000000D+00
 0.713180095498065D+03 0.000000000000000D+00 0.000000000000000D+00 0.713180095498065D+03
 0.713180095498065D+03 -.000000000000000D+00 -.000000000000000D+00 -.713180095498065D+03
 0.666698268554979D+03 -.461032983798768D+03 0.453472687596760D+03 -.103308715738713D+03
 0.519625513456365D+03 0.381849163147707D+03 -.344425417393102D+03 0.746526804058252D+02
 0.187167680382652D+03 0.101067575971844D+03 -.156311994736157D+03 0.195868825646640D+02
 0.528687286021347D+02 -.218837553207818D+02 0.472647245324983D+02 0.906915276822384D+01
0.199158358394D-02 0.000000000000D+00 0.000000000000D+00 0.186469911680D-04 0.134708451726D-06  6 -1 2 25 4 -3 21 2 0.11161978D+00 0.10785258D+00 0.49780472D+06 0.49780472D+06 0.49780472D+06 0.10686455D+01  1  2  1  4  6  5       -3 0.967921241924D-02 0.100000000000D+01
  </mgrwgt>
  </event>
  <event>
  7     66 0.18082911E-05 0.17840189E+02 0.75467711E-02 0.93356662E-01
       -1 -1    0    0    0  503 0.00000000E+00 0.00000000E+00 0.47199317E+03 0.47199327E+03 0.32000000E+00 0.0000E+00 0.9000E+01
        2 -1    0    0  501    0 0.00000000E+00 0.00000000E+00 -.81399733E+03 0.81399739E+03 0.32000000E+00 0.0000E+00 0.9000E+01
       24  2    1    2    0    0 0.35889736E+03 -.38551190E+03 -.41814396E+03 0.67763927E+03 0.83209845E+02 0.0000E+00 0.0000E+00
       25  1    1    2    0    0 -.34661938E+03 0.41839833E+03 0.41551999E+02 0.55906505E+03 0.12500000E+03 0.0000E+00 0.9000E+01
        4  1    3    3  502    0 0.60523712E+02 -.49904170E+02 -.10091289E+03 0.12782550E+03 0.15500000E+01 0.0000E+00 0.9000E+01
       -3  1    3    3    0  502 0.29837364E+03 -.33560773E+03 -.31723107E+03 0.54981377E+03 0.50000000E+00 0.0000E+00 0.9000E+01
       21  1    1    2  501  503 -.12277979E+02 -.32886433E+02 0.34587791E+02 0.49286348E+02 0.75000000E+00 0.0000E+00 0.9000E+01
#aMCatNLO 2  0  0  1  2 0.25058996D+02 0.00000000D+00  -5  6  0 0.00000000D+00 0.00000000D+00 0.00000000D+00 0.00000000D+00 0.00000000D+00
  <mgrwgt>
 0.8413313629D-03    1    2    0
 0.588724002688488D+03 0.000000000000000D+00 0.000000000000000D+00 0.588724002688488D+03
 0.588724002688488D+03 0.000000000000000D+00 0.000000000000000D+00 -.588724002688488D+03
 0.592418909968997D+03 -.352836207996162D+03 0.401746620785432D+03 0.222354284652287D+03
 0.102581751167642D+03 0.593570778988504D+02 -.526427224289817D+02 -.650268925229787D+02
 0.482447344240337D+03 0.293479130097312D+03 -.349103898356450D+03 -.157327392129308D+03
 0.000000000000000D+00 -.000000000000000D+00 -.000000000000000D+00 0.000000000000000D+00
 0.646418288418388D+03 0.000000000000000D+00 0.000000000000000D+00 0.646418288418388D+03
 0.594349540907645D+03 0.000000000000000D+00 0.000000000000000D+00 -.594349540907645D+03
 0.600223780426493D+03 -.346619377531941D+03 0.418398333894401D+03 0.222354284652287D+03
 0.101775958012579D+03 0.604223233761935D+02 -.497894739478738D+02 -.650268925229787D+02
 0.475971429131070D+03 0.298475032957204D+03 -.335722426620653D+03 -.157327392129308D+03
 0.627966617558902D+02 -.122779788014571D+02 -.328864333258740D+02 0.520687475107429D+02
0.789757648589D-04 0.000000000000D+00 0.000000000000D+00 0.211498592865D-04 0.107996299915D-06  6 -1 2 25 4 -3 21 2 0.72614075D-01 0.12522990D+00 0.31367496D+06 0.31367496D+06 0.31367496D+06 0.10831225D+01  1  2  1  1  6  1       -1 0.841331362897D-03 0.100000000000D+01
  </mgrwgt>
  </event>
  <event>
  7     66 0.18082911E-05 0.53735818E+03 0.75467711E-02 0.86319242E-01
       -1 -1    0    0    0  501 0.00000000E+00 0.00000000E+00 0.10857957E+04 0.10857958E+04 0.32000000E+00 0.0000E+00 0.9000E+01
        2 -1    0    0  503    0 0.00000000E+00 0.00000000E+00 -.21377771E+04 0.21377771E+04 0.32000000E+00 0.0000E+00 0.9000E+01
       24  2    1    2    0    0 0.47416236E+03 0.34490559E+03 0.11090508E+03 0.60196359E+03 0.79185939E+02 0.0000E+00 0.0000E+00
       25  1    1    2    0    0 -.10337094E+04 -.29174890E+03 0.24232206E+03 0.11081596E+04 0.12500000E+03 0.0000E+00 0.9000E+01
        4  1    3    3  502    0 0.36475419E+03 0.22153443E+03 0.80423968E+02 0.43427358E+03 0.15500000E+01 0.0000E+00 0.9000E+01
       -3  1    3    3    0  502 0.10940817E+03 0.12337116E+03 0.30481109E+02 0.16769001E+03 0.50000000E+00 0.0000E+00 0.9000E+01
       21  1    1    2  503  501 0.55954708E+03 -.53156691E+02 -.14052085E+04 0.15134497E+04 0.75000000E+00 0.0000E+00 0.9000E+01
#aMCatNLO 2  0  0  2  1 0.48000167D+02 0.00000000D+00  -5  6  0 0.00000000D+00 0.00000000D+00 0.00000000D+00 0.00000000D+00 0.00000000D+00
  <mgrwgt>
 0.3017330404D-03    1    2    0
 0.788009070067578D+03 0.000000000000000D+00 0.000000000000000D+00 0.788009070067578D+03
 0.788009070067578D+03 0.000000000000000D+00 0.000000000000000D+00 -.788009070067578D+03
 0.790976861777302D+03 -.711267631450320D+03 -.322380712256426D+03 0.137269327659180D+02
 0.575173510780776D+03 0.537277559200362D+03 0.205103743846561D+03 -.947872057343694D+01
 0.209867767577078D+03 0.173990072249959D+03 0.117276968409865D+03 -.424821219248102D+01
 0.000000000000000D+00 0.000000000000000D+00 -.000000000000000D+00 -.000000000000000D+00
 0.880511236360836D+03 0.000000000000000D+00 0.000000000000000D+00 0.880511236360836D+03
 0.263618317872959D+04 0.000000000000000D+00 0.000000000000000D+00 -.263618317872959D+04
 0.108142778148342D+04 -.103370943466385D+04 -.291748903284893D+03 0.137269327659180D+02
 0.426820753378126D+03 0.364726802873261D+03 0.221495978826729D+03 -.947872057343694D+01
 0.164997335954296D+03 0.109435553877269D+03 0.123409615155213D+03 -.424821219248102D+01
 0.184344854427458D+04 0.559547077913322D+03 -.531566906970485D+02 -.175567194236876D+04
0.149563647888D-02 0.000000000000D+00 0.000000000000D+00 0.928193049529D-04 0.302011765385D-08  6 -1 2 25 4 -3 21 2 0.16704549D+00 0.32888876D+00 0.12488790D+07 0.12488790D+07 0.12488790D+07 0.10414987D+01  1  2  1  2  6  2        2 0.301733040383D-03 0.100000000000D+01
  </mgrwgt>
  </event>
  <event>
  6     66 -.18082911E-05 0.10198293E+02 0.75467711E-02 0.94874473E-01
       -1 -1    0    0    0  501 0.00000000E+00 0.00000000E+00 0.95475616E+03 0.95475621E+03 0.32000000E+00 0.0000E+00 0.9000E+01
        2 -1    0    0  501    0 0.00000000E+00 0.00000000E+00 -.25329289E+03 0.25329309E+03 0.32000000E+00 0.0000E+00 0.9000E+01
       24  2    1    2    0    0 0.42196532E+03 0.22903540E+03 0.33000554E+03 0.58827693E+03 0.81572961E+02 0.0000E+00 0.0000E+00
       25  1    1    2    0    0 -.42196532E+03 -.22903540E+03 0.37145773E+03 0.61977237E+03 0.12500000E+03 0.0000E+00 0.9000E+01
        4  1    3    3  502    0 0.86756817E+01 0.56751213E+01 -.46645983E+01 0.11473249E+02 0.15500000E+01 0.0000E+00 0.9000E+01
       -3  1    3    3    0  502 0.41328964E+03 0.22336028E+03 0.33467014E+03 0.57680368E+03 0.50000000E+00 0.0000E+00 0.9000E+01
#aMCatNLO 1  0  0  4  2 0.26826382D+01 0.00000000D+00  -5  6  0 0.00000000D+00 0.00000000D+00 0.00000000D+00 0.00000000D+00 0.00000000D+00
  <mgrwgt>
 -.4057171147D-02    7    2    0
 0.491765288792540D+03 0.000000000000000D+00 0.000000000000000D+00 0.491765288792540D+03
 0.491765288792540D+03 -.000000000000000D+00 -.000000000000000D+00 -.491765288792540D+03
 0.496325824363108D+03 -.421965319619552D+03 -.229035399129282D+03 0.142259942984118D+02
 0.172501413352466D+02 0.852672351687401D+01 0.559465461303516D+01 -.139126633652086D+02
 0.469954611886725D+03 0.413438596102678D+03 0.223440744516247D+03 -.313330933203197D+00
 0.000000000000000D+00 0.000000000000000D+00 0.000000000000000D+00 -.000000000000000D+00
 0.491765288792540D+03 0.000000000000000D+00 0.000000000000000D+00 0.491765288792540D+03
 0.491765288792540D+03 -.000000000000000D+00 -.000000000000000D+00 -.491765288792540D+03
 0.495656347422227D+03 -.421406597929054D+03 -.228668804050063D+03 0.133143537627046D+02
 0.144830443401031D+02 0.729475859160164D+01 0.703429968308228D+01 -.103471589538499D+02
 0.470587286023617D+03 0.413968344695075D+03 0.223788329423901D+03 -.117769739467185D+01
 0.280389979913241D+01 0.143494642377323D+00 -.215382505692008D+01 -.178949741418282D+01
0.691839253424D-04 0.000000000000D+00 0.000000000000D+00 0.310398302325D-04 0.000000000000D+00  6 -1 2 25 4 -3 21 0 0.14688558D+00 0.38968156D-01 0.23827808D+06 0.23827808D+06 0.23827808D+06 0.10920316D+01  1  2  2  3  6  4        4 0.474276757410D-03 0.100000000000D+01
0.275706199573D-04 0.000000000000D+00 -.265684489861D-06 0.310398302325D-04 0.000000000000D+00  6 -1 2 25 4 -3 21 2 0.14688558D+00 0.38968156D-01 0.23827808D+06 0.23827808D+06 0.23827808D+06 0.10920316D+01  1  2  3  3  6  4        4 0.225394627687D-03 0.100000000000D+01
-.188971016915D-04 0.000000000000D+00 0.000000000000D+00 0.310398302325D-04 0.000000000000D+00  6 -1 2 25 4 -3 21 2 0.14688558D+00 0.38968156D-01 0.23827808D+06 0.23827808D+06 0.23827808D+06 0.10920316D+01  1  2 15  3  6  4        4 -.154487102819D-03 0.100000000000D+01
-.674095679947D-03 0.000000000000D+00 0.000000000000D+00 0.310398302325D-04 0.000000000000D+00  6 -1 2 25 4 -3 21 2 0.14688558D+00 0.38968156D-01 0.23827808D+06 0.23827808D+06 0.23827808D+06 0.10920316D+01  1  2  4  3  6  4        4 -.551084977569D-02 0.100000000000D+01
-.153434578961D-03 0.000000000000D+00 0.000000000000D+00 0.310398302325D-04 0.000000000000D+00  6 -1 2 25 4 -3 21 2 0.14688558D+00 0.38968156D-01 0.23827808D+06 0.23827808D+06 0.23827808D+06 0.10920316D+01  1  2  5  3  6  4        4 -.125435444879D-02 0.100000000000D+01
0.258268617790D-03 0.000000000000D+00 -.000000000000D+00 0.310398302325D-04 0.000000000000D+00  6 -1 2 25 4 -3 21 2 0.14688558D+00 0.38968156D-01 0.23827808D+06 0.23827808D+06 0.23827808D+06 0.10920316D+01  1  2  6  3  6  4        4 0.211139100391D-02 0.100000000000D+01
0.629695363107D-05 0.000000000000D+00 0.000000000000D+00 0.310398302325D-04 0.603168029149D-06  6 -1 2 25 4 -3 21 2 0.14688558D+00 0.38968156D-01 0.23929499D+06 0.23929499D+06 0.23929499D+06 0.10918918D+01  1  2 11  3  6  4        4 0.514577914363D-04 0.100000000000D+01
  </mgrwgt>
  </event>
  <event>
  6     66 0.18082911E-05 0.40466834E+02 0.75467711E-02 0.92599207E-01
       21 -1    0    0  503  501 0.00000000E+00 0.00000000E+00 0.25096755E+03 0.25096867E+03 0.75000000E+00 0.0000E+00 0.9000E+01
        2 -1    0    0  501    0 0.00000000E+00 0.00000000E+00 -.15295375E+04 0.15295376E+04 0.32000000E+00 0.0000E+00 0.9000E+01
       25  1    1    2    0    0 0.33692297E+03 0.45592991E+03 -.83488903E+03 0.10168844E+04 0.12500000E+03 0.0000E+00 0.9000E+01
        4  1    1    2  502    0 -.17613224E+03 -.30289072E+03 -.27671289E+03 0.44647260E+03 0.15500000E+01 0.0000E+00 0.9000E+01
        1  1    1    2  503    0 -.46069717E+02 0.28930285E+02 -.29885897E+02 0.62069714E+02 0.32000000E+00 0.0000E+00 0.9000E+01
       -3  1    1    2    0  502 -.11472102E+03 -.18196948E+03 -.13708216E+03 0.25507954E+03 0.50000000E+00 0.0000E+00 0.9000E+01
#aMCatNLO 2  0  0  1  2 0.90793653D+01 0.00000000D+00  -5  6  0 0.00000000D+00 0.00000000D+00 0.00000000D+00 0.00000000D+00 0.00000000D+00
  <mgrwgt>
 0.4673566077D-05    1    2    0
 0.589672109513544D+03 0.000000000000000D+00 0.000000000000000D+00 0.589672109513544D+03
 0.589672109513544D+03 0.000000000000000D+00 0.000000000000000D+00 -.589672109513544D+03
 0.595761040624089D+03 0.313636648220762D+03 0.470553424970708D+03 -.139705922088795D+03
 0.356667639465469D+03 -.189878190352755D+03 -.293855329462976D+03 0.693334206313124D+02
 0.000000000000000D+00 -.000000000000000D+00 0.000000000000000D+00 0.000000000000000D+00
 0.226915538937531D+03 -.123758457868007D+03 -.176698095507732D+03 0.703725014574827D+02
 0.630741411042200D+03 0.000000000000000D+00 0.000000000000000D+00 0.630741411042200D+03
 0.608592954570020D+03 0.000000000000000D+00 0.000000000000000D+00 -.608592954570020D+03
 0.597103307266441D+03 0.336923200292031D+03 0.455930227103685D+03 -.139705922088795D+03
 0.356838028239246D+03 -.175949459132366D+03 -.302602119973179D+03 0.693334206313124D+02
 0.587361413507688D+02 -.460697167184341D+02 0.289302847922494D+02 0.221484564721803D+02
 0.226656888755764D+03 -.114904024441231D+03 -.182258391922755D+03 0.703725014574827D+02
0.378238392724D-07 0.000000000000D+00 0.000000000000D+00 0.287256934975D-06 0.708177878269D-11  6 21 2 25 4 1 -3 2 0.38610454D-01 0.23531339D+00 0.36025370D+06 0.36025370D+06 0.36025370D+06 0.10787196D+01  1  2  1  5  5  1       -1 0.467356607657D-05 0.100000000000D+01
  </mgrwgt>
  </event>
  <event>
  7     66 0.18082911E-05 0.17474312E+02 0.75467711E-02 0.95594040E-01
       -1 -1    0    0    0  501 0.00000000E+00 0.00000000E+00 0.31810255E+03 0.31810271E+03 0.32000000E+00 0.0000E+00 0.9000E+01
        2 -1    0    0  501    0 -.00000000E+00 -.00000000E+00 -.89408172E+03 0.89408178E+03 0.32000000E+00 0.0000E+00 0.9000E+01
       24  2    1    2    0    0 0.42133656E+03 -.15824655E+03 0.15735949E+02 0.45831564E+03 0.85083143E+02 0.0000E+00 0.0000E+00
       25  1    1    2    0    0 -.42133656E+03 0.15824655E+03 -.59171512E+03 0.75386885E+03 0.12500000E+03 0.0000E+00 0.9000E+01
        4  1    3    3  503    0 0.57414229E+02 -.13883227E+02 -.17134846E+02 0.61523517E+02 0.15500000E+01 0.0000E+00 0.9000E+01
       -3  1    3    3    0  502 0.35487162E+03 -.13532623E+03 0.22776560E+02 0.38048138E+03 0.50000000E+00 0.0000E+00 0.9000E+01
       21  1    3    3  502  503 0.90507048E+01 -.90370939E+01 0.10094236E+02 0.16310745E+02 0.75000000E+00 0.0000E+00 0.9000E+01
#aMCatNLO 2  0  0  4  2 0.26826382D+01 0.00000000D+00  -5  6  0 0.00000000D+00 0.00000000D+00 0.00000000D+00 0.00000000D+00 0.00000000D+00
  <mgrwgt>
 0.1124247496D-01    1    2    0
 0.533300863606841D+03 0.000000000000000D+00 0.000000000000000D+00 0.533300863606841D+03
 0.533300863606841D+03 -.000000000000000D+00 -.000000000000000D+00 -.533300863606841D+03
 0.540434932868396D+03 -.424148537533431D+03 0.159216328888424D+03 -.266820342905133D+03
 0.784589472816434D+02 0.670179481598855D+02 -.229575719051773D+02 0.337246338038121D+02
 0.447707847063644D+03 0.357130589373546D+03 -.136258756983246D+03 0.233095709101321D+03
 0.000000000000000D+00 0.000000000000000D+00 0.000000000000000D+00 0.000000000000000D+00
 0.533300863606841D+03 0.000000000000000D+00 0.000000000000000D+00 0.533300863606841D+03
 0.533300863606841D+03 -.000000000000000D+00 -.000000000000000D+00 -.533300863606841D+03
 0.537410985795566D+03 -.421481883405522D+03 0.158302843686793D+03 -.265478434708680D+03
 0.559457570896715D+02 0.531690474849201D+02 -.126126021271506D+02 0.119959323716432D+02
 0.450293870059934D+03 0.359352298380716D+03 -.137019822424444D+03 0.234213712930783D+03
 0.229511142685121D+02 0.896053753988601D+01 -.867041913519791D+01 0.192687894062545D+02
0.546935291681D-03 0.000000000000D+00 0.000000000000D+00 0.925376748276D-07 0.145355664002D-06  6 -1 2 25 4 -3 21 2 0.48938871D-01 0.13755105D+00 0.21112269D+06 0.21112269D+06 0.21112269D+06 0.10960247D+01  1  2  1  3  6  4        4 0.112424749635D-01 0.100000000000D+01
  </mgrwgt>
  </event>
  <event>
  7     66 0.18082911E-05 0.23366793E+03 0.75467711E-02 0.94171199E-01
       -1 -1    0    0    0  503 0.00000000E+00 0.00000000E+00 0.36488623E+03 0.36488637E+03 0.32000000E+00 0.0000E+00 0.9000E+01
        2 -1    0    0  501    0 0.00000000E+00 0.00000000E+00 -.37012225E+04 0.37012226E+04 0.32000000E+00 0.0000E+00 0.9000E+01
       24  2    1    2    0    0 -.20843423E+03 0.16629521E+03 -.38705262E+03 0.47691330E+03 0.80855649E+02 0.0000E+00 0.0000E+00
       25  1    1    2    0    0 0.32325681E+03 -.39073248E+03 -.31948486E+04 0.32372596E+04 0.12500000E+03 0.0000E+00 0.9000E+01
        4  1    3    3  502    0 -.38632566E+02 0.28284679E+02 -.13437747E+03 0.14266116E+03 0.15500000E+01 0.0000E+00 0.9000E+01
       -3  1    3    3    0  502 -.16980167E+03 0.13801053E+03 -.25267515E+03 0.33425214E+03 0.50000000E+00 0.0000E+00 0.9000E+01
       21  1    1    2  501  503 -.11482257E+03 0.22443727E+03 0.24556491E+03 0.35193607E+03 0.75000000E+00 0.0000E+00 0.9000E+01
#aMCatNLO 2  0  0  1  2 0.51348422D+02 0.00000000D+00  -5  6  0 0.00000000D+00 0.00000000D+00 0.00000000D+00 0.00000000D+00 0.00000000D+00
  <mgrwgt>
 0.1287193575D-02    1    2    0
 0.474738693391517D+03 0.000000000000000D+00 0.000000000000000D+00 0.474738693391517D+03
 0.474738693391517D+03 0.000000000000000D+00 0.000000000000000D+00 -.474738693391517D+03
 0.479524149226800D+03 0.259657376149476D+03 -.266418227137064D+03 -.275531822031503D+03
 0.623347383692257D+02 -.452060884908224D+02 0.412030526934019D+02 0.120140592500825D+02
 0.407618499187008D+03 -.214451287658653D+03 0.225215174443662D+03 0.263517762781421D+03
 0.000000000000000D+00 -.000000000000000D+00 0.000000000000000D+00 0.000000000000000D+00
 0.270999679830799D+04 0.000000000000000D+00 0.000000000000000D+00 0.270999679830799D+04
 0.498349343685436D+03 0.000000000000000D+00 0.000000000000000D+00 -.498349343685436D+03
 0.590516402480118D+03 0.323256806810306D+03 -.390732483288586D+03 -.275531822031503D+03
 0.492881702337262D+02 -.385716170920244D+02 0.282350218740934D+02 0.120140592500825D+02
 0.342571943462405D+03 -.169862617665176D+03 0.138060190736572D+03 0.263517762781421D+03
 0.222596962581717D+04 -.114822572053106D+03 0.224437270677920D+03 0.221164745462255D+04
0.404088039317D-02 0.000000000000D+00 0.000000000000D+00 0.148852603626D-03 0.355601849882D-07  6 -1 2 25 4 -3 21 2 0.56136348D-01 0.56941879D+00 0.27096844D+06 0.27096844D+06 0.27096844D+06 0.10878374D+01  1  2  1  1  6  1       -1 0.128719357490D-02 0.100000000000D+01
  </mgrwgt>
  </event>
  <event>
  7     66 0.18082911E-05 0.83278702E+01 0.75467711E-02 0.88608302E-01
       -1 -1    0    0    0  501 0.00000000E+00 0.00000000E+00 0.77067124E+03 0.77067131E+03 0.32000000E+00 0.0000E+00 0.9000E+01
        2 -1    0    0  501    0 -.00000000E+00 -.00000000E+00 -.10206885E+04 0.10206886E+04 0.32000000E+00 0.0000E+00 0.9000E+01
       24  2    1    2    0    0 0.63096309E+03 0.60541525E+03 -.21902936E+03 0.90748926E+03 0.10450287E+03 0.0000E+00 0.0000E+00
       25  1    1    2    0    0 -.63096309E+03 -.60541525E+03 -.30987940E+02 0.88387064E+03 0.12500000E+03 0.0000E+00 0.9000E+01
        4  1    3    3  503    0 0.15503480E+02 0.69559306E+01 -.82974516E+01 0.18973484E+02 0.15500000E+01 0.0000E+00 0.9000E+01
       -3  1    3    3    0  502 0.60371497E+03 0.60013082E+03 -.20701908E+03 0.87606274E+03 0.50000000E+00 0.0000E+00 0.9000E+01
       21  1    3    3  502  503 0.11744644E+02 -.16715069E+01 -.37128299E+01 0.12453040E+02 0.75000000E+00 0.0000E+00 0.9000E+01
#aMCatNLO 2  0  0  4  2 0.26826382D+01 0.00000000D+00  -5  6  0 0.00000000D+00 0.00000000D+00 0.00000000D+00 0.00000000D+00 0.00000000D+00
  <mgrwgt>
 0.1807341879D-04    1    2    0
 0.886913415573565D+03 0.000000000000000D+00 0.000000000000000D+00 0.886913415573565D+03
 0.886913415573565D+03 -.000000000000000D+00 -.000000000000000D+00 -.886913415573565D+03
 0.888715807228514D+03 -.631509222569755D+03 -.605521164229102D+03 0.934398603263385D+02
 0.295357112572614D+02 0.279748624260539D+02 0.514837243876004D+01 -.795358868357509D+01
 0.855575312661355D+03 0.603534360143701D+03 0.600372791790341D+03 -.854862716427633D+02
 0.000000000000000D+00 0.000000000000000D+00 0.000000000000000D+00 0.000000000000000D+00
 0.886913415573565D+03 0.000000000000000D+00 0.000000000000000D+00 0.886913415573565D+03
 0.886913415573565D+03 -.000000000000000D+00 -.000000000000000D+00 -.886913415573565D+03
 0.888264726200586D+03 -.630988201463191D+03 -.605425277762738D+03 0.932917277809855D+02
 0.163995009580580D+02 0.141002319587607D+02 0.647911900961637D+01 -.530547898325082D+01
 0.856008441544309D+03 0.604036206531332D+03 0.600465149424535D+03 -.856289525857030D+02
 0.131541624441768D+02 0.128517629730979D+02 -.151899067141406D+01 -.235729621203160D+01
0.745862958934D-05 0.000000000000D+00 0.000000000000D+00 0.151012702949D-06 0.494777869897D-08  6 -1 2 25 4 -3 21 2 0.11856482D+00 0.15702901D+00 0.77750572D+06 0.77750572D+06 0.77750572D+06 0.10552179D+01  1  2  1  3  6  4        4 0.180734187923D-04 0.100000000000D+01
  </mgrwgt>
  </event>
  <event>
  7     66 0.18082911E-05 0.59528710E+02 0.75467711E-02 0.92580224E-01
       21 -1    0    0  503  501 0.00000000E+00 0.00000000E+00 0.64900195E+03 0.64900239E+03 0.75000000E+00 0.0000E+00 0.9000E+01
        2 -1    0    0  501    0 0.00000000E+00 0.00000000E+00 -.80751311E+03 0.80751317E+03 0.32000000E+00 0.0000E+00 0.9000E+01
       24  2    1    2    0    0 0.52767110E+03 -.26734208E+03 -.40999439E+03 0.72340867E+03 0.72911776E+02 0.0000E+00 0.0000E+00
       25  1    1    2    0    0 -.50913466E+03 0.27369442E+03 0.12416838E+03 0.60429258E+03 0.12500000E+03 0.0000E+00 0.9000E+01
        4  1    3    3  502    0 0.25160935E+03 -.12675578E+03 -.15124883E+03 0.31977008E+03 0.15500000E+01 0.0000E+00 0.9000E+01
        1  1    1    2  503    0 -.18536440E+02 -.63523383E+01 0.12731485E+03 0.12881431E+03 0.32000000E+00 0.0000E+00 0.9000E+01
       -3  1    3    3    0  502 0.27606175E+03 -.14058630E+03 -.25874556E+03 0.40363859E+03 0.50000000E+00 0.0000E+00 0.9000E+01
#aMCatNLO 2  0  0  1  2 0.51348422D+02 0.00000000D+00  -5  6  0 0.00000000D+00 0.00000000D+00 0.00000000D+00 0.00000000D+00 0.00000000D+00
  <mgrwgt>
 0.1995533286D-03    1    2    0
 0.648211028139695D+03 0.000000000000000D+00 0.000000000000000D+00 0.648211028139695D+03
 0.648211028139695D+03 0.000000000000000D+00 0.000000000000000D+00 -.648211028139695D+03
 0.652186922047291D+03 -.518416213676581D+03 0.270513680378536D+03 0.260364666218010D+03
 0.291016591800571D+03 0.247314571533599D+03 -.128131253205459D+03 -.843121661586936D+02
 0.000000000000000D+00 -.000000000000000D+00 -.000000000000000D+00 0.000000000000000D+00
 0.353218542431529D+03 0.271101642142982D+03 -.142382427173077D+03 -.176052500059317D+03
 0.807655876529108D+03 0.000000000000000D+00 0.000000000000000D+00 0.807655876529108D+03
 0.648887357728328D+03 0.000000000000000D+00 0.000000000000000D+00 -.648887357728328D+03
 0.646174508713731D+03 -.509134659178796D+03 0.273694419233399D+03 0.260364666218010D+03
 0.293958141743011D+03 0.251496361550290D+03 -.126698176236279D+03 -.843121661586936D+02
 0.159973105107725D+03 -.185364396316713D+02 -.635233826201786D+01 0.158768518800780D+03
 0.356437478692968D+03 0.276174737260177D+03 -.140643904735102D+03 -.176052500059317D+03
0.530531312315D-05 0.000000000000D+00 0.000000000000D+00 0.370423437701D-05 0.189603134770D-08  6 21 2 25 4 1 -3 2 0.99846468D-01 0.12423279D+00 0.36151654D+06 0.36151654D+06 0.36151654D+06 0.10786090D+01  1  2  1  5  5  1       -1 0.199553328550D-03 0.100000000000D+01
  </mgrwgt>
  </event>
  <event>
  5     66 0.18082911E-05 0.74623939E+02 0.75467711E-02 0.91781075E-01
       -1 -1    0    0    0  501 0.00000000E+00 0.00000000E+00 0.40010658E+03 0.40010671E+03 0.32000000E+00 0.0000E+00 0.9000E+01
        2 -1    0    0  501    0 0.00000000E+00 0.00000000E+00 -.12078823E+04 0.12078824E+04 0.32000000E+00 0.0000E+00 0.9000E+01
       25  1    1    2    0    0 -.25628473E+03 0.45961970E+03 -.90214790E+03 0.10518688E+04 0.12500000E+03 0.0000E+00 0.9000E+01
        4  1    1    2  502    0 0.91075649E+02 -.44756596E+02 0.19090206E+02 0.10327035E+03 0.15500000E+01 0.0000E+00 0.9000E+01
       -3  1    1    2    0  502 0.16520908E+03 -.41486310E+03 0.75281952E+02 0.45284993E+03 0.50000000E+00 0.0000E+00 0.9000E+01
#aMCatNLO 1  0  0  1  2 0.51348422D+02 0.00000000D+00  -5  6  0 0.00000000D+00 0.00000000D+00 0.00000000D+00 0.00000000D+00 0.00000000D+00
  <mgrwgt>
 0.1056933629D-02    4    2    0
 0.695184724597272D+03 0.000000000000000D+00 0.000000000000000D+00 0.695184724597272D+03
 0.695184724597272D+03 0.000000000000000D+00 0.000000000000000D+00 -.695184724597272D+03
 0.692377576811568D+03 -.256284809300142D+03 0.459619842508402D+03 -.432237672775061D+03
 0.130468191259169D+03 0.910591570891110D+02 -.447150710657539D+02 0.820410949478638D+02
 0.567523681123807D+03 0.165225652211031D+03 -.414904771442648D+03 0.350196577827197D+03
 0.000000000000000D+00 0.000000000000000D+00 -.000000000000000D+00 -.000000000000000D+00
 0.717415578275465D+03 0.000000000000000D+00 0.000000000000000D+00 0.717415578275465D+03
 0.131530421469463D+04 0.000000000000000D+00 0.000000000000000D+00 -.131530421469463D+04
 0.771992787917680D+03 -.292115110173862D+03 0.555146126023612D+03 -.432237672775061D+03
 0.121400853972427D+03 0.848964103627435D+02 -.282847236597906D+02 0.820410949478638D+02
 0.510539689247267D+03 0.138847533770704D+03 -.344578718931696D+03 0.350196577827197D+03
 0.628786461832725D+03 0.683711660404143D+02 -.182282683432125D+03 -.597888636419170D+03
0.205946478655D-03 0.000000000000D+00 0.000000000000D+00 0.101025553210D-07 0.000000000000D+00  6 -1 2 25 4 -3 21 0 0.61554872D-01 0.18582806D+00 0.29643912D+06 0.29643912D+06 0.29643912D+06 0.10849357D+01  1  2  2  1  6  1       -1 0.146668044757D-02 0.100000000000D+01
0.176955097547D-04 0.000000000000D+00 -.790888704988D-06 0.101025553210D-07 0.000000000000D+00  6 -1 2 25 4 -3 21 2 0.61554872D-01 0.18582806D+00 0.29643912D+06 0.29643912D+06 0.29643912D+06 0.10849357D+01  1  2  3  1  6  1       -1 0.148337938933D-03 0.100000000000D+01
-.607698050869D-04 0.000000000000D+00 0.000000000000D+00 0.101025553210D-07 0.000000000000D+00  6 -1 2 25 4 -3 21 2 0.61554872D-01 0.18582806D+00 0.29643912D+06 0.29643912D+06 0.29643912D+06 0.10849357D+01  1  2 15  1  6  1       -1 -.509421189945D-03 0.100000000000D+01
-.580516786062D-05 0.000000000000D+00 0.000000000000D+00 0.101025553210D-07 0.000000000000D+00  6 -1 2 25 4 -3 21 2 0.61554872D-01 0.18582806D+00 0.29643912D+06 0.29643912D+06 0.29643912D+06 0.10849357D+01  1  2  4  1  6  1       -1 -.486635676247D-04 0.100000000000D+01
  </mgrwgt>
  </event>
  <event>
  6     66 0.18082911E-05 0.41471618E+02 0.75467711E-02 0.94901798E-01
       -1 -1    0    0    0  501 0.00000000E+00 0.00000000E+00 0.16084905E+03 0.16084937E+03 0.32000000E+00 0.0000E+00 0.9000E+01
        2 -1    0    0  501    0 -.00000000E+00 -.00000000E+00 -.15020194E+04 0.15020194E+04 0.32000000E+00 0.0000E+00 0.9000E+01
       25  1    1    2    0    0 0.25906432E+03 0.39802832E+03 -.63907999E+03 0.80597090E+03 0.12500000E+03 0.0000E+00 0.9000E+01
        4  1    1    2  502    0 -.17217716E+03 -.28716879E+03 -.54134281E+03 0.63652599E+03 0.15500000E+01 0.0000E+00 0.9000E+01
       -3  1    1    2    0  503 -.72386106E+02 -.11419522E+03 -.13813189E+03 0.19328985E+03 0.50000000E+00 0.0000E+00 0.9000E+01
       21  1    1    2  503  502 -.14501055E+02 0.33356867E+01 -.22615658E+02 0.27082058E+02 0.75000000E+00 0.0000E+00 0.9000E+01
#aMCatNLO 2  0  0  5  2 0.58632133D+00 0.00000000D+00  -5  6  0 0.00000000D+00 0.00000000D+00 0.00000000D+00 0.00000000D+00 0.00000000D+00
  <mgrwgt>
 0.2130138811D-02    1    2    0
 0.491526887804495D+03 0.000000000000000D+00 0.000000000000000D+00 0.491526887804495D+03
 0.491526887804495D+03 -.000000000000000D+00 -.000000000000000D+00 -.491526887804495D+03
 0.496021138297166D+03 0.262023768426783D+03 0.401804286500315D+03 0.175735530561052D+02
 0.335062158245612D+03 -.170166232479410D+03 -.284618586620555D+03 -.479829486597948D+02
 0.151970479066212D+03 -.918575359473732D+02 -.117185699879761D+03 0.304093956036896D+02
 0.000000000000000D+00 -.000000000000000D+00 0.000000000000000D+00 0.000000000000000D+00
 0.491526887804495D+03 0.000000000000000D+00 0.000000000000000D+00 0.491526887804495D+03
 0.491526887804495D+03 -.000000000000000D+00 -.000000000000000D+00 -.491526887804495D+03
 0.491408274257489D+03 0.259045655230290D+03 0.398005008894478D+03 0.185594560787666D+02
 0.338199777498956D+03 -.172196808265431D+03 -.287209059380242D+03 -.473107274670149D+02
 0.138412416728616D+03 -.722564679554832D+02 -.114161760404060D+03 0.300681293847872D+02
 0.150333071239292D+02 -.145923790093758D+02 0.336581088982424D+01 -.131685799653898D+01
0.734875891290D-04 0.000000000000D+00 0.000000000000D+00 0.705038583730D-04 0.105330905765D-05  6 -1 2 25 4 -3 21 2 0.24746034D-01 0.23107993D+00 0.23815107D+06 0.23815107D+06 0.23815107D+06 0.10920491D+01  1  2  1  4  6  5       -3 0.213013881135D-02 0.100000000000D+01
  </mgrwgt>
  </event>
  <event>
  7     66 0.18082911E-05 0.70019180E+02 0.75467711E-02 0.94677193E-01
       -1 -1    0    0    0  501 0.00000000E+00 0.00000000E+00 0.22446067E+03 0.22446090E+03 0.32000000E+00 0.0000E+00 0.9000E+01
        2 -1    0    0  503    0 0.00000000E+00 0.00000000E+00 -.17475178E+04 0.17475178E+04 0.32000000E+00 0.0000E+00 0.9000E+01
       24  2    1    2    0    0 0.39758560E+03 -.27913325E+03 -.12982300E+04 0.13886825E+04 0.83953796E+02 0.0000E+00 0.0000E+00
       25  1    1    2    0    0 -.38565333E+03 0.28578374E+03 -.16623051E+03 0.52312371E+03 0.12500000E+03 0.0000E+00 0.9000E+01
        4  1    3    3  502    0 0.18320766E+03 -.12670167E+03 -.71455584E+03 0.74847232E+03 0.15500000E+01 0.0000E+00 0.9000E+01
       -3  1    3    3    0  502 0.21437794E+03 -.15243158E+03 -.58367418E+03 0.64021019E+03 0.50000000E+00 0.0000E+00 0.9000E+01
       21  1    1    2  503  501 -.11932268E+02 -.66504911E+01 -.58596583E+02 0.60172503E+02 0.75000000E+00 0.0000E+00 0.9000E+01
#aMCatNLO 2  0  0  2  1 0.48000167D+02 0.00000000D+00  -5  6  0 0.00000000D+00 0.00000000D+00 0.00000000D+00 0.00000000D+00 0.00000000D+00
  <mgrwgt>
 0.5607619656D-02    1    2    0
 0.614445229527736D+03 0.000000000000000D+00 0.000000000000000D+00 0.614445229527736D+03
 0.614445229527736D+03 0.000000000000000D+00 0.000000000000000D+00 -.614445229527736D+03
 0.617934865683244D+03 -.391642306552207D+03 0.282445762336347D+03 0.364772796797781D+03
 0.311695788158330D+03 0.180109439603532D+03 -.128343870693119D+03 -.219642220387730D+03
 0.299259805213899D+03 0.211532866948675D+03 -.154101891643228D+03 -.145130576410051D+03
 0.000000000000000D+00 -.000000000000000D+00 -.000000000000000D+00 -.000000000000000D+00
 0.616642008802702D+03 0.000000000000000D+00 0.000000000000000D+00 0.616642008802702D+03
 0.636093173444783D+03 0.000000000000000D+00 0.000000000000000D+00 -.636093173444783D+03
 0.615698814114001D+03 -.385653329688783D+03 0.285783739421379D+03 0.364772796797781D+03
 0.312769300639909D+03 0.183141058332881D+03 -.126654187450073D+03 -.219642220387730D+03
 0.300498267378070D+03 0.214444539416141D+03 -.152479060866426D+03 -.145130576410051D+03
 0.237688001155050D+02 -.119322680602387D+02 -.665049110488006D+01 -.194511646420812D+02
0.462512814785D-03 0.000000000000D+00 0.000000000000D+00 0.188401469162D-04 0.641157730915D-06  6 -1 2 25 4 -3 21 2 0.34532101D-01 0.26884634D+00 0.24773930D+06 0.24773930D+06 0.24773930D+06 0.10907560D+01  1  2  1  2  6  2        2 0.560761965615D-02 0.100000000000D+01
  </mgrwgt>
  </event>
  <event>
  6     66 0.18082911E-05 0.69043921E+02 0.75467711E-02 0.93460447E-01
       -1 -1    0    0    0  501 0.00000000E+00 0.00000000E+00 0.66928312E+03 0.66928319E+03 0.32000000E+00 0.0000E+00 0.9000E+01
        2 -1    0    0  501    0 0.00000000E+00 0.00000000E+00 -.50159538E+03 0.50159548E+03 0.32000000E+00 0.0000E+00 0.9000E+01
       25  1    1    2    0    0 -.36202240E+03 0.39992969E+03 0.24076468E+03 0.60381835E+03 0.12500000E+03 0.0000E+00 0.9000E+01
        4  1    1    2  503    0 0.16714170E+03 -.21655464E+03 -.72842131E+02 0.28309122E+03 0.15500000E+01 0.0000E+00 0.9000E+01
       -3  1    1    2    0  502 0.17605625E+03 -.19296727E+03 0.78599066E+01 0.26133159E+03 0.50000000E+00 0.0000E+00 0.9000E+01
       21  1    1    2  502  503 0.18824447E+02 0.95922111E+01 -.80947126E+01 0.22637517E+02 0.75000000E+00 0.0000E+00 0.9000E+01
#aMCatNLO 2  0  0  4  2 0.26826382D+01 0.00000000D+00  -5  6  0 0.00000000D+00 0.00000000D+00 0.00000000D+00 0.00000000D+00 0.00000000D+00
  <mgrwgt>
 0.1804555323D-01    1    2    0
 0.579404370133058D+03 0.000000000000000D+00 0.000000000000000D+00 0.579404370133058D+03
 0.579404370133058D+03 -.000000000000000D+00 -.000000000000000D+00 -.579404370133058D+03
 0.582640110320410D+03 -.366667078056274D+03 0.405098775645536D+03 0.159043182797448D+03
 0.316368071141632D+03 0.192599556790107D+03 -.214346702567191D+03 -.130574339978047D+03
 0.259800558804073D+03 0.174067521266166D+03 -.190752073078344D+03 -.284688428194003D+02
 0.000000000000000D+00 0.000000000000000D+00 0.000000000000000D+00 -.000000000000000D+00
 0.579404370133058D+03 0.000000000000000D+00 0.000000000000000D+00 0.579404370133058D+03
 0.579404370133058D+03 -.000000000000000D+00 -.000000000000000D+00 -.579404370133058D+03
 0.575234563687431D+03 -.362002039882217D+03 0.399906990333959D+03 0.155880484550880D+03
 0.296336725550637D+03 0.166916621082435D+03 -.216448553118648D+03 -.114474103487822D+03
 0.263092232257663D+03 0.176174238759864D+03 -.193096668027266D+03 -.298971080285439D+02
 0.241452187703844D+02 0.189111800399185D+02 0.963823081195496D+01 -.115092730345141D+02
0.197918387644D-02 0.000000000000D+00 0.000000000000D+00 0.351553753644D-05 0.183984892452D-05  6 -1 2 25 4 -3 21 2 0.10296665D+00 0.77168534D-01 0.30783534D+06 0.30783534D+06 0.30783534D+06 0.10837244D+01  1  2  1  3  6  4        4 0.180455532338D-01 0.100000000000D+01
  </mgrwgt>
  </event>
  <event>
  7     66 0.18082911E-05 0.18317146E+02 0.75467711E-02 0.92643816E-01
       21 -1    0    0  503  501 0.00000000E+00 0.00000000E+00 0.19200231E+03 0.19200377E+03 0.75000000E+00 0.0000E+00 0.9000E+01
        2 -1    0    0  501    0 0.00000000E+00 0.00000000E+00 -.20083800E+04 0.20083801E+04 0.32000000E+00 0.0000E+00 0.9000E+01
       24  2    1    2    0    0 -.46192688E+03 0.32239186E+03 -.11219426E+04 0.12579888E+04 0.80422618E+02 0.0000E+00 0.0000E+00
       25  1    1    2    0    0 0.45952055E+03 -.35804511E+03 -.67935983E+03 0.90360955E+03 0.12500000E+03 0.0000E+00 0.9000E+01
        4  1    3    3  502    0 -.67642166E+02 0.59348392E+02 -.24743556E+03 0.26329537E+03 0.15500000E+01 0.0000E+00 0.9000E+01
        1  1    1    2  503    0 0.24063327E+01 0.35653247E+02 -.15075344E+02 0.38785472E+02 0.32000000E+00 0.0000E+00 0.9000E+01
       -3  1    3    3    0  502 -.39428472E+03 0.26304347E+03 -.87450700E+03 0.99469344E+03 0.50000000E+00 0.0000E+00 0.9000E+01
#aMCatNLO 2  0  0  1  2 0.68685376D+02 0.00000000D+00  -5  6  0 0.00000000D+00 0.00000000D+00 0.00000000D+00 0.00000000D+00 0.00000000D+00
  <mgrwgt>
 0.1620807157D-03    1    2    0
 0.597189301955286D+03 0.000000000000000D+00 0.000000000000000D+00 0.597189301955286D+03
 0.597189301955286D+03 0.000000000000000D+00 0.000000000000000D+00 -.597189301955286D+03
 0.601022760838309D+03 0.460740725982177D+03 -.339966472951684D+03 0.133207130949932D+03
 0.104802492791527D+03 -.672888484118598D+02 0.623556280290886D+02 -.506709880288685D+02
 0.000000000000000D+00 0.000000000000000D+00 0.000000000000000D+00 0.000000000000000D+00
 0.488553350280736D+03 -.393451877570317D+03 0.277610844922595D+03 -.825361429210636D+02
 0.636773001182776D+03 0.000000000000000D+00 0.000000000000000D+00 0.636773001182776D+03
 0.605576176622006D+03 0.000000000000000D+00 0.000000000000000D+00 -.605576176622006D+03
 0.610511734207329D+03 0.459520550524849D+03 -.358045111004560D+03 0.133207130949932D+03
 0.103123586186248D+03 -.674982574708214D+02 0.592529344293894D+02 -.506709880288685D+02
 0.474361291017203D+02 0.240633266889120D+01 0.356532473214741D+02 0.311968245607706D+02
 0.481277728309485D+03 -.394428625722919D+03 0.263138929253696D+03 -.825361429210636D+02
0.139433813481D-05 0.000000000000D+00 0.000000000000D+00 0.206878898528D-03 0.110664448827D-07  6 21 2 25 4 1 -3 2 0.29538905D-01 0.30898139D+00 0.35730534D+06 0.35730534D+06 0.35730534D+06 0.10789794D+01  1  2  1  5  5  1       -1 0.162080715716D-03 0.100000000000D+01
  </mgrwgt>
  </event>
  <event>
  7     66 0.18082911E-05 0.72978010E+02 0.75467711E-02 0.92181113E-01
       -1 -1    0    0    0  501 0.00000000E+00 0.00000000E+00 0.81136031E+03 0.81136037E+03 0.32000000E+00 0.0000E+00 0.9000E+01
        2 -1    0    0  503    0 0.00000000E+00 0.00000000E+00 -.94467253E+03 0.94467258E+03 0.32000000E+00 0.0000E+00 0.9000E+01
       24  2    1    2    0    0 -.14359201E+03 -.58621042E+03 0.48345547E+03 0.77746809E+03 0.80412180E+02 0.0000E+00 0.0000E+00
       25  1    1    2    0    0 0.18477612E+03 0.50884372E+03 -.26410821E+03 0.61517663E+03 0.12500000E+03 0.0000E+00 0.9000E+01
        4  1    3    3  502    0 -.11583298E+03 -.52027075E+03 0.45377678E+03 0.70001050E+03 0.15500000E+01 0.0000E+00 0.9000E+01
       -3  1    3    3    0  502 -.27759027E+02 -.65939665E+02 0.29678692E+02 0.77457587E+02 0.50000000E+00 0.0000E+00 0.9000E+01
       21  1    1    2  503  501 -.41184113E+02 0.77366699E+02 -.35265948E+03 0.36338823E+03 0.75000000E+00 0.0000E+00 0.9000E+01
#aMCatNLO 2  0  0  2  1 0.48000167D+02 0.00000000D+00  -5  6  0 0.00000000D+00 0.00000000D+00 0.00000000D+00 0.00000000D+00 0.00000000D+00
  <mgrwgt>
 0.4767034979D-03    1    2    0
 0.686233261177199D+03 0.000000000000000D+00 0.000000000000000D+00 0.686233261177199D+03
 0.686233261177199D+03 0.000000000000000D+00 0.000000000000000D+00 -.686233261177199D+03
 0.689569911333652D+03 0.164472119785847D+03 0.546985940744206D+03 -.365563900102329D+03
 0.611924849789398D+03 -.134538768330332D+03 -.485115522926367D+03 0.347871055165289D+03
 0.709717612313487D+02 -.299333514555156D+02 -.618704178178392D+02 0.176928449370403D+02
 0.000000000000000D+00 -.000000000000000D+00 0.000000000000000D+00 -.000000000000000D+00
 0.692207354904972D+03 0.000000000000000D+00 0.000000000000000D+00 0.692207354904972D+03
 0.110728260975277D+04 0.000000000000000D+00 0.000000000000000D+00 -.110728260975277D+04
 0.665076017176151D+03 0.184776122432455D+03 0.508843716816561D+03 -.365563900102329D+03
 0.636480396318589D+03 -.115827145693338D+03 -.520266370426334D+03 0.347871055165289D+03
 0.737057768787202D+02 -.277648636943462D+02 -.659440454276496D+02 0.176928449370403D+02
 0.424227774284279D+03 -.411841130447709D+02 0.773666990374222D+02 -.415075254847795D+03
0.185712151258D-03 0.000000000000D+00 0.000000000000D+00 0.579782837940D-04 0.507236082484D-07  6 -1 2 25 4 -3 21 2 0.12482461D+00 0.14533417D+00 0.38924997D+06 0.38924997D+06 0.38924997D+06 0.10762816D+01  1  2  1  2  6  2        2 0.476703497934D-03 0.100000000000D+01
  </mgrwgt>
  </event>
  <event>
  7     66 0.18082911E-05 0.13985484E+03 0.75467711E-02 0.91943130E-01
       21 -1    0    0  503  501 0.00000000E+00 0.00000000E+00 0.23393154E+03 0.23393275E+03 0.75000000E+00 0.0000E+00 0.9000E+01
        2 -1    0    0  501    0 0.00000000E+00 0.00000000E+00 -.29043775E+04 0.29043775E+04 0.32000000E+00 0.0000E+00 0.9000E+01
       24  2    1    2    0    0 -.24423272E+03 -.52210371E+03 -.21584739E+04 0.22355712E+04 0.80791054E+02 0.0000E+00 0.0000E+00
       25  1    1    2    0    0 0.33718503E+03 0.37259489E+03 -.50981781E+03 0.72667730E+03 0.12500000E+03 0.0000E+00 0.9000E+01
        4  1    3    3  502    0 -.10019281E+03 -.30788190E+03 -.12230708E+04 0.12652014E+04 0.15500000E+01 0.0000E+00 0.9000E+01
        1  1    1    2  503    0 -.92952303E+02 0.14950882E+03 -.21543059E+01 0.17606181E+03 0.32000000E+00 0.0000E+00 0.9000E+01
       -3  1    3    3    0  502 -.14403992E+03 -.21422181E+03 -.93540305E+03 0.97036983E+03 0.50000000E+00 0.0000E+00 0.9000E+01
#aMCatNLO 2  0  0  1  2 0.25669186D+01 0.00000000D+00  -5  6  0 0.00000000D+00 0.00000000D+00 0.00000000D+00 0.00000000D+00 0.00000000D+00
  <mgrwgt>
 0.7663699491D-03    1    2    0
 0.637209263055405D+03 0.000000000000000D+00 0.000000000000000D+00 0.637209263055405D+03
 0.637209263055405D+03 0.000000000000000D+00 0.000000000000000D+00 -.637209263055405D+03
 0.640778657834807D+03 0.291575555503045D+03 0.445955287341361D+03 0.333286461564151D+03
 0.351138845885324D+03 -.126549466306437D+03 -.265342397685718D+03 -.192034199187611D+03
 0.000000000000000D+00 -.000000000000000D+00 0.000000000000000D+00 0.000000000000000D+00
 0.282501022390679D+03 -.165026089196608D+03 -.180612889655643D+03 -.141252262376539D+03
 0.102381891381143D+04 0.000000000000000D+00 0.000000000000000D+00 0.102381891381143D+04
 0.663620582196286D+03 0.000000000000000D+00 0.000000000000000D+00 -.663620582196286D+03
 0.615812925674548D+03 0.337185025170402D+03 0.372594890956290D+03 0.333286461564151D+03
 0.376371936519233D+03 -.100143606679327D+03 -.307814812806119D+03 -.192034199187611D+03
 0.400918763099903D+03 -.929523028699206D+02 0.149508815453799D+03 0.360198331615149D+03
 0.294335870714037D+03 -.144089115621155D+03 -.214288893603969D+03 -.141252262376539D+03
0.331008187006D-04 0.000000000000D+00 0.000000000000D+00 0.194768169208D-03 0.256077890560D-08  6 21 2 25 4 1 -3 2 0.35989559D-01 0.44682736D+00 0.40691578D+06 0.40691578D+06 0.40691578D+06 0.10748914D+01  1  2  1  5  5  1       -1 0.766369949078D-03 0.100000000000D+01
  </mgrwgt>
  </event>
  <event>
  7     66 0.18082911E-05 0.10786519E+03 0.75467711E-02 0.95025620E-01
       -1 -1    0    0    0  501 0.00000000E+00 0.00000000E+00 0.38657571E+03 0.38657584E+03 0.32000000E+00 0.0000E+00 0.9000E+01
        2 -1    0    0  503    0 0.00000000E+00 0.00000000E+00 -.72864384E+03 0.72864391E+03 0.32000000E+00 0.0000E+00 0.9000E+01
       24  2    1    2    0    0 -.13014441E+03 -.31976226E+03 0.73733321E+02 0.36194858E+03 0.79904346E+02 0.0000E+00 0.0000E+00
       25  1    1    2    0    0 0.24769218E+03 0.38952196E+03 -.25412962E+03 0.54155853E+03 0.12500000E+03 0.0000E+00 0.9000E+01
        4  1    3    3  502    0 -.17123576E+02 -.11859429E+03 0.40837095E+00 0.11983485E+03 0.15500000E+01 0.0000E+00 0.9000E+01
       -3  1    3    3    0  502 -.11302083E+03 -.20116797E+03 0.73324950E+02 0.24211373E+03 0.50000000E+00 0.0000E+00 0.9000E+01
       21  1    1    2  503  501 -.11754778E+03 -.69759701E+02 -.16167184E+03 0.21171264E+03 0.75000000E+00 0.0000E+00 0.9000E+01
#aMCatNLO 2  0  0  2  2 0.17262056D+03 0.00000000D+00  -5  6  0 0.00000000D+00 0.00000000D+00 0.00000000D+00 0.00000000D+00 0.00000000D+00
  <mgrwgt>
 0.6449337333D-02    1    2    0
 0.437349512460437D+03 0.000000000000000D+00 0.000000000000000D+00 0.437349512460437D+03
 0.437349512460437D+03 0.000000000000000D+00 0.000000000000000D+00 -.437349512460437D+03
 0.442631498229353D+03 0.184675332667706D+03 0.352124090790011D+03 -.149000971185229D+03
 0.135518940988746D+03 -.343000191101598D+02 -.128741561557179D+03 0.247891585894486D+02
 0.296548585702776D+03 -.150375313557547D+03 -.223382529232832D+03 0.124211812595780D+03
 0.000000000000000D+00 -.000000000000000D+00 -.000000000000000D+00 -.000000000000000D+00
 0.473289489561156D+03 0.000000000000000D+00 0.000000000000000D+00 0.473289489561156D+03
 0.595143673123455D+03 0.000000000000000D+00 0.000000000000000D+00 -.595143673123455D+03
 0.500904249568203D+03 0.247692184561688D+03 0.389521962831882D+03 -.149000971185229D+03
 0.122286702176097D+03 -.170816995386186D+02 -.118523207374779D+03 0.247891585894486D+02
 0.262123839738156D+03 -.113062707677546D+03 -.201239054617555D+03 0.124211812595780D+03
 0.183118371202156D+03 -.117547777345523D+03 -.697597008395481D+02 -.121854183562299D+03
0.348465194187D-03 0.000000000000D+00 0.000000000000D+00 0.229364570406D-03 0.819485399115D-07  6 -1 2 25 4 -3 21 2 0.59473109D-01 0.11209889D+00 0.23304371D+06 0.23304371D+06 0.23304371D+06 0.10927613D+01  1  2  1  2  6  2        2 0.644933733315D-02 0.100000000000D+01
  </mgrwgt>
  </event>
  <event>
  7     66 0.18082911E-05 0.89259250E+02 0.75467711E-02 0.94153401E-01
       21 -1    0    0  503  501 0.00000000E+00 0.00000000E+00 0.22853389E+03 0.22853512E+03 0.75000000E+00 0.0000E+00 0.9000E+01
        2 -1    0    0  501    0 0.00000000E+00 0.00000000E+00 -.12629415E+04 0.12629415E+04 0.32000000E+00 0.0000E+00 0.9000E+01
       24  2    1    2    0    0 -.34418985E+03 0.24974767E+03 -.59434309E+03 0.73509903E+03 0.79286301E+02 0.0000E+00 0.0000E+00
       25  1    1    2    0    0 0.44248893E+03 -.18229062E+03 -.37378421E+03 0.61997255E+03 0.12500000E+03 0.0000E+00 0.9000E+01
        4  1    3    3  502    0 -.23567028E+03 0.13786124E+03 -.42300583E+03 0.50347050E+03 0.15500000E+01 0.0000E+00 0.9000E+01
        1  1    1    2  503    0 -.98299080E+02 -.67457053E+02 -.66280308E+02 0.13640508E+03 0.32000000E+00 0.0000E+00 0.9000E+01
       -3  1    3    3    0  502 -.10851957E+03 0.11188643E+03 -.17133725E+03 0.23162853E+03 0.50000000E+00 0.0000E+00 0.9000E+01
#aMCatNLO 2  0  0  1  2 0.12631168D+03 0.00000000D+00  -5  6  0 0.00000000D+00 0.00000000D+00 0.00000000D+00 0.00000000D+00 0.00000000D+00
  <mgrwgt>
 0.3978511806D-03    1    2    0
 0.470301858389824D+03 0.000000000000000D+00 0.000000000000000D+00 0.470301858389824D+03
 0.470301858389824D+03 0.000000000000000D+00 0.000000000000000D+00 -.470301858389824D+03
 0.475266054454962D+03 0.391502206791109D+03 -.217279904843727D+03 0.988346474976269D+02
 0.304628980379912D+03 -.266460032670439D+03 0.116672661861186D+03 -.904729608822397D+02
 0.000000000000000D+00 -.000000000000000D+00 -.000000000000000D+00 0.000000000000000D+00
 0.160708681944772D+03 -.125042174120670D+03 0.100607242982541D+03 -.836168661538717D+01
 0.559977568532432D+03 0.000000000000000D+00 0.000000000000000D+00 0.559977568532432D+03
 0.515423608377906D+03 0.000000000000000D+00 0.000000000000000D+00 -.515423608377906D+03
 0.504400252262749D+03 0.442488933417113D+03 -.182290621646124D+03 0.988346474976269D+02
 0.287586759394586D+03 -.235638168306576D+03 0.137823949897693D+03 -.904729608822397D+02
 0.127272221996427D+03 -.982990797385775D+02 -.674570533673497D+02 0.445539601545260D+02
 0.156141943256575D+03 -.108551685371959D+03 0.111923725115780D+03 -.836168661538717D+01
0.182382823987D-05 0.000000000000D+00 0.000000000000D+00 0.144938118145D-03 0.182702866424D-08  6 21 2 25 4 1 -3 2 0.35159144D-01 0.19429871D+00 0.27182888D+06 0.27182888D+06 0.27182888D+06 0.10877346D+01  1  2  1  5  5  1       -1 0.397851180572D-03 0.100000000000D+01
  </mgrwgt>
  </event>
  <event>
  7     66 0.18082911E-05 0.35644290E+02 0.75467711E-02 0.93863899E-01
       -1 -1    0    0    0  501 0.00000000E+00 0.00000000E+00 0.28628051E+03 0.28628069E+03 0.32000000E+00 0.0000E+00 0.9000E+01
        2 -1    0    0  503    0 0.00000000E+00 0.00000000E+00 -.12140503E+04 0.12140504E+04 0.32000000E+00 0.0000E+00 0.9000E+01
       24  2    1    2    0    0 -.28564575E+03 -.44023509E+03 -.17645501E+03 0.55903454E+03 0.77348666E+02 0.0000E+00 0.0000E+00
       25  1    1    2    0    0 0.27640133E+03 0.40406537E+03 -.59501672E+03 0.78060004E+03 0.12500000E+03 0.0000E+00 0.9000E+01
        4  1    3    3  502    0 -.72956360E+02 -.15836245E+03 -.86499876E+02 0.19464307E+03 0.15500000E+01 0.0000E+00 0.9000E+01
       -3  1    3    3    0  502 -.21268939E+03 -.28187264E+03 -.89955132E+02 0.36439146E+03 0.50000000E+00 0.0000E+00 0.9000E+01
       21  1    1    2  503  501 0.92444207E+01 0.36169720E+02 -.15629807E+03 0.16069647E+03 0.75000000E+00 0.0000E+00 0.9000E+01
#aMCatNLO 2  0  0  2  2 0.17262056D+03 0.00000000D+00  -5  6  0 0.00000000D+00 0.00000000D+00 0.00000000D+00 0.00000000D+00 0.00000000D+00
  <mgrwgt>
 0.1458571312D-02    1    2    0
 0.547279282534008D+03 0.000000000000000D+00 0.000000000000000D+00 0.547279282534008D+03
 0.547279282534008D+03 0.000000000000000D+00 0.000000000000000D+00 -.547279282534008D+03
 0.551683881913184D+03 0.280991849773820D+03 0.422026222401606D+03 -.177953796050876D+03
 0.171265857748200D+03 -.714036633595919D+02 -.152503137791336D+03 0.312458613716059D+02
 0.371608825406632D+03 -.209588186414228D+03 -.269523084610270D+03 0.146707934679270D+03
 0.000000000000000D+00 0.000000000000000D+00 0.000000000000000D+00 -.000000000000000D+00
 0.551835100951692D+03 0.000000000000000D+00 0.000000000000000D+00 0.551835100951692D+03
 0.629820535137421D+03 0.000000000000000D+00 0.000000000000000D+00 -.629820535137421D+03
 0.535685607788476D+03 0.276401332818607D+03 0.404065366096736D+03 -.177953796050876D+03
 0.177007977618944D+03 -.728739611391891D+02 -.158255824776780D+03 0.312458613716059D+02
 0.382501447591430D+03 -.212771792379895D+03 -.281979261079834D+03 0.146707934679270D+03
 0.864606030902645D+02 0.924442070047747D+01 0.361697197598777D+02 -.779854341857295D+02
0.945300323947D-04 0.000000000000D+00 0.000000000000D+00 0.293882889172D-04 0.133504830181D-06  6 -1 2 25 4 -3 21 2 0.44043044D-01 0.18677644D+00 0.28626382D+06 0.28626382D+06 0.28626382D+06 0.10860610D+01  1  2  1  2  6  2        2 0.145857131151D-02 0.100000000000D+01
  </mgrwgt>
  </event>
  <event>
  7     66 0.18082911E-05 0.37991699E+02 0.75467711E-02 0.90371329E-01
       -1 -1    0    0    0  503 0.00000000E+00 0.00000000E+00 0.47032319E+03 0.47032330E+03 0.32000000E+00 0.0000E+00 0.9000E+01
        2 -1    0    0  501    0 0.00000000E+00 0.00000000E+00 -.12307837E+04 0.12307837E+04 0.32000000E+00 0.0000E+00 0.9000E+01
       24  2    1    2    0    0 0.11619962E+03 -.72581022E+03 -.20031783E+03 0.76617847E+03 0.81236674E+02 0.0000E+00 0.0000E+00
       25  1    1    2    0    0 -.10645199E+03 0.69693813E+03 -.54975847E+03 0.90272596E+03 0.12500000E+03 0.0000E+00 0.9000E+01
        4  1    3    3  502    0 0.85880220E+02 -.50643022E+03 -.17782870E+03 0.54357375E+03 0.15500000E+01 0.0000E+00 0.9000E+01
       -3  1    3    3    0  502 0.30319399E+02 -.21938000E+03 -.22489133E+02 0.22260472E+03 0.50000000E+00 0.0000E+00 0.9000E+01
       21  1    1    2  501  503 -.97476292E+01 0.28872088E+02 -.10384223E+02 0.32202613E+02 0.75000000E+00 0.0000E+00 0.9000E+01
#aMCatNLO 2  0  0  1  1 0.67832364D+02 0.00000000D+00  -5  6  0 0.00000000D+00 0.00000000D+00 0.00000000D+00 0.00000000D+00 0.00000000D+00
  <mgrwgt>
 0.7863213886D-03    1    2    0
 0.745268228563853D+03 0.000000000000000D+00 0.000000000000000D+00 0.745268228563853D+03
 0.745268228563853D+03 0.000000000000000D+00 0.000000000000000D+00 -.745268228563853D+03
 0.748295864282776D+03 -.111298178513025D+03 0.711292342945399D+03 -.161237771101047D+03
 0.508696532943374D+03 0.825125190373641D+02 -.496417582863524D+03 0.743870301507860D+02
 0.233544059901556D+03 0.287856594756610D+02 -.214874760081875D+03 0.868507409502614D+02
 0.000000000000000D+00 -.000000000000000D+00 0.000000000000000D+00 0.000000000000000D+00
 0.763120139357425D+03 0.000000000000000D+00 0.000000000000000D+00 0.763120139357425D+03
 0.758542811535869D+03 0.000000000000000D+00 0.000000000000000D+00 -.758542811535869D+03
 0.733946456091033D+03 -.106451990765465D+03 0.696938128703705D+03 -.161237771101047D+03
 0.518958178921287D+03 0.858724336781128D+02 -.506369515619614D+03 0.743870301507860D+02
 0.237943292761232D+03 0.303271862558625D+02 -.219440700737694D+03 0.868507409502614D+02
 0.308150231197407D+02 -.974762916851071D+01 0.288720876536034D+02 0.457732782155608D+01
0.140984486168D-03 0.000000000000D+00 0.000000000000D+00 0.177497270026D-03 0.115788097661D-05  6 -1 2 25 4 -3 21 2 0.72356991D-01 0.18935021D+00 0.54879607D+06 0.54879607D+06 0.54879607D+06 0.10656639D+01  1  2  1  1  6  1       -1 0.786321388570D-03 0.100000000000D+01
  </mgrwgt>
  </event>
  <event>
  7     66 0.18082911E-05 0.22047333E+02 0.75467711E-02 0.91802015E-01
       -1 -1    0    0    0  503 0.00000000E+00 0.00000000E+00 0.12796814E+04 0.12796814E+04 0.32000000E+00 0.0000E+00 0.9000E+01
        2 -1    0    0  501    0 0.00000000E+00 0.00000000E+00 -.42041504E+03 0.42041516E+03 0.32000000E+00 0.0000E+00 0.9000E+01
       24  2    1    2    0    0 0.53975565E+02 -.60520058E+03 0.47795844E+02 0.61482552E+03 0.80900420E+02 0.0000E+00 0.0000E+00
       25  1    1    2    0    0 -.59425353E+02 0.63724782E+03 0.65061811E+03 0.92116507E+03 0.12500000E+03 0.0000E+00 0.9000E+01
        4  1    3    3  502    0 0.19947618E+02 -.11044625E+03 -.20880484E+02 0.11416952E+03 0.15500000E+01 0.0000E+00 0.9000E+01
       -3  1    3    3    0  502 0.34027947E+02 -.49475433E+03 0.68676328E+02 0.50065600E+03 0.50000000E+00 0.0000E+00 0.9000E+01
       21  1    1    2  501  503 0.54497874E+01 -.32047240E+02 0.16085241E+03 0.16410602E+03 0.75000000E+00 0.0000E+00 0.9000E+01
#aMCatNLO 2  0  0  1  1 0.67832364D+02 0.00000000D+00  -5  6  0 0.00000000D+00 0.00000000D+00 0.00000000D+00 0.00000000D+00 0.00000000D+00
  <mgrwgt>
 0.9254632948D-03    1    2    0
 0.683818013942418D+03 0.000000000000000D+00 0.000000000000000D+00 0.683818013942418D+03
 0.683818013942418D+03 0.000000000000000D+00 0.000000000000000D+00 -.683818013942418D+03
 0.687137655224223D+03 -.566577934661802D+02 0.620973304599337D+03 0.260221456919997D+03
 0.141361768112065D+03 0.204937225390616D+02 -.113549121424127D+03 -.816685609281208D+02
 0.539136604548547D+03 0.361640709271186D+02 -.507424183175210D+03 -.178552895991877D+03
 0.000000000000000D+00 0.000000000000000D+00 -.000000000000000D+00 0.000000000000000D+00
 0.783488080177042D+03 0.000000000000000D+00 0.000000000000000D+00 0.783488080177042D+03
 0.686666858816369D+03 0.000000000000000D+00 0.000000000000000D+00 -.686666858816369D+03
 0.702108509529198D+03 -.594253526372148D+02 0.637247816768084D+03 0.260221456919997D+03
 0.138659282019507D+03 0.199358841623676D+02 -.110268776944155D+03 -.816685609281208D+02
 0.527254514747674D+03 0.340396810263252D+02 -.494931800120325D+03 -.178552895991877D+03
 0.102132632697032D+03 0.544978744852193D+01 -.320472397036039D+02 0.968212213606736D+02
0.540258650810D-03 0.000000000000D+00 0.000000000000D+00 0.164084902723D-03 0.966531737990D-06  6 -1 2 25 4 -3 21 2 0.19687368D+00 0.64679120D-01 0.41781350D+06 0.41781350D+06 0.41781350D+06 0.10740662D+01  1  2  1  1  6  1       -1 0.925463294845D-03 0.100000000000D+01
  </mgrwgt>
  </event>
  <event>
  6     66 0.18082911E-05 0.63484450E+02 0.75467711E-02 0.91089018E-01
       -1 -1    0    0    0  501 0.00000000E+00 0.00000000E+00 0.49326167E+03 0.49326177E+03 0.32000000E+00 0.0000E+00 0.9000E+01
        2 -1    0    0  501    0 -.00000000E+00 -.00000000E+00 -.10281464E+04 0.10281464E+04 0.32000000E+00 0.0000E+00 0.9000E+01
       25  1    1    2    0    0 0.47448455E+03 0.45947755E+03 -.12384144E+03 0.68353267E+03 0.12500000E+03 0.0000E+00 0.9000E+01
        4  1    1    2  502    0 -.21696340E+03 -.24836499E+03 -.23144887E+03 0.40290106E+03 0.15500000E+01 0.0000E+00 0.9000E+01
       -3  1    1    2    0  503 -.28053690E+03 -.21974490E+03 -.19473760E+03 0.40609329E+03 0.50000000E+00 0.0000E+00 0.9000E+01
       21  1    1    2  503  502 0.23015748E+02 0.86323471E+01 0.15143207E+02 0.28881158E+02 0.75000000E+00 0.0000E+00 0.9000E+01
#aMCatNLO 2  0  0  5  4 0.53976167D+01 0.00000000D+00  -5  6  0 0.00000000D+00 0.00000000D+00 0.00000000D+00 0.00000000D+00 0.00000000D+00
  <mgrwgt>
 0.7330694504D-01    1    2    0
 0.712141350878310D+03 0.000000000000000D+00 0.000000000000000D+00 0.712141350878310D+03
 0.712141350878310D+03 -.000000000000000D+00 -.000000000000000D+00 -.712141350878310D+03
 0.714485380618797D+03 0.498840343821256D+03 0.479444114757389D+03 0.127106299288359D+03
 0.328732065231946D+03 -.205209874165438D+03 -.238741888101615D+03 -.946360878435977D+02
 0.381065255905876D+03 -.293630469655818D+03 -.240702226655774D+03 -.324702114447613D+02
 0.000000000000000D+00 0.000000000000000D+00 0.000000000000000D+00 0.000000000000000D+00
 0.712141350878310D+03 0.000000000000000D+00 0.000000000000000D+00 0.712141350878310D+03
 0.712141350878310D+03 -.000000000000000D+00 -.000000000000000D+00 -.712141350878310D+03
 0.683568057705584D+03 0.474429949782806D+03 0.459433806544188D+03 0.124406951850719D+03
 0.343442894017814D+03 -.216946232138802D+03 -.248362713557261D+03 -.959339164559797D+02
 0.360656935585692D+03 -.280551870525088D+03 -.219720707539638D+03 -.555597319037535D+02
 0.366148144475291D+02 0.230681528810842D+02 0.864961455271108D+01 0.270866965090142D+02
0.107904910642D-01 0.000000000000D+00 0.000000000000D+00 0.148813282198D-05 0.871248746294D-06  6 -1 2 25 4 -3 21 2 0.75886422D-01 0.15817638D+00 0.47811160D+06 0.47811160D+06 0.47811160D+06 0.10698871D+01  1  2  1  4  6  5       -3 0.733069450432D-01 0.100000000000D+01
  </mgrwgt>
  </event>
  <event>
  7     66 0.18082911E-05 0.61323912E+02 0.75467711E-02 0.95099707E-01
       -1 -1    0    0    0  501 0.00000000E+00 0.00000000E+00 0.25180976E+03 0.25180997E+03 0.32000000E+00 0.0000E+00 0.9000E+01
        2 -1    0    0  503    0 0.00000000E+00 0.00000000E+00 -.10907114E+04 0.10907115E+04 0.32000000E+00 0.0000E+00 0.9000E+01
       24  2    1    2    0    0 0.85735991E+02 -.44276469E+03 -.16592596E+03 0.48724682E+03 0.80540742E+02 0.0000E+00 0.0000E+00
       25  1    1    2    0    0 -.11191823E+03 0.44640726E+03 -.54323152E+03 0.72286279E+03 0.12500000E+03 0.0000E+00 0.9000E+01
        4  1    3    3  502    0 0.79103953E+02 -.23304371E+03 -.11321965E+03 0.27090201E+03 0.15500000E+01 0.0000E+00 0.9000E+01
       -3  1    3    3    0  502 0.66320378E+01 -.20972098E+03 -.52706304E+02 0.21634481E+03 0.50000000E+00 0.0000E+00 0.9000E+01
       21  1    1    2  503  501 0.26182237E+02 -.36425725E+01 -.12974416E+03 0.13241181E+03 0.75000000E+00 0.0000E+00 0.9000E+01
#aMCatNLO 2  0  0  2  1 0.57659079D+02 0.00000000D+00  -5  6  0 0.00000000D+00 0.00000000D+00 0.00000000D+00 0.00000000D+00 0.00000000D+00
  <mgrwgt>
 0.4251559830D-02    1    2    0
 0.490092379006845D+03 0.000000000000000D+00 0.000000000000000D+00 0.490092379006845D+03
 0.490092379006845D+03 0.000000000000000D+00 0.000000000000000D+00 -.490092379006845D+03
 0.494753841485701D+03 -.986453483441767D+02 0.444560684387577D+03 -.147618619461651D+03
 0.255438281359852D+03 0.858854523014195D+02 -.233918371759175D+03 0.561658260919559D+02
 0.229992635168136D+03 0.127598960427572D+02 -.210642312628402D+03 0.914527933696954D+02
 0.000000000000000D+00 0.000000000000000D+00 -.000000000000000D+00 -.000000000000000D+00
 0.492879330440705D+03 0.000000000000000D+00 0.000000000000000D+00 0.492879330440705D+03
 0.557235191840717D+03 0.000000000000000D+00 0.000000000000000D+00 -.557235191840717D+03
 0.499220779363497D+03 -.111918228195229D+03 0.446407257931783D+03 -.147618619461651D+03
 0.252367734798415D+03 0.791045465330690D+02 -.232974986349369D+03 0.561658260919559D+02
 0.228952631187693D+03 0.663144441956983D+01 -.209789699121663D+03 0.914527933696954D+02
 0.695733769318170D+02 0.261822372425906D+02 -.364257246075170D+01 -.643558614000120D+02
0.182459650554D-03 0.000000000000D+00 0.000000000000D+00 0.308714144698D-03 0.284324564509D-05  6 -1 2 25 4 -3 21 2 0.38739825D-01 0.16780109D+00 0.23004666D+06 0.23004666D+06 0.23004666D+06 0.10931872D+01  1  2  1  2  6  2        2 0.425155983013D-02 0.100000000000D+01
  </mgrwgt>
  </event>
  <event>
  7     66 0.18082911E-05 0.96587334E+02 0.75467711E-02 0.93748759E-01
       -1 -1    0    0    0  503 0.00000000E+00 0.00000000E+00 0.52672309E+03 0.52672319E+03 0.32000000E+00 0.0000E+00 0.9000E+01
        2 -1    0    0  501    0 0.00000000E+00 0.00000000E+00 -.72011911E+03 0.72011918E+03 0.32000000E+00 0.0000E+00 0.9000E+01
       24  2    1    2    0    0 0.26760568E+02 0.44051205E+03 -.16685940E+03 0.47862300E+03 0.80442037E+02 0.0000E+00 0.0000E+00
       25  1    1    2    0    0 0.95610411E+02 -.47967008E+03 -.20789634E+03 0.54595845E+03 0.12500000E+03 0.0000E+00 0.9000E+01
        4  1    3    3  502    0 -.26826559E+02 0.16992546E+03 -.51003646E+02 0.17943830E+03 0.15500000E+01 0.0000E+00 0.9000E+01
       -3  1    3    3    0  502 0.53587127E+02 0.27058659E+03 -.11585575E+03 0.29918471E+03 0.50000000E+00 0.0000E+00 0.9000E+01
       21  1    1    2  501  503 -.12237098E+03 0.39158026E+02 0.18135972E+03 0.22226092E+03 0.75000000E+00 0.0000E+00 0.9000E+01
#aMCatNLO 2  0  0  1  5 0.58028131D+03 0.00000000D+00  -5  6  0 0.00000000D+00 0.00000000D+00 0.00000000D+00 0.00000000D+00 0.00000000D+00
  <mgrwgt>
 0.1270689336D-02    1    2    0
 0.472445041678754D+03 0.000000000000000D+00 0.000000000000000D+00 0.472445041678754D+03
 0.472445041678754D+03 0.000000000000000D+00 0.000000000000000D+00 -.472445041678754D+03
 0.477289033047072D+03 0.323007478836145D+02 -.459411342846603D+03 -.881480669380644D+01
 0.184761698530121D+03 -.498858597147936D+02 0.177203672071189D+03 0.157208412223373D+02
 0.282839351780315D+03 0.175851118311791D+02 0.282207670775414D+03 -.690603452853091D+01
 0.000000000000000D+00 -.000000000000000D+00 0.000000000000000D+00 0.000000000000000D+00
 0.772938210839154D+03 0.000000000000000D+00 0.000000000000000D+00 0.772938210839154D+03
 0.490728467711167D+03 0.000000000000000D+00 0.000000000000000D+00 -.490728467711167D+03
 0.504903393224956D+03 0.956104111212804D+02 -.479670079281839D+03 -.881480669380644D+01
 0.172657697804313D+03 -.268475008237266D+02 0.169831526701810D+03 0.157208412223373D+02
 0.276024393931916D+03 0.536080688306282D+02 0.270680526984899D+03 -.690603452853091D+01
 0.310081193589136D+03 -.122370979128182D+03 0.391580255951292D+02 0.282209743127987D+03
0.126666023314D-03 0.000000000000D+00 0.000000000000D+00 0.245463089895D-03 0.102861764878D-06  6 -1 2 25 4 -3 21 2 0.81034261D-01 0.11078747D+00 0.29224210D+06 0.29224210D+06 0.29224210D+06 0.10853947D+01  1  2  1  1  6  1       -1 0.127068933595D-02 0.100000000000D+01
  </mgrwgt>
  </event>
  <event>
  6     66 0.18082911E-05 0.28876099E+02 0.75467711E-02 0.91618234E-01
       -1 -1    0    0    0  501 0.00000000E+00 0.00000000E+00 0.11889453E+04 0.11889454E+04 0.32000000E+00 0.0000E+00 0.9000E+01
        2 -1    0    0  501    0 0.00000000E+00 0.00000000E+00 -.36630363E+03 0.36630377E+03 0.32000000E+00 0.0000E+00 0.9000E+01
       25  1    1    2    0    0 -.28523086E+03 0.57080857E+03 0.42136561E+03 0.77482452E+03 0.12500000E+03 0.0000E+00 0.9000E+01
        4  1    1    2  502    0 0.77378563E+02 -.13504660E+03 0.12811493E+03 0.20159580E+03 0.15500000E+01 0.0000E+00 0.9000E+01
       -3  1    1    2    0  503 0.17584576E+03 -.44297314E+03 0.24664998E+03 0.53664084E+03 0.50000000E+00 0.0000E+00 0.9000E+01
       21  1    1    2  503  502 0.32006543E+02 0.72111732E+01 0.26511173E+02 0.42187968E+02 0.75000000E+00 0.0000E+00 0.9000E+01
#aMCatNLO 2  0  0  5  4 0.53976167D+01 0.00000000D+00  -5  6  0 0.00000000D+00 0.00000000D+00 0.00000000D+00 0.00000000D+00 0.00000000D+00
  <mgrwgt>
 0.8082104451D-02    1    2    0
 0.659935697415351D+03 0.000000000000000D+00 0.000000000000000D+00 0.659935697415351D+03
 0.659935697415351D+03 -.000000000000000D+00 -.000000000000000D+00 -.659935697415351D+03
 0.663902862517114D+03 -.291154831936373D+03 0.583228158483927D+03 0.146897872676094D+02
 0.154336568328835D+03 0.758938905469433D+02 -.131925735845853D+03 0.256026155441190D+02
 0.501631963984754D+03 0.215260941389430D+03 -.451302422638074D+03 -.402924028117284D+02
 0.000000000000000D+00 0.000000000000000D+00 0.000000000000000D+00 0.000000000000000D+00
 0.659935697415351D+03 0.000000000000000D+00 0.000000000000000D+00 0.659935697415351D+03
 0.659935697415351D+03 -.000000000000000D+00 -.000000000000000D+00 -.659935697415351D+03
 0.650350611723213D+03 -.285219973017251D+03 0.570785510082750D+03 0.135789042404492D+02
 0.157511262914922D+03 0.773021218500683D+02 -.134878144186320D+03 0.253390237259686D+02
 0.478767551628411D+03 0.175851840969752D+03 -.443136264813786D+03 -.438719651565576D+02
 0.332419685641565D+02 0.320660101974306D+02 0.722889891735644D+01 0.495403719013977D+01
0.312667755951D-02 0.000000000000D+00 0.000000000000D+00 0.245842028221D-05 0.518954958757D-06  6 -1 2 25 4 -3 21 2 0.18291468D+00 0.56354418D-01 0.43249861D+06 0.43249861D+06 0.43249861D+06 0.10729905D+01  1  2  1  4  6  5       -3 0.808210445102D-02 0.100000000000D+01
  </mgrwgt>
  </event>
  <event>
  7     66 0.18082911E-05 0.23402840E+02 0.75467711E-02 0.91485166E-01
       -1 -1    0    0    0  503 0.00000000E+00 0.00000000E+00 0.53924387E+03 0.53924397E+03 0.32000000E+00 0.0000E+00 0.9000E+01
        2 -1    0    0  501    0 0.00000000E+00 0.00000000E+00 -.10072229E+04 0.10072229E+04 0.32000000E+00 0.0000E+00 0.9000E+01
       24  2    1    2    0    0 0.39083378E+03 -.51928502E+03 -.40798488E+03 0.76985316E+03 0.61759639E+02 0.0000E+00 0.0000E+00
       25  1    1    2    0    0 -.40469679E+03 0.49944167E+03 -.15966156E+03 0.67404620E+03 0.12500000E+03 0.0000E+00 0.9000E+01
        4  1    3    3  502    0 0.27379131E+03 -.40783105E+03 -.30415659E+03 0.57775556E+03 0.15500000E+01 0.0000E+00 0.9000E+01
       -3  1    3    3    0  502 0.11704247E+03 -.11145397E+03 -.10382830E+03 0.19209761E+03 0.50000000E+00 0.0000E+00 0.9000E+01
       21  1    1    2  501  503 0.13863016E+02 0.19843357E+02 0.99667425E+02 0.10256754E+03 0.75000000E+00 0.0000E+00 0.9000E+01
#aMCatNLO 2  0  0  1  1 0.15787973D+03 0.00000000D+00  -5  6  0 0.00000000D+00 0.00000000D+00 0.00000000D+00 0.00000000D+00 0.00000000D+00
  <mgrwgt>
 0.3639609471D-03    1    2    0
 0.663708700811763D+03 0.000000000000000D+00 0.000000000000000D+00 0.663708700811763D+03
 0.663708700811763D+03 0.000000000000000D+00 0.000000000000000D+00 -.663708700811763D+03
 0.668157469947351D+03 -.397736894945876D+03 0.509403980312898D+03 0.114552834476649D+03
 0.495078737588034D+03 0.278921946454885D+03 -.400363748087167D+03 -.837518561894324D+02
 0.164181194088142D+03 0.118814948490991D+03 -.109040232225732D+03 -.308009782872171D+02
 0.000000000000000D+00 0.000000000000000D+00 0.000000000000000D+00 0.000000000000000D+00
 0.817024171724187D+03 0.000000000000000D+00 0.000000000000000D+00 0.817024171724187D+03
 0.664775185115613D+03 0.000000000000000D+00 0.000000000000000D+00 -.664775185115613D+03
 0.664807358194878D+03 -.404696792101311D+03 0.499441666349861D+03 0.114552834476649D+03
 0.498233072944927D+03 0.273735501997664D+03 -.407787562962698D+03 -.837518561894324D+02
 0.164597659664765D+03 0.117098273781583D+03 -.111497459975739D+03 -.308009782872171D+02
 0.154161266035230D+03 0.138630163220642D+02 0.198433565885757D+02 0.152248986608574D+03
0.619720347061D-04 0.000000000000D+00 0.000000000000D+00 0.784793127355D-06 0.839430885530D-08  6 -1 2 25 4 -3 21 2 0.82960493D-01 0.15495717D+00 0.44349169D+06 0.44349169D+06 0.44349169D+06 0.10722110D+01  1  2  1  1  6  1       -1 0.363960947080D-03 0.100000000000D+01
  </mgrwgt>
  </event>
  <event>
  7     66 0.18082911E-05 0.16889768E+02 0.75467711E-02 0.94223586E-01
       -1 -1    0    0    0  501 0.00000000E+00 0.00000000E+00 0.19933860E+03 0.19933886E+03 0.32000000E+00 0.0000E+00 0.9000E+01
        2 -1    0    0  503    0 0.00000000E+00 0.00000000E+00 -.13844019E+04 0.13844019E+04 0.32000000E+00 0.0000E+00 0.9000E+01
       24  2    1    2    0    0 0.21088075E+03 -.46147704E+03 -.61443356E+03 0.80091123E+03 0.80612956E+02 0.0000E+00 0.0000E+00
       25  1    1    2    0    0 -.21664568E+03 0.44833826E+03 -.52213664E+03 0.73225283E+03 0.12500000E+03 0.0000E+00 0.9000E+01
        4  1    3    3  502    0 0.20222981E+03 -.42010252E+03 -.59034156E+03 0.75225566E+03 0.15500000E+01 0.0000E+00 0.9000E+01
       -3  1    3    3    0  502 0.86509422E+01 -.41374523E+02 -.24092004E+02 0.48655571E+02 0.50000000E+00 0.0000E+00 0.9000E+01
       21  1    1    2  503  501 0.57649320E+01 0.13138784E+02 -.48493111E+02 0.50576738E+02 0.75000000E+00 0.0000E+00 0.9000E+01
#aMCatNLO 2  0  0  2  1 0.12074035D+02 0.00000000D+00  -5  6  0 0.00000000D+00 0.00000000D+00 0.00000000D+00 0.00000000D+00 0.00000000D+00
  <mgrwgt>
 0.7119754503D-03    1    2    0
 0.514440076805530D+03 0.000000000000000D+00 0.000000000000000D+00 0.514440076805530D+03
 0.514440076805530D+03 0.000000000000000D+00 0.000000000000000D+00 -.514440076805530D+03
 0.518875263636212D+03 -.213751286869093D+03 0.454934840251548D+03 0.308418174019249D+02
 0.464596435312543D+03 0.204849182591221D+03 -.414144060740562D+03 -.486965815037184D+02
 0.454084546623051D+02 0.890210427787179D+01 -.407907795109854D+02 0.178547641017936D+02
 0.000000000000000D+00 0.000000000000000D+00 0.000000000000000D+00 -.000000000000000D+00
 0.517186697061800D+03 0.000000000000000D+00 0.000000000000000D+00 0.517186697061800D+03
 0.533575421399555D+03 0.000000000000000D+00 0.000000000000000D+00 -.533575421399555D+03
 0.514313874794397D+03 -.216645684026965D+03 0.448338255893763D+03 0.308418174019249D+02
 0.468782427943075D+03 0.202234395977098D+03 -.420103388205611D+03 -.486965815037184D+02
 0.458838878356168D+02 0.864635604472363D+01 -.413736521101129D+02 0.178547641017936D+02
 0.217819278882660D+02 0.576493200514307D+01 0.131387844219607D+02 -.163887243377555D+02
0.305896815044D-04 0.000000000000D+00 0.000000000000D+00 0.138873173449D-03 0.426241569229D-05  6 -1 2 25 4 -3 21 2 0.30667118D-01 0.21298228D+00 0.26845349D+06 0.26845349D+06 0.26845349D+06 0.10881399D+01  1  2  1  2  6  2        2 0.711975450280D-03 0.100000000000D+01
  </mgrwgt>
  </event>
  <event>
  7     66 0.18082911E-05 0.57273248E+02 0.75467711E-02 0.92789460E-01
       -1 -1    0    0    0  503 0.00000000E+00 0.00000000E+00 0.16353681E+03 0.16353713E+03 0.32000000E+00 0.0000E+00 0.9000E+01
        2 -1    0    0  501    0 0.00000000E+00 0.00000000E+00 -.29507362E+04 0.29507362E+04 0.32000000E+00 0.0000E+00 0.9000E+01
       24  2    1    2    0    0 -.56203330E+03 0.61982370E+02 -.14844322E+04 0.15902002E+04 0.73989665E+02 0.0000E+00 0.0000E+00
       25  1    1    2    0    0 0.56876107E+03 -.36398171E+02 -.13495742E+04 0.14703025E+04 0.12500000E+03 0.0000E+00 0.9000E+01
        4  1    3    3  502    0 -.27054834E+03 -.49858893E+01 -.74108390E+03 0.78894170E+03 0.15500000E+01 0.0000E+00 0.9000E+01
       -3  1    3    3    0  502 -.29148496E+03 0.66968259E+02 -.74334832E+03 0.80125851E+03 0.50000000E+00 0.0000E+00 0.9000E+01
       21  1    1    2  501  503 -.67277623E+01 -.25584199E+02 0.46807050E+02 0.53770591E+02 0.75000000E+00 0.0000E+00 0.9000E+01
#aMCatNLO 2  0  0  1  1 0.26059948D+02 0.00000000D+00  -5  6  0 0.00000000D+00 0.00000000D+00 0.00000000D+00 0.00000000D+00 0.00000000D+00
  <mgrwgt>
 0.1109158066D-02    1    2    0
 0.577577874601403D+03 0.000000000000000D+00 0.000000000000000D+00 0.577577874601403D+03
 0.577577874601403D+03 0.000000000000000D+00 0.000000000000000D+00 -.577577874601403D+03
 0.581971450808922D+03 0.565365188520709D+03 -.493119444169526D+02 0.315643042597759D+02
 0.273670505877990D+03 -.272021281211047D+03 -.110564776317539D+02 -.278876793260708D+02
 0.299513792515893D+03 -.293343907309662D+03 0.603684220487065D+02 -.367662493370504D+01
 0.000000000000000D+00 -.000000000000000D+00 -.000000000000000D+00 0.000000000000000D+00
 0.834274194273973D+03 0.000000000000000D+00 0.000000000000000D+00 0.834274194273973D+03
 0.578411269845202D+03 0.000000000000000D+00 0.000000000000000D+00 -.578411269845202D+03
 0.584324637596013D+03 0.568761065808992D+03 -.363981705327017D+02 0.315643042597759D+02
 0.271913098473970D+03 -.270432718075753D+03 -.501552167588548D+01 -.278876793260708D+02
 0.299220882380577D+03 -.291600585434194D+03 0.669978914305750D+02 -.367662493370504D+01
 0.257226845668615D+03 -.672776229904535D+01 -.255841992219878D+02 0.255862924428770D+03
0.272353644719D-03 0.000000000000D+00 0.000000000000D+00 0.837462552470D-05 0.793734700729D-07  6 -1 2 25 4 -3 21 2 0.25159512D-01 0.45395901D+00 0.34786581D+06 0.34786581D+06 0.34786581D+06 0.10798272D+01  1  2  1  1  6  1       -1 0.110915806590D-02 0.100000000000D+01
  </mgrwgt>
  </event>
  <event>
  7     66 0.18082911E-05 0.33838446E+02 0.75467711E-02 0.94067680E-01
       -1 -1    0    0    0  503 0.00000000E+00 0.00000000E+00 0.35628329E+03 0.35628343E+03 0.32000000E+00 0.0000E+00 0.9000E+01
        2 -1    0    0  501    0 0.00000000E+00 0.00000000E+00 -.15906362E+04 0.15906362E+04 0.32000000E+00 0.0000E+00 0.9000E+01
       24  2    1    2    0    0 0.45120931E+03 -.15723647E+03 -.85427479E+03 0.98205623E+03 0.79598107E+02 0.0000E+00 0.0000E+00
       25  1    1    2    0    0 -.48998741E+03 0.14163654E+03 -.56729019E+03 0.77304058E+03 0.12500000E+03 0.0000E+00 0.9000E+01
        4  1    3    3  502    0 0.32089018E+03 -.74462548E+02 -.55849919E+03 0.64841262E+03 0.15500000E+01 0.0000E+00 0.9000E+01
       -3  1    3    3    0  502 0.13031913E+03 -.82773918E+02 -.29577561E+03 0.33364361E+03 0.50000000E+00 0.0000E+00 0.9000E+01
       21  1    1    2  501  503 0.38778099E+02 0.15599925E+02 0.18721206E+03 0.19182288E+03 0.75000000E+00 0.0000E+00 0.9000E+01
#aMCatNLO 2  0  0  1  1 0.26059948D+02 0.00000000D+00  -5  6  0 0.00000000D+00 0.00000000D+00 0.00000000D+00 0.00000000D+00 0.00000000D+00
  <mgrwgt>
 0.1789696582D-02    1    2    0
 0.514239894478616D+03 0.000000000000000D+00 0.000000000000000D+00 0.514239894478616D+03
 0.514239894478616D+03 0.000000000000000D+00 0.000000000000000D+00 -.514239894478616D+03
 0.518755851684593D+03 -.470136816934923D+03 0.149622176294213D+03 0.100335494119928D+03
 0.345476786614311D+03 0.333662101631787D+03 -.692813185252876D+02 -.567794938988266D+02
 0.164247150658327D+03 0.136474715303136D+03 -.803408577689256D+02 -.435560002211016D+02
 0.000000000000000D+00 0.000000000000000D+00 0.000000000000000D+00 0.000000000000000D+00
 0.109954298429235D+04 0.000000000000000D+00 0.000000000000000D+00 0.109954298429235D+04
 0.515411177461168D+03 0.000000000000000D+00 0.000000000000000D+00 -.515411177461168D+03
 0.534640797726668D+03 -.489987409428017D+03 0.141636541243913D+03 0.100335494119928D+03
 0.334232340371331D+03 0.320853413754177D+03 -.744340869829235D+02 -.567794938988266D+02
 0.160455660156177D+03 0.130355896544368D+03 -.828023789332663D+02 -.435560002211016D+02
 0.585625363499340D+03 0.387780991294727D+02 0.155999246722772D+02 0.584131806831179D+03
0.278912447479D-03 0.000000000000D+00 0.000000000000D+00 0.131550802821D-03 0.619696423054D-06  6 -1 2 25 4 -3 21 2 0.54812801D-01 0.24471316D+00 0.27601617D+06 0.27601617D+06 0.27601617D+06 0.10872393D+01  1  2  1  1  6  1       -1 0.178969658210D-02 0.100000000000D+01
  </mgrwgt>
  </event>
  <event>
  7     66 0.18082911E-05 0.63921192E+02 0.75467711E-02 0.90711056E-01
       -1 -1    0    0    0  501 0.00000000E+00 0.00000000E+00 0.33478174E+03 0.33478189E+03 0.32000000E+00 0.0000E+00 0.9000E+01
        2 -1    0    0  503    0 0.00000000E+00 0.00000000E+00 -.18990294E+04 0.18990295E+04 0.32000000E+00 0.0000E+00 0.9000E+01
       24  2    1    2    0    0 -.49295474E+03 0.40157751E+03 -.36960035E+03 0.73930579E+03 0.75496776E+02 0.0000E+00 0.0000E+00
       25  1    1    2    0    0 0.53497468E+03 -.46633112E+03 -.73833819E+03 0.10317126E+04 0.12500000E+03 0.0000E+00 0.9000E+01
        4  1    3    3  502    0 -.58080476E+02 0.40606248E+02 -.16104561E+02 0.72690910E+02 0.15500000E+01 0.0000E+00 0.9000E+01
       -3  1    3    3    0  502 -.43487427E+03 0.36097126E+03 -.35349579E+03 0.66661488E+03 0.50000000E+00 0.0000E+00 0.9000E+01
       21  1    1    2  503  501 -.42019935E+02 0.64753610E+02 -.45630916E+03 0.46279295E+03 0.75000000E+00 0.0000E+00 0.9000E+01
#aMCatNLO 2  0  0  2  1 0.12074035D+02 0.00000000D+00  -5  6  0 0.00000000D+00 0.00000000D+00 0.00000000D+00 0.00000000D+00 0.00000000D+00
  <mgrwgt>
 0.9474931475D-04    1    2    0
 0.689749892832447D+03 0.000000000000000D+00 0.000000000000000D+00 0.689749892832447D+03
 0.689749892832447D+03 0.000000000000000D+00 0.000000000000000D+00 -.689749892832447D+03
 0.693347297120400D+03 0.513307920213818D+03 -.432942183277167D+03 -.119086184795419D+03
 0.838121400091660D+02 -.603929300446005D+02 0.442980303560877D+02 0.376145360215326D+02
 0.602340348535329D+03 -.452914990169218D+03 0.388644152921079D+03 0.814716487738859D+02
 0.000000000000000D+00 -.000000000000000D+00 0.000000000000000D+00 -.000000000000000D+00
 0.697583433816613D+03 0.000000000000000D+00 0.000000000000000D+00 0.697583433816613D+03
 0.911374073659265D+03 0.000000000000000D+00 0.000000000000000D+00 -.911374073659265D+03
 0.730389716892921D+03 0.534974679284288D+03 -.466331118046465D+03 -.119086184795419D+03
 0.800243221404743D+02 -.578996288819455D+02 0.404558004402362D+02 0.376145360215326D+02
 0.571243792565618D+03 -.435055115358153D+03 0.361121707449884D+03 0.814716487738859D+02
 0.227299675876865D+03 -.420199350441900D+02 0.647536101563444D+02 -.213790639842651D+03
0.207553484329D-04 0.000000000000D+00 0.000000000000D+00 0.340788709259D-05 0.363856892865D-08  6 -1 2 25 4 -3 21 2 0.51504851D-01 0.29215813D+00 0.51397863D+06 0.51397863D+06 0.51397863D+06 0.10676651D+01  1  2  1  2  6  2        2 0.947493147527D-04 0.100000000000D+01
  </mgrwgt>
  </event>
  <event>
  7     66 0.18082911E-05 0.33868101E+03 0.75467711E-02 0.87688880E-01
       21 -1    0    0  503  501 0.00000000E+00 0.00000000E+00 0.56028206E+03 0.56028256E+03 0.75000000E+00 0.0000E+00 0.9000E+01
        2 -1    0    0  501    0 0.00000000E+00 0.00000000E+00 -.30041263E+04 0.30041263E+04 0.32000000E+00 0.0000E+00 0.9000E+01
       24  2    1    2    0    0 0.84370144E+03 -.41614728E+03 -.34393386E+03 0.10037339E+04 0.64657125E+02 0.0000E+00 0.0000E+00
       25  1    1    2    0    0 -.60412011E+03 0.14448841E+03 -.21051386E+04 0.21984248E+04 0.12500000E+03 0.0000E+00 0.9000E+01
        4  1    3    3  502    0 0.55444591E+03 -.26573756E+03 -.25641634E+03 0.66616699E+03 0.15500000E+01 0.0000E+00 0.9000E+01
        1  1    1    2  503    0 -.23958133E+03 0.27165887E+03 0.52282294E+01 0.36225018E+03 0.32000000E+00 0.0000E+00 0.9000E+01
       -3  1    3    3    0  502 0.28925553E+03 -.15040972E+03 -.87517525E+02 0.33756690E+03 0.50000000E+00 0.0000E+00 0.9000E+01
#aMCatNLO 2  0  0  1  2 0.14890928D+02 0.00000000D+00  -5  6  0 0.00000000D+00 0.00000000D+00 0.00000000D+00 0.00000000D+00 0.00000000D+00
  <mgrwgt>
 0.1302751365D-03    1    2    0
 0.101546375230267D+04 0.000000000000000D+00 0.000000000000000D+00 0.101546375230267D+04
 0.101546375230267D+04 0.000000000000000D+00 0.000000000000000D+00 -.101546375230267D+04
 0.101828129656176D+04 -.717157839644332D+03 0.272660758767451D+03 -.657732880881397D+03
 0.640007184063200D+03 0.474171615321353D+03 -.174795734702578D+03 0.392704629468297D+03
 0.000000000000000D+00 -.000000000000000D+00 0.000000000000000D+00 0.000000000000000D+00
 0.372639023980367D+03 0.242986224322979D+03 -.978650240648734D+02 0.265028251413100D+03
 0.153481517308381D+04 0.000000000000000D+00 0.000000000000000D+00 0.153481517308381D+04
 0.109665246903355D+04 0.000000000000000D+00 0.000000000000000D+00 -.109665246903355D+04
 0.913277367678128D+03 -.604120109815627D+03 0.144488410043518D+03 -.657732880881397D+03
 0.729423406610722D+03 0.554312761429736D+03 -.265666976912636D+03 0.392704629468297D+03
 0.568493020754279D+03 -.239581334508669D+03 0.271658873554205D+03 0.438162704050254D+03
 0.420273847074229D+03 0.289388682894561D+03 -.150480306685087D+03 0.265028251413100D+03
0.530758140495D-04 0.000000000000D+00 0.000000000000D+00 0.916660568373D-06 0.244153762410D-11  6 21 2 25 4 1 -3 2 0.86197276D-01 0.46217330D+00 0.93768875D+06 0.93768875D+06 0.93768875D+06 0.10497290D+01  1  2  1  5  5  1       -1 0.130275136478D-03 0.100000000000D+01
  </mgrwgt>
  </event>
  <event>
  7     66 0.18082911E-05 0.66094600E+02 0.75467711E-02 0.93918619E-01
       -1 -1    0    0    0  503 0.00000000E+00 0.00000000E+00 0.16907471E+03 0.16907502E+03 0.32000000E+00 0.0000E+00 0.9000E+01
        2 -1    0    0  501    0 0.00000000E+00 0.00000000E+00 -.19142139E+04 0.19142139E+04 0.32000000E+00 0.0000E+00 0.9000E+01
       24  2    1    2    0    0 -.43560904E+03 0.25971603E+03 -.68150956E+03 0.85356330E+03 0.83110561E+02 0.0000E+00 0.0000E+00
       25  1    1    2    0    0 0.45205439E+03 -.24455410E+03 -.10796108E+04 0.12022248E+04 0.12500000E+03 0.0000E+00 0.9000E+01
        4  1    3    3  502    0 -.22136587E+03 0.85209170E+02 -.29812702E+03 0.38097975E+03 0.15500000E+01 0.0000E+00 0.9000E+01
       -3  1    3    3    0  502 -.21424317E+03 0.17450686E+03 -.38338254E+03 0.47258354E+03 0.50000000E+00 0.0000E+00 0.9000E+01
       21  1    1    2  501  503 -.16445356E+02 -.15161929E+02 0.15981230E+02 0.27500837E+02 0.75000000E+00 0.0000E+00 0.9000E+01
#aMCatNLO 2  0  0  1  2 0.14890928D+02 0.00000000D+00  -5  6  0 0.00000000D+00 0.00000000D+00 0.00000000D+00 0.00000000D+00 0.00000000D+00
  <mgrwgt>
 0.1392106460D-02    1    2    0
 0.530146030291320D+03 0.000000000000000D+00 0.000000000000000D+00 0.530146030291320D+03
 0.530146030291320D+03 0.000000000000000D+00 0.000000000000000D+00 -.530146030291320D+03
 0.534256989871701D+03 0.443742552511890D+03 -.252217273029495D+03 -.963562426756484D+02
 0.245621547144497D+03 -.225090959512867D+03 0.816558170703952D+02 0.547387605431381D+02
 0.280413523566443D+03 -.218651592999023D+03 0.170561455959100D+03 0.416174821325103D+02
 0.000000000000000D+00 -.000000000000000D+00 -.000000000000000D+00 0.000000000000000D+00
 0.608509356706793D+03 0.000000000000000D+00 0.000000000000000D+00 0.608509356706793D+03
 0.531862593184725D+03 0.000000000000000D+00 0.000000000000000D+00 -.531862593184725D+03
 0.537651755483447D+03 0.452054394334090D+03 -.244554102879308D+03 -.963562426756484D+02
 0.243352648425513D+03 -.221299334352305D+03 0.851515367162522D+02 0.547387605431381D+02
 0.279523571943854D+03 -.214309704206314D+03 0.174564495634717D+03 0.416174821325103D+02
 0.798439740387036D+02 -.164453557754703D+02 -.151619294716605D+02 0.766467635220678D+02
0.888914484285D-04 0.000000000000D+00 0.000000000000D+00 0.314631151128D-04 0.399101362062D-06  6 -1 2 25 4 -3 21 2 0.26011434D-01 0.29449349D+00 0.28347081D+06 0.28347081D+06 0.28347081D+06 0.10863775D+01  1  2  1  1  6  1       -1 0.139210646023D-02 0.100000000000D+01
  </mgrwgt>
  </event>
  <event>
  7     66 0.18082911E-05 0.28199806E+02 0.75467711E-02 0.94705089E-01
       -1 -1    0    0    0  503 0.00000000E+00 0.00000000E+00 0.35546527E+03 0.35546541E+03 0.32000000E+00 0.0000E+00 0.9000E+01
        2 -1    0    0  501    0 0.00000000E+00 0.00000000E+00 -.95695793E+03 0.95695799E+03 0.32000000E+00 0.0000E+00 0.9000E+01
       24  2    1    2    0    0 -.47732164E+03 0.48837525E+01 -.18176276E+03 0.51690056E+03 0.79301273E+02 0.0000E+00 0.0000E+00
       25  1    1    2    0    0 0.48743882E+03 -.10388544E+02 -.50293044E+03 0.71152551E+03 0.12500000E+03 0.0000E+00 0.9000E+01
        4  1    3    3  502    0 -.74438238E+02 -.95342504E+01 -.59022421E+02 0.95488229E+02 0.15500000E+01 0.0000E+00 0.9000E+01
       -3  1    3    3    0  502 -.40288340E+03 0.14418003E+02 -.12274034E+03 0.42141233E+03 0.50000000E+00 0.0000E+00 0.9000E+01
       21  1    1    2  501  503 -.10117178E+02 0.55047917E+01 0.83200532E+02 0.83997328E+02 0.75000000E+00 0.0000E+00 0.9000E+01
#aMCatNLO 2  0  0  1  5 0.14924098D+03 0.00000000D+00  -5  6  0 0.00000000D+00 0.00000000D+00 0.00000000D+00 0.00000000D+00 0.00000000D+00
  <mgrwgt>
 0.1579439489D-02    1    2    0
 0.509924789981710D+03 0.000000000000000D+00 0.000000000000000D+00 0.509924789981710D+03
 0.509924789981710D+03 0.000000000000000D+00 0.000000000000000D+00 -.509924789981710D+03
 0.514502086623477D+03 0.482310883726062D+03 -.759841847650488D+01 -.128085411409546D+03
 0.759174295315797D+02 -.750368860027859D+02 -.913224054590016D+01 -.703733104941675D+01
 0.429430063808362D+03 -.407273997723276D+03 0.167306590224050D+02 0.135122742458962D+03
 0.000000000000000D+00 -.000000000000000D+00 0.000000000000000D+00 0.000000000000000D+00
 0.666768013907858D+03 0.000000000000000D+00 0.000000000000000D+00 0.666768013907858D+03
 0.510168805529364D+03 0.000000000000000D+00 0.000000000000000D+00 -.510168805529364D+03
 0.519360562357009D+03 0.487438815919742D+03 -.103885442000094D+02 -.128085411409546D+03
 0.752271777240522D+02 -.742872126315586D+02 -.954014043191381D+01 -.703733104941675D+01
 0.425326876823255D+03 -.403034425244322D+03 0.144238929062754D+02 0.135122742458962D+03
 0.157022202532906D+03 -.101171780438609D+02 0.550479172564780D+01 0.156599208378494D+03
0.104738971710D-03 0.000000000000D+00 0.000000000000D+00 0.970979874537D-04 0.481205220675D-05  6 -1 2 25 4 -3 21 2 0.54686883D-01 0.14722405D+00 0.24652519D+06 0.24652519D+06 0.24652519D+06 0.10909167D+01  1  2  1  1  6  1       -1 0.157943948911D-02 0.100000000000D+01
  </mgrwgt>
  </event>
  <event>
  7     66 0.18082911E-05 0.53369225E+02 0.75467711E-02 0.91625832E-01
       -1 -1    0    0    0  503 0.00000000E+00 0.00000000E+00 0.22050166E+03 0.22050189E+03 0.32000000E+00 0.0000E+00 0.9000E+01
        2 -1    0    0  501    0 0.00000000E+00 0.00000000E+00 -.19966077E+04 0.19966077E+04 0.32000000E+00 0.0000E+00 0.9000E+01
       24  2    1    2    0    0 -.10056742E+03 -.63643920E+03 -.10222027E+04 0.12108949E+04 0.78737200E+02 0.0000E+00 0.0000E+00
       25  1    1    2    0    0 0.77556446E+02 0.62000263E+03 -.73156085E+03 0.97016728E+03 0.12500000E+03 0.0000E+00 0.9000E+01
        4  1    3    3  502    0 -.20903441E+02 -.37417145E+03 -.57305992E+03 0.68471987E+03 0.15500000E+01 0.0000E+00 0.9000E+01
       -3  1    3    3    0  502 -.79663974E+02 -.26226776E+03 -.44914275E+03 0.52617505E+03 0.50000000E+00 0.0000E+00 0.9000E+01
       21  1    1    2  501  503 0.23010970E+02 0.16436576E+02 -.22342515E+02 0.36047417E+02 0.75000000E+00 0.0000E+00 0.9000E+01
#aMCatNLO 2  0  0  1  5 0.14924098D+03 0.00000000D+00  -5  6  0 0.00000000D+00 0.00000000D+00 0.00000000D+00 0.00000000D+00 0.00000000D+00
  <mgrwgt>
 0.8260261304D-03    1    2    0
 0.648179399089438D+03 0.000000000000000D+00 0.000000000000000D+00 0.648179399089438D+03
 0.648179399089438D+03 0.000000000000000D+00 0.000000000000000D+00 -.648179399089438D+03
 0.651814755807983D+03 0.890417510725654D+02 0.628206499066333D+03 0.816433523673195D+02
 0.371545445213675D+03 -.142344955959180D+02 -.369342740314264D+03 -.378065757680887D+02
 0.272998597157217D+03 -.748072554766474D+02 -.258863758752069D+03 -.438367765992309D+02
 0.000000000000000D+00 0.000000000000000D+00 0.000000000000000D+00 0.000000000000000D+00
 0.669123149488130D+03 0.000000000000000D+00 0.000000000000000D+00 0.669123149488130D+03
 0.657949790788674D+03 0.000000000000000D+00 0.000000000000000D+00 -.657949790788674D+03
 0.642424232830791D+03 0.775564461043777D+02 0.620002625486469D+03 0.816433523673195D+02
 0.376569409876352D+03 -.208733987176494D+02 -.374084862710709D+03 -.378065757680887D+02
 0.277673546425742D+03 -.796940171659919D+02 -.262354338690986D+03 -.438367765992309D+02
 0.304057511439177D+02 0.230109697792636D+02 0.164365759152251D+02 0.111733586994561D+02
0.956967024721D-04 0.000000000000D+00 0.000000000000D+00 0.715508701108D-04 0.549600554912D-06  6 -1 2 25 4 -3 21 2 0.33923115D-01 0.30716829D+00 0.43188015D+06 0.43188015D+06 0.43188015D+06 0.10730350D+01  1  2  1  1  6  1       -1 0.826026130420D-03 0.100000000000D+01
  </mgrwgt>
  </event>
  <event>
  7     66 0.18082911E-05 0.68025519E+02 0.75467711E-02 0.94498350E-01
       -1 -1    0    0    0  501 0.00000000E+00 0.00000000E+00 0.17578989E+03 0.17579019E+03 0.32000000E+00 0.0000E+00 0.9000E+01
        2 -1    0    0  503    0 0.00000000E+00 0.00000000E+00 -.19292550E+04 0.19292550E+04 0.32000000E+00 0.0000E+00 0.9000E+01
       24  2    1    2    0    0 0.37496433E+03 -.29189249E+03 -.35398922E+03 0.59822774E+03 0.82271425E+02 0.0000E+00 0.0000E+00
       25  1    1    2    0    0 -.39072273E+03 0.30786859E+03 -.11859006E+04 0.12920652E+04 0.12500000E+03 0.0000E+00 0.9000E+01
        4  1    3    3  502    0 0.17289323E+03 -.15177681E+03 -.12313633E+03 0.26094679E+03 0.15500000E+01 0.0000E+00 0.9000E+01
       -3  1    3    3    0  502 0.20207110E+03 -.14011568E+03 -.23085289E+03 0.33728095E+03 0.50000000E+00 0.0000E+00 0.9000E+01
       21  1    1    2  503  501 0.15758396E+02 -.15976101E+02 -.21357529E+03 0.21475225E+03 0.75000000E+00 0.0000E+00 0.9000E+01
#aMCatNLO 2  0  0  2  1 0.12074035D+02 0.00000000D+00  -5  6  0 0.00000000D+00 0.00000000D+00 0.00000000D+00 0.00000000D+00 0.00000000D+00
  <mgrwgt>
 0.1292974320D-02    1    2    0
 0.548051836644611D+03 0.000000000000000D+00 0.000000000000000D+00 0.548051836644611D+03
 0.548051836644611D+03 0.000000000000000D+00 0.000000000000000D+00 -.548051836644611D+03
 0.552091788933813D+03 -.382714496688087D+03 0.299749722099661D+03 -.229913160854483D+03
 0.281641367388683D+03 0.176842351011485D+03 -.155802613250090D+03 0.154188807692844D+03
 0.262370516966725D+03 0.205872145676602D+03 -.143947108849570D+03 0.757243531616390D+02
 0.000000000000000D+00 0.000000000000000D+00 -.000000000000000D+00 -.000000000000000D+00
 0.550005909521404D+03 0.000000000000000D+00 0.000000000000000D+00 0.550005909521404D+03
 0.616614113442354D+03 0.000000000000000D+00 0.000000000000000D+00 -.616614113442354D+03
 0.562078621581843D+03 -.390722726266447D+03 0.307868586387375D+03 -.229913160854483D+03
 0.276887088797348D+03 0.172827862688182D+03 -.151732664260418D+03 0.154188807692844D+03
 0.257367644696430D+03 0.202136467112577D+03 -.140159821411434D+03 0.757243531616390D+02
 0.702866678881367D+02 0.157583964656883D+02 -.159761007155243D+02 -.666082039209498D+02
0.888545386708D-04 0.000000000000D+00 0.000000000000D+00 0.386170541676D-04 0.490164540832D-06  6 -1 2 25 4 -3 21 2 0.27044526D-01 0.29680741D+00 0.25568426D+06 0.25568426D+06 0.25568426D+06 0.10897253D+01  1  2  1  2  6  2        2 0.129297431966D-02 0.100000000000D+01
  </mgrwgt>
  </event>
  <event>
  7     66 0.18082911E-05 0.14624083E+03 0.75467711E-02 0.91357894E-01
       -1 -1    0    0    0  503 0.00000000E+00 0.00000000E+00 0.80783879E+03 0.80783886E+03 0.32000000E+00 0.0000E+00 0.9000E+01
        2 -1    0    0  501    0 0.00000000E+00 0.00000000E+00 -.15457743E+04 0.15457743E+04 0.32000000E+00 0.0000E+00 0.9000E+01
       24  2    1    2    0    0 -.12526557E+02 0.51544154E+03 -.87132160E+03 0.10158866E+04 0.83590222E+02 0.0000E+00 0.0000E+00
       25  1    1    2    0    0 0.15470338E+03 -.61879400E+03 -.40874436E+03 0.76781254E+03 0.12500000E+03 0.0000E+00 0.9000E+01
        4  1    3    3  502    0 0.30691955E+02 0.34817438E+03 -.58875627E+03 0.68469245E+03 0.15500000E+01 0.0000E+00 0.9000E+01
       -3  1    3    3    0  502 -.43218512E+02 0.16726716E+03 -.28256533E+03 0.33119413E+03 0.50000000E+00 0.0000E+00 0.9000E+01
       21  1    1    2  501  503 -.14217683E+03 0.10335246E+03 0.54213048E+03 0.56991403E+03 0.75000000E+00 0.0000E+00 0.9000E+01
#aMCatNLO 2  0  0  1  5 0.14924098D+03 0.00000000D+00  -5  6  0 0.00000000D+00 0.00000000D+00 0.00000000D+00 0.00000000D+00 0.00000000D+00
  <mgrwgt>
 0.6017444705D-03    1    2    0
 0.614840983949924D+03 0.000000000000000D+00 0.000000000000000D+00 0.614840983949924D+03
 0.614840983949924D+03 0.000000000000000D+00 0.000000000000000D+00 -.614840983949924D+03
 0.618353142284732D+03 0.799484857360065D+02 -.564452497075557D+03 0.204296908315054D+03
 0.405950885868883D+03 -.142923083112534D+02 0.380841284859064D+03 -.139827634635518D+03
 0.205377939746234D+03 -.656561774247532D+02 0.183611212216493D+03 -.644692736795357D+02
 0.000000000000000D+00 -.000000000000000D+00 0.000000000000000D+00 0.000000000000000D+00
 0.199248576636393D+04 0.000000000000000D+00 0.000000000000000D+00 0.199248576636393D+04
 0.626722733947284D+03 0.000000000000000D+00 0.000000000000000D+00 -.626722733947284D+03
 0.681323255689883D+03 0.154703382776417D+03 -.618794000742012D+03 0.204296908315054D+03
 0.376415678983344D+03 0.307079179716359D+02 0.348129314695811D+03 -.139827634635518D+03
 0.184442099939229D+03 -.432344753946261D+02 0.167312226446776D+03 -.644692736795357D+02
 0.137702746569875D+04 -.142176825353427D+03 0.103352459599425D+03 0.136576303241664D+04
0.529413265470D-03 0.000000000000D+00 0.000000000000D+00 0.216512907005D-04 0.821560241335D-08  6 -1 2 25 4 -3 21 2 0.12428288D+00 0.23781139D+00 0.45429890D+06 0.45429890D+06 0.45429890D+06 0.10714650D+01  1  2  1  1  6  1       -1 0.601744470492D-03 0.100000000000D+01
  </mgrwgt>
  </event>
  <event>
  7     66 0.18082911E-05 0.11594599E+03 0.75467711E-02 0.89184137E-01
       -1 -1    0    0    0  501 0.00000000E+00 0.00000000E+00 0.63156179E+03 0.63156187E+03 0.32000000E+00 0.0000E+00 0.9000E+01
        2 -1    0    0  503    0 0.00000000E+00 0.00000000E+00 -.17998498E+04 0.17998498E+04 0.32000000E+00 0.0000E+00 0.9000E+01
       24  2    1    2    0    0 -.74066423E+03 -.12191301E+03 -.24080300E+03 0.79207753E+03 0.77165124E+02 0.0000E+00 0.0000E+00
       25  1    1    2    0    0 0.75614189E+03 -.24495154E+02 -.70762899E+02 0.77005387E+03 0.12500000E+03 0.0000E+00 0.9000E+01
        4  1    3    3  502    0 -.29529080E+03 -.43729354E+02 -.56702340E+02 0.30385271E+03 0.15500000E+01 0.0000E+00 0.9000E+01
       -3  1    3    3    0  502 -.44537342E+03 -.78183652E+02 -.18410066E+03 0.48822482E+03 0.50000000E+00 0.0000E+00 0.9000E+01
       21  1    1    2  503  501 -.15477662E+02 0.14640816E+03 -.85672212E+03 0.86928032E+03 0.75000000E+00 0.0000E+00 0.9000E+01
#aMCatNLO 2  0  0  2  1 0.12074035D+02 0.00000000D+00  -5  6  0 0.00000000D+00 0.00000000D+00 0.00000000D+00 0.00000000D+00 0.00000000D+00
  <mgrwgt>
 0.5521709273D-03    1    2    0
 0.761824502817231D+03 0.000000000000000D+00 0.000000000000000D+00 0.761824502817231D+03
 0.761824502817231D+03 0.000000000000000D+00 0.000000000000000D+00 -.761824502817231D+03
 0.764997984240253D+03 0.748356231666003D+03 0.491518678622054D+02 0.845219516100211D+02
 0.298556735740154D+03 -.298148246877062D+03 -.150868573154080D+02 0.401672457299686D+01
 0.460094285654054D+03 -.450207984788941D+03 -.340650105467974D+02 -.885386761830179D+02
 0.000000000000000D+00 -.000000000000000D+00 0.000000000000000D+00 -.000000000000000D+00
 0.773058339158307D+03 0.000000000000000D+00 0.000000000000000D+00 0.773058339158307D+03
 0.147041416317768D+04 0.000000000000000D+00 0.000000000000000D+00 -.147041416317768D+04
 0.771439906148768D+03 0.756141888752088D+03 -.244951539958369D+02 0.845219516100211D+02
 0.298368273834157D+03 -.295123423381283D+03 -.436996307328876D+02 0.401672457299686D+01
 0.460937128609723D+03 -.445540803120339D+03 -.782133754905006D+02 -.885386761830179D+02
 0.712727193743337D+03 -.154776622504651D+02 0.146408160219225D+03 -.697355824019370D+03
0.393810721608D-03 0.000000000000D+00 0.000000000000D+00 0.205320977026D-04 0.695264183099D-08  6 -1 2 25 4 -3 21 2 0.97163336D-01 0.27689991D+00 0.69281873D+06 0.69281873D+06 0.69281873D+06 0.10586411D+01  1  2  1  2  6  2        2 0.552170927291D-03 0.100000000000D+01
  </mgrwgt>
  </event>
  <event>
  7     66 0.18082911E-05 0.35697064E+02 0.75467711E-02 0.93319664E-01
       -1 -1    0    0    0  503 0.00000000E+00 0.00000000E+00 0.49553015E+03 0.49553026E+03 0.32000000E+00 0.0000E+00 0.9000E+01
        2 -1    0    0  501    0 0.00000000E+00 0.00000000E+00 -.18659497E+04 0.18659498E+04 0.32000000E+00 0.0000E+00 0.9000E+01
       24  2    1    2    0    0 0.14893018E+03 -.51548069E+03 -.10959538E+04 0.12229148E+04 0.80655241E+02 0.0000E+00 0.0000E+00
       25  1    1    2    0    0 -.13864168E+03 0.53414317E+03 -.59281483E+03 0.81950281E+03 0.12500000E+03 0.0000E+00 0.9000E+01
        4  1    3    3  502    0 0.10562663E+03 -.38849847E+03 -.89381546E+03 0.98030431E+03 0.15500000E+01 0.0000E+00 0.9000E+01
       -3  1    3    3    0  502 0.43303555E+02 -.12698222E+03 -.20213834E+03 0.24261047E+03 0.50000000E+00 0.0000E+00 0.9000E+01
       21  1    1    2  501  503 -.10288499E+02 -.18662480E+02 0.31834906E+03 0.31906242E+03 0.75000000E+00 0.0000E+00 0.9000E+01
#aMCatNLO 2  0  0  1  2 0.38887413D+01 0.00000000D+00  -5  6  0 0.00000000D+00 0.00000000D+00 0.00000000D+00 0.00000000D+00 0.00000000D+00
  <mgrwgt>
 0.2525932982D-02    1    2    0
 0.574255161964530D+03 0.000000000000000D+00 0.000000000000000D+00 0.574255161964530D+03
 0.574255161964530D+03 0.000000000000000D+00 0.000000000000000D+00 -.574255161964530D+03
 0.578225405823350D+03 -.143853911672622D+03 0.524688618391754D+03 0.150756511521775D+03
 0.434361235104198D+03 0.101748327213327D+03 -.395479754093120D+03 -.148029471974266D+03
 0.135923683001512D+03 0.421055844592948D+02 -.129208864298635D+03 -.272703954750940D+01
 0.000000000000000D+00 -.000000000000000D+00 -.000000000000000D+00 0.000000000000000D+00
 0.160956054022191D+04 0.000000000000000D+00 0.000000000000000D+00 0.160956054022191D+04
 0.574463681997685D+03 0.000000000000000D+00 0.000000000000000D+00 -.574463681997685D+03
 0.585562092513281D+03 -.138641683116772D+03 0.534143166318605D+03 0.150756511521775D+03
 0.428921209383033D+03 0.105614690630489D+03 -.388466493289512D+03 -.148029471974266D+03
 0.134224713898617D+03 0.433154919300765D+02 -.127014193046791D+03 -.272703954750940D+01
 0.103531620642466D+04 -.102884994437939D+02 -.186624799823028D+02 0.103509685822422D+04
0.106616493430D-02 0.000000000000D+00 0.000000000000D+00 0.261199041117D-03 0.569756326407D-05  6 -1 2 25 4 -3 21 2 0.76235400D-01 0.28706913D+00 0.31578668D+06 0.31578668D+06 0.31578668D+06 0.10829079D+01  1  2  1  1  6  1       -1 0.252593298216D-02 0.100000000000D+01
  </mgrwgt>
  </event>
  <event>
  6     66 -.18082911E-05 0.16930880E+02 0.75467711E-02 0.94650260E-01
       -1 -1    0    0    0  501 0.00000000E+00 0.00000000E+00 0.69579455E+03 0.69579463E+03 0.32000000E+00 0.0000E+00 0.9000E+01
        2 -1    0    0  501    0 0.00000000E+00 0.00000000E+00 -.37742177E+03 0.37742191E+03 0.32000000E+00 0.0000E+00 0.9000E+01
       24  2    1    2    0    0 -.26236241E+02 -.48615230E+03 0.28443327E+03 0.56942164E+03 0.79412360E+02 0.0000E+00 0.0000E+00
       25  1    1    2    0    0 0.26236241E+02 0.48615230E+03 0.33939514E+02 0.50379489E+03 0.12500000E+03 0.0000E+00 0.9000E+01
        4  1    3    3  502    0 -.84775662E+01 -.20279589E+02 0.33142795E+02 0.39799223E+02 0.15500000E+01 0.0000E+00 0.9000E+01
       -3  1    3    3    0  502 -.17758675E+02 -.46587271E+03 0.25129047E+03 0.52962242E+03 0.50000000E+00 0.0000E+00 0.9000E+01
#aMCatNLO 1  0  0  4  5 0.13502010D+02 0.00000000D+00  -5  6  0 0.00000000D+00 0.00000000D+00 0.00000000D+00 0.00000000D+00 0.00000000D+00
  <mgrwgt>
 -.7238771440D-03    5    2    0
 0.512453046892892D+03 0.000000000000000D+00 0.000000000000000D+00 0.512453046892892D+03
 0.512453046892892D+03 -.000000000000000D+00 -.000000000000000D+00 -.512453046892892D+03
 0.516999159592641D+03 0.262362407731223D+02 0.486152302636416D+03 -.120957551772933D+03
 0.311994913037363D+02 -.847113388299717D+01 -.201028295175906D+02 0.223052548457745D+02
 0.476707442889407D+03 -.177651068901252D+02 -.466049473118826D+03 0.986522969271591D+02
 0.000000000000000D+00 0.000000000000000D+00 0.000000000000000D+00 -.000000000000000D+00
 0.512453046892892D+03 0.000000000000000D+00 0.000000000000000D+00 0.512453046892892D+03
 0.512453046892892D+03 -.000000000000000D+00 -.000000000000000D+00 -.512453046892892D+03
 0.510494620302367D+03 0.239831150271993D+02 0.480805414796183D+03 -.115024869719205D+03
 0.174754516131632D+02 0.974896582365652D+01 -.114515779912718D+02 0.890002449226996D+01
 0.482837637247446D+03 -.198692322549045D+02 -.471042768476451D+03 0.104192647621304D+03
 0.140983846228073D+02 -.138628485959514D+02 0.168893167154001D+01 0.193219760563095D+01
0.515065344332D-04 0.000000000000D+00 0.000000000000D+00 0.116901987952D-04 0.000000000000D+00  6 -1 2 25 4 -3 21 0 0.10704533D+00 0.58064904D-01 0.24544746D+06 0.24544746D+06 0.24544746D+06 0.10910601D+01  1  2  2  3  6  4        4 0.506308553653D-03 0.100000000000D+01
0.160038475907D-04 0.000000000000D+00 -.197798654205D-06 0.116901987952D-04 0.000000000000D+00  6 -1 2 25 4 -3 21 2 0.10704533D+00 0.58064904D-01 0.24544746D+06 0.24544746D+06 0.24544746D+06 0.10910601D+01  1  2  3  3  6  4        4 0.187272779694D-03 0.100000000000D+01
-.162995243232D-04 0.000000000000D+00 0.000000000000D+00 0.116901987952D-04 0.000000000000D+00  6 -1 2 25 4 -3 21 2 0.10704533D+00 0.58064904D-01 0.24544746D+06 0.24544746D+06 0.24544746D+06 0.10910601D+01  1  2 15  3  6  4        4 -.190732710394D-03 0.100000000000D+01
0.484435488636D-05 0.000000000000D+00 0.000000000000D+00 0.116901987952D-04 0.000000000000D+00  6 -1 2 25 4 -3 21 2 0.10704533D+00 0.58064904D-01 0.24891788D+06 0.24891788D+06 0.24891788D+06 0.10906009D+01  1  2 12  3  6  4        4 0.566152632924D-04 0.100000000000D+01
-.109671006583D-03 0.000000000000D+00 0.000000000000D+00 0.116901987952D-04 0.000000000000D+00  6 -1 2 25 4 -3 21 2 0.10704533D+00 0.58064904D-01 0.24544746D+06 0.24544746D+06 0.24544746D+06 0.10910601D+01  1  2  4  3  6  4        4 -.128334103023D-02 0.100000000000D+01
  </mgrwgt>
  </event>
  <event>
  7     66 0.18082911E-05 0.44069745E+02 0.75467711E-02 0.93835091E-01
       21 -1    0    0  503  501 0.00000000E+00 0.00000000E+00 0.37123399E+03 0.37123475E+03 0.75000000E+00 0.0000E+00 0.9000E+01
        2 -1    0    0  501    0 0.00000000E+00 0.00000000E+00 -.96132185E+03 0.96132191E+03 0.32000000E+00 0.0000E+00 0.9000E+01
       24  2    1    2    0    0 -.49718437E+03 0.14004896E+03 -.14262532E+03 0.54193698E+03 0.80917857E+02 0.0000E+00 0.0000E+00
       25  1    1    2    0    0 0.44312695E+03 -.17358614E+03 -.50482619E+03 0.70495966E+03 0.12500000E+03 0.0000E+00 0.9000E+01
        4  1    3    3  502    0 -.23001046E+03 0.78085224E+02 -.27396237E+02 0.24444850E+03 0.15500000E+01 0.0000E+00 0.9000E+01
        1  1    1    2  503    0 0.54057418E+02 0.33537186E+02 0.57363648E+02 0.85660013E+02 0.32000000E+00 0.0000E+00 0.9000E+01
       -3  1    3    3    0  502 -.26717391E+03 0.61963734E+02 -.11522908E+03 0.29748848E+03 0.50000000E+00 0.0000E+00 0.9000E+01
#aMCatNLO 2  0  0  1  2 0.38887413D+01 0.00000000D+00  -5  6  0 0.00000000D+00 0.00000000D+00 0.00000000D+00 0.00000000D+00 0.00000000D+00
  <mgrwgt>
 0.2750090043D-03    1    2    0
 0.531862487942583D+03 0.000000000000000D+00 0.000000000000000D+00 0.531862487942583D+03
 0.531862487942583D+03 0.000000000000000D+00 0.000000000000000D+00 -.531862487942583D+03
 0.536129239591114D+03 0.469891915462357D+03 -.156981177183269D+03 -.162382447751653D+03
 0.260551955260072D+03 -.216470077294163D+03 0.864105126788249D+02 0.116452781524050D+03
 0.000000000000000D+00 0.000000000000000D+00 0.000000000000000D+00 0.000000000000000D+00
 0.267043781033980D+03 -.253421838168194D+03 0.705706645044442D+02 0.459296662276030D+02
 0.659938155505929D+03 0.000000000000000D+00 0.000000000000000D+00 0.659938155505929D+03
 0.540771339388825D+03 0.000000000000000D+00 0.000000000000000D+00 -.540771339388825D+03
 0.518157024623625D+03 0.443126949575805D+03 -.173586143999549D+03 -.162382447751653D+03
 0.269293915428496D+03 -.229921174150360D+03 0.780654612453042D+02 0.116452781524050D+03
 0.135083964210861D+03 0.540574183723072D+02 0.335371859635701D+02 0.119166816117103D+03
 0.278174590631771D+03 -.267263193797753D+03 0.619834967906744D+02 0.459296662276030D+02
0.235061884251D-05 0.000000000000D+00 0.000000000000D+00 0.150769305855D-03 0.729848555241D-08  6 21 2 25 4 1 -3 2 0.57112964D-01 0.14789568D+00 0.28774663D+06 0.28774663D+06 0.28774663D+06 0.10858943D+01  1  2  1  5  5  1       -1 0.275009004278D-03 0.100000000000D+01
  </mgrwgt>
  </event>
  <event>
  7     66 0.18082911E-05 0.45001441E+02 0.75467711E-02 0.91565598E-01
       -1 -1    0    0    0  501 0.00000000E+00 0.00000000E+00 0.14068158E+03 0.14068194E+03 0.32000000E+00 0.0000E+00 0.9000E+01
        2 -1    0    0  503    0 0.00000000E+00 0.00000000E+00 -.32799791E+04 0.32799791E+04 0.32000000E+00 0.0000E+00 0.9000E+01
       24  2    1    2    0    0 0.62140419E+03 -.18747051E+03 -.13317621E+04 0.14837128E+04 0.80776942E+02 0.0000E+00 0.0000E+00
       25  1    1    2    0    0 -.61356853E+03 0.16412723E+03 -.15710646E+04 0.16991978E+04 0.12500000E+03 0.0000E+00 0.9000E+01
        4  1    3    3  502    0 0.20405971E+03 -.77623298E+02 -.52940270E+03 0.57265641E+03 0.15500000E+01 0.0000E+00 0.9000E+01
       -3  1    3    3    0  502 0.41734448E+03 -.10984721E+03 -.80235945E+03 0.91105640E+03 0.50000000E+00 0.0000E+00 0.9000E+01
       21  1    1    2  503  501 -.78356601E+01 0.23343276E+02 -.23647077E+03 0.23775048E+03 0.75000000E+00 0.0000E+00 0.9000E+01
#aMCatNLO 2  0  0  2  5 0.98113373D+01 0.00000000D+00  -5  6  0 0.00000000D+00 0.00000000D+00 0.00000000D+00 0.00000000D+00 0.00000000D+00
  <mgrwgt>
 0.7709011136D-03    1    2    0
 0.652669574539420D+03 0.000000000000000D+00 0.000000000000000D+00 0.652669574539420D+03
 0.652669574539420D+03 0.000000000000000D+00 0.000000000000000D+00 -.652669574539420D+03
 0.656155291548364D+03 -.617486721516785D+03 0.175799955286151D+03 -.521468225183273D+02
 0.216297540254873D+03 0.202607802275412D+03 -.736951215167049D+02 -.174279500250112D+02
 0.432886317275603D+03 0.414878919241374D+03 -.102104833769446D+03 0.695747725433385D+02
 0.000000000000000D+00 -.000000000000000D+00 0.000000000000000D+00 -.000000000000000D+00
 0.655765692111575D+03 0.000000000000000D+00 0.000000000000000D+00 0.655765692111575D+03
 0.703650163266226D+03 0.000000000000000D+00 0.000000000000000D+00 -.703650163266226D+03
 0.649421569932601D+03 -.613568526537303D+03 0.164127230031488D+03 -.521468225183273D+02
 0.218870113130786D+03 0.203913793339618D+03 -.775858096926007D+02 -.174279500250112D+02
 0.437279686194394D+03 0.417490393269984D+03 -.109884696437150D+03 0.695747725433385D+02
 0.538444861200195D+02 -.783566007229865D+01 0.233432760982626D+02 -.478844711546514D+02
0.248591765614D-03 0.000000000000D+00 0.000000000000D+00 0.286569079562D-03 0.290793598231D-05  6 -1 2 25 4 -3 21 2 0.21643263D-01 0.50461020D+00 0.43681011D+06 0.43681011D+06 0.43681011D+06 0.10726823D+01  1  2  1  2  6  2        2 0.770901113589D-03 0.100000000000D+01
  </mgrwgt>
  </event>
  <event>
  7     66 0.18082911E-05 0.99285293E+02 0.75467711E-02 0.90397184E-01
       21 -1    0    0  503  501 0.00000000E+00 0.00000000E+00 0.11916396E+04 0.11916398E+04 0.75000000E+00 0.0000E+00 0.9000E+01
        2 -1    0    0  501    0 0.00000000E+00 0.00000000E+00 -.59536416E+03 0.59536424E+03 0.32000000E+00 0.0000E+00 0.9000E+01
       24  2    1    2    0    0 0.64548265E+03 -.34312772E+03 0.84042942E+01 0.73575463E+03 0.82944284E+02 0.0000E+00 0.0000E+00
       25  1    1    2    0    0 -.54502415E+03 0.26557571E+03 0.21168129E+03 0.65422913E+03 0.12500000E+03 0.0000E+00 0.9000E+01
        4  1    3    3  502    0 0.20668328E+03 -.90407898E+02 -.31626275E+02 0.22780297E+03 0.15500000E+01 0.0000E+00 0.9000E+01
        1  1    1    2  503    0 -.10045851E+03 0.77552005E+02 0.37618982E+03 0.39702029E+03 0.32000000E+00 0.0000E+00 0.9000E+01
       -3  1    3    3    0  502 0.43879937E+03 -.25271982E+03 0.40030569E+02 0.50795166E+03 0.50000000E+00 0.0000E+00 0.9000E+01
#aMCatNLO 2  0  0  1  2 0.36783650D+03 0.00000000D+00  -5  6  0 0.00000000D+00 0.00000000D+00 0.00000000D+00 0.00000000D+00 0.00000000D+00
  <mgrwgt>
 0.1116566632D-03    1    2    0
 0.683284521859018D+03 0.000000000000000D+00 0.000000000000000D+00 0.683284521859018D+03
 0.683284521859018D+03 0.000000000000000D+00 0.000000000000000D+00 -.683284521859018D+03
 0.686484230733542D+03 -.593258821201476D+03 0.302811941050305D+03 0.109473734154838D+03
 0.216321247418295D+03 0.189961873404715D+03 -.775268358220335D+02 -.685489494055256D+02
 0.000000000000000D+00 -.000000000000000D+00 0.000000000000000D+00 0.000000000000000D+00
 0.463763565566199D+03 0.403296947796761D+03 -.225285105228272D+03 -.409247847493120D+02
 0.101577300686938D+04 0.000000000000000D+00 0.000000000000000D+00 0.101577300686938D+04
 0.698443075730707D+03 0.000000000000000D+00 0.000000000000000D+00 -.698443075730707D+03
 0.628642410563337D+03 -.545024147607990D+03 0.265575715029186D+03 0.109473734154838D+03
 0.235616049605317D+03 0.206537499904959D+03 -.903228957685873D+02 -.685489494055256D+02
 0.341766747986520D+03 -.100458505893472D+03 0.775520046578778D+02 0.317329931138677D+03
 0.508190874444915D+03 0.438945153596504D+03 -.252804823918477D+03 -.409247847493120D+02
0.125667672071D-04 0.000000000000D+00 0.000000000000D+00 0.413528405903D-04 0.788621979969D-09  6 21 2 25 4 1 -3 2 0.18332917D+00 0.91594501D-01 0.54605567D+06 0.54605567D+06 0.54605567D+06 0.10658164D+01  1  2  1  5  5  1       -1 0.111656663169D-03 0.100000000000D+01
  </mgrwgt>
  </event>
  <event>
  7     66 0.18082911E-05 0.16754677E+03 0.75467711E-02 0.92290046E-01
       -1 -1    0    0    0  503 0.00000000E+00 0.00000000E+00 0.42481847E+03 0.42481859E+03 0.32000000E+00 0.0000E+00 0.9000E+01
        2 -1    0    0  501    0 0.00000000E+00 0.00000000E+00 -.12304465E+04 0.12304465E+04 0.32000000E+00 0.0000E+00 0.9000E+01
       24  2    1    2    0    0 -.44217766E+03 -.14328038E+02 -.15492358E+03 0.47543398E+03 0.79434092E+02 0.0000E+00 0.0000E+00
       25  1    1    2    0    0 0.53897157E+03 0.19600079E+03 -.74909930E+03 0.95167296E+03 0.12500000E+03 0.0000E+00 0.9000E+01
        4  1    3    3  502    0 -.21428447E+03 -.82202903E+01 -.11711823E+03 0.24434502E+03 0.15500000E+01 0.0000E+00 0.9000E+01
       -3  1    3    3    0  502 -.22789319E+03 -.61077473E+01 -.37805351E+02 0.23108896E+03 0.50000000E+00 0.0000E+00 0.9000E+01
       21  1    1    2  501  503 -.96793905E+02 -.18167276E+03 0.98394854E+02 0.22815819E+03 0.75000000E+00 0.0000E+00 0.9000E+01
#aMCatNLO 2  0  0  1  2 0.36783650D+03 0.00000000D+00  -5  6  0 0.00000000D+00 0.00000000D+00 0.00000000D+00 0.00000000D+00 0.00000000D+00
  <mgrwgt>
 0.1108347126D-03    1    2    0
 0.542448798675370D+03 0.000000000000000D+00 0.000000000000000D+00 0.542448798675370D+03
 0.542448798675370D+03 0.000000000000000D+00 0.000000000000000D+00 -.542448798675370D+03
 0.546741934314714D+03 0.487531973440002D+03 0.994536717275280D+02 -.189006044326116D+03
 0.244219201204946D+03 -.234723320244100D+03 -.467270174601243D+02 0.486268136941837D+02
 0.293936461831079D+03 -.252808653195902D+03 -.527266542674037D+02 0.140379230631932D+03
 0.000000000000000D+00 -.000000000000000D+00 -.000000000000000D+00 0.000000000000000D+00
 0.896810519413728D+03 0.000000000000000D+00 0.000000000000000D+00 0.896810519413728D+03
 0.582861014844742D+03 0.000000000000000D+00 0.000000000000000D+00 -.582861014844742D+03
 0.616648155302333D+03 0.538971568420505D+03 0.196000793570602D+03 -.189006044326116D+03
 0.219809880689098D+03 -.214206153865571D+03 -.821828964115078D+01 0.486268136941837D+02
 0.267795941649216D+03 -.227971509076888D+03 -.610974796397556D+01 0.140379230631932D+03
 0.375417556617823D+03 -.967939054780453D+02 -.181672755965476D+03 0.313949504568987D+03
0.156754339224D-04 0.000000000000D+00 0.000000000000D+00 0.176621177793D-03 0.280300515888D-07  6 -1 2 25 4 -3 21 2 0.65356660D-01 0.18929936D+00 0.38145131D+06 0.38145131D+06 0.38145131D+06 0.10769173D+01  1  2  1  1  6  1       -1 0.110834712601D-03 0.100000000000D+01
  </mgrwgt>
  </event>
  <event>
  7     66 0.18082911E-05 0.36804338E+02 0.75467711E-02 0.92229486E-01
       -1 -1    0    0    0  501 0.00000000E+00 0.00000000E+00 0.42204538E+03 0.42204550E+03 0.32000000E+00 0.0000E+00 0.9000E+01
        2 -1    0    0  503    0 0.00000000E+00 0.00000000E+00 -.11476298E+04 0.11476299E+04 0.32000000E+00 0.0000E+00 0.9000E+01
       24  2    1    2    0    0 0.78626705E+00 -.54220721E+03 -.47412158E+03 0.72467322E+03 0.79816838E+02 0.0000E+00 0.0000E+00
       25  1    1    2    0    0 0.21608835E+02 0.60985763E+03 -.42657055E+02 0.62437000E+03 0.12500000E+03 0.0000E+00 0.9000E+01
        4  1    3    3  502    0 0.39688382E+02 -.22978479E+03 -.20505517E+03 0.31052575E+03 0.15500000E+01 0.0000E+00 0.9000E+01
       -3  1    3    3    0  502 -.38902115E+02 -.31242242E+03 -.26906641E+03 0.41414747E+03 0.50000000E+00 0.0000E+00 0.9000E+01
       21  1    1    2  503  501 -.22395102E+02 -.67650421E+02 -.20880582E+03 0.22063217E+03 0.75000000E+00 0.0000E+00 0.9000E+01
#aMCatNLO 2  0  0  2  1 0.21367996D+02 0.00000000D+00  -5  6  0 0.00000000D+00 0.00000000D+00 0.00000000D+00 0.00000000D+00 0.00000000D+00
  <mgrwgt>
 0.6082559908D-03    1    2    0
 0.622048896730958D+03 0.000000000000000D+00 0.000000000000000D+00 0.622048896730958D+03
 0.622048896730958D+03 0.000000000000000D+00 0.000000000000000D+00 -.622048896730958D+03
 0.625768167228311D+03 0.100615283536033D+02 0.574975886194701D+03 0.212749371463436D+03
 0.263200350113273D+03 0.350801963506777D+02 -.243645249013198D+03 -.931707934765185D+02
 0.355129276120333D+03 -.451417247042810D+02 -.331330637181503D+03 -.119578577986917D+03
 0.000000000000000D+00 -.000000000000000D+00 -.000000000000000D+00 -.000000000000000D+00
 0.631921294817919D+03 0.000000000000000D+00 0.000000000000000D+00 0.631921294817919D+03
 0.766472990060480D+03 0.000000000000000D+00 0.000000000000000D+00 -.766472990060480D+03
 0.658240505469978D+03 0.216088353332775D+02 0.609857627827039D+03 0.212749371463436D+03
 0.251014525634641D+03 0.397046176260404D+02 -.229675942714316D+03 -.931707934765185D+02
 0.336881975700939D+03 -.389183505728771D+02 -.312531264400030D+03 -.119578577986917D+03
 0.152257278072842D+03 -.223951023864408D+02 -.676504207126943D+02 -.134551695242561D+03
0.760705424228D-04 0.000000000000D+00 0.000000000000D+00 0.188617675583D-03 0.232097419714D-06  6 -1 2 25 4 -3 21 2 0.64929977D-01 0.17655820D+00 0.38576507D+06 0.38576507D+06 0.38576507D+06 0.10765639D+01  1  2  1  2  6  2        2 0.608255990774D-03 0.100000000000D+01
  </mgrwgt>
  </event>
  <event>
  7     66 0.18082911E-05 0.23204542E+02 0.75467711E-02 0.92231038E-01
       -1 -1    0    0    0  501 0.00000000E+00 0.00000000E+00 0.84041572E+03 0.84041579E+03 0.32000000E+00 0.0000E+00 0.9000E+01
        2 -1    0    0  503    0 0.00000000E+00 0.00000000E+00 -.47650551E+03 0.47650562E+03 0.32000000E+00 0.0000E+00 0.9000E+01
       24  2    1    2    0    0 -.60413865E+03 -.92959147E+02 0.28482531E+03 0.67759336E+03 0.66199640E+02 0.0000E+00 0.0000E+00
       25  1    1    2    0    0 0.58599369E+03 0.10121149E+03 0.93364603E+02 0.61479616E+03 0.12500000E+03 0.0000E+00 0.9000E+01
        4  1    3    3  502    0 -.48905443E+03 -.50104523E+02 0.21799871E+03 0.53778299E+03 0.15500000E+01 0.0000E+00 0.9000E+01
       -3  1    3    3    0  502 -.11508422E+03 -.42854624E+02 0.66826598E+02 0.13981037E+03 0.50000000E+00 0.0000E+00 0.9000E+01
       21  1    1    2  503  501 0.18144960E+02 -.82523437E+01 -.14279698E+02 0.24531878E+02 0.75000000E+00 0.0000E+00 0.9000E+01
#aMCatNLO 2  0  0  2  1 0.21367996D+02 0.00000000D+00  -5  6  0 0.00000000D+00 0.00000000D+00 0.00000000D+00 0.00000000D+00 0.00000000D+00
  <mgrwgt>
 0.8586547938D-03    1    2    0
 0.617827996672190D+03 0.000000000000000D+00 0.000000000000000D+00 0.617827996672190D+03
 0.617827996672190D+03 0.000000000000000D+00 0.000000000000000D+00 -.617827996672190D+03
 0.622377243365174D+03 0.595073581054657D+03 0.970819495826973D+02 -.905039294994520D+02
 0.488865826226820D+03 -.481791166417701D+03 -.533712057696624D+02 0.633922898229355D+02
 0.124412923752387D+03 -.113282414636956D+03 -.437107438130349D+02 0.271116396765165D+02
 0.000000000000000D+00 0.000000000000000D+00 -.000000000000000D+00 -.000000000000000D+00
 0.621695761208969D+03 0.000000000000000D+00 0.000000000000000D+00 0.621695761208969D+03
 0.644136331703252D+03 0.000000000000000D+00 0.000000000000000D+00 -.644136331703252D+03
 0.614368240261884D+03 0.585993692377973D+03 0.101211490853917D+03 -.905039294994520D+02
 0.495647842738631D+03 -.489019229615202D+03 -.500838763377819D+02 0.633922898229355D+02
 0.125800681185155D+03 -.115119422904463D+03 -.428752708544599D+02 0.271116396765165D+02
 0.300153287265503D+02 0.181449601416921D+02 -.825234366167503D+01 -.224405704942831D+02
0.157537077179D-03 0.000000000000D+00 0.000000000000D+00 0.122313249420D-05 0.190378475700D-07  6 -1 2 25 4 -3 21 2 0.12929377D+00 0.73308003D-01 0.38565384D+06 0.38565384D+06 0.38565384D+06 0.10765730D+01  1  2  1  2  6  2        2 0.858654793841D-03 0.100000000000D+01
  </mgrwgt>
  </event>
  <event>
  7     66 0.18082911E-05 0.55168811E+02 0.75467711E-02 0.94819123E-01
       21 -1    0    0  503  501 0.00000000E+00 0.00000000E+00 0.11652335E+04 0.11652338E+04 0.75000000E+00 0.0000E+00 0.9000E+01
        2 -1    0    0  501    0 0.00000000E+00 0.00000000E+00 -.20018313E+04 0.20018313E+04 0.32000000E+00 0.0000E+00 0.9000E+01
       24  2    1    2    0    0 -.45453654E+03 0.11876845E+03 -.19444338E+03 0.51447102E+03 0.78503465E+02 0.0000E+00 0.0000E+00
       25  1    1    2    0    0 0.44726138E+03 -.82104862E+02 -.16132552E+04 0.16807741E+04 0.12500000E+03 0.0000E+00 0.9000E+01
        4  1    3    3  502    0 -.22096974E+03 0.24735374E+02 -.11572328E+03 0.25066660E+03 0.15500000E+01 0.0000E+00 0.9000E+01
        1  1    1    2  503    0 0.72751608E+01 -.36663584E+02 0.97110087E+03 0.97182002E+03 0.32000000E+00 0.0000E+00 0.9000E+01
       -3  1    3    3    0  502 -.23356680E+03 0.94033072E+02 -.78720105E+02 0.26380442E+03 0.50000000E+00 0.0000E+00 0.9000E+01
#aMCatNLO 2  0  0  1  2 0.36783650D+03 0.00000000D+00  -5  6  0 0.00000000D+00 0.00000000D+00 0.00000000D+00 0.00000000D+00 0.00000000D+00
  <mgrwgt>
 0.1305035011D-01    1    2    0
 0.622480819465093D+03 0.000000000000000D+00 0.000000000000000D+00 0.622480819465093D+03
 0.622480819465093D+03 0.000000000000000D+00 0.000000000000000D+00 -.622480819465093D+03
 0.626281019305815D+03 0.450904824995355D+03 -.100466221948148D+03 -.403973133000332D+03
 0.271825821274606D+03 -.219293974385330D+03 0.166684585353305D+02 0.159754788347505D+03
 0.000000000000000D+00 0.000000000000000D+00 -.000000000000000D+00 0.000000000000000D+00
 0.346854798349766D+03 -.231610850610025D+03 0.837977634128178D+02 0.244218344652827D+03
 0.374490564170963D+04 0.000000000000000D+00 0.000000000000000D+00 0.374490564170963D+04
 0.622873190327916D+03 0.000000000000000D+00 0.000000000000000D+00 -.622873190327916D+03
 0.620969596971939D+03 0.447261377471375D+03 -.821048622177638D+02 -.403973133000332D+03
 0.273720672398092D+03 -.220887615627634D+03 0.246997036509822D+02 0.159754788347505D+03
 0.312225619926187D+04 0.727516076948470D+01 -.366635839011462D+02 0.312203245138171D+04
 0.350832363405638D+03 -.233648922613226D+03 0.940687424679278D+02 0.244218344652827D+03
0.855586279654D-02 0.000000000000D+00 0.000000000000D+00 0.451968668113D-04 0.141669304078D-06  6 21 2 25 4 1 -3 2 0.17926672D+00 0.30797406D+00 0.24163109D+06 0.24163109D+06 0.24163109D+06 0.10915733D+01  1  2  1  5  5  1       -1 0.130503501079D-01 0.100000000000D+01
  </mgrwgt>
  </event>
  <event>
  7     66 0.18082911E-05 0.10931552E+03 0.75467711E-02 0.94498308E-01
       -1 -1    0    0    0  503 0.00000000E+00 0.00000000E+00 0.71536870E+03 0.71536877E+03 0.32000000E+00 0.0000E+00 0.9000E+01
        2 -1    0    0  501    0 0.00000000E+00 0.00000000E+00 -.53624884E+03 0.53624894E+03 0.32000000E+00 0.0000E+00 0.9000E+01
       24  2    1    2    0    0 0.89168730E+00 0.37226680E+03 -.15506356E+03 0.41167891E+03 0.82773488E+02 0.0000E+00 0.0000E+00
       25  1    1    2    0    0 -.10732086E+03 -.46300757E+03 0.15245868E+02 0.49168203E+03 0.12500000E+03 0.0000E+00 0.9000E+01
        4  1    3    3  502    0 0.36593444E+02 0.12787009E+03 -.70991031E+02 0.15077125E+03 0.15500000E+01 0.0000E+00 0.9000E+01
       -3  1    3    3    0  502 -.35701756E+02 0.24439671E+03 -.84072527E+02 0.26090766E+03 0.50000000E+00 0.0000E+00 0.9000E+01
       21  1    1    2  501  503 0.10642917E+03 0.90740771E+02 0.31893755E+03 0.34825677E+03 0.75000000E+00 0.0000E+00 0.9000E+01
#aMCatNLO 2  0  0  1  2 0.36783650D+03 0.00000000D+00  -5  6  0 0.00000000D+00 0.00000000D+00 0.00000000D+00 0.00000000D+00 0.00000000D+00
  <mgrwgt>
 0.1043602583D-01    1    2    0
 0.440724104479941D+03 0.000000000000000D+00 0.000000000000000D+00 0.440724104479941D+03
 0.440724104479941D+03 0.000000000000000D+00 0.000000000000000D+00 -.440724104479941D+03
 0.445700886433303D+03 -.505780708592791D+02 -.414629068786610D+03 0.924601223919486D+02
 0.160750074281747D+03 0.547355870517868D+02 0.143245075790827D+03 -.482229214519776D+02
 0.274997248244832D+03 -.415751619250777D+01 0.271383992995783D+03 -.442372009399710D+02
 0.000000000000000D+00 0.000000000000000D+00 0.000000000000000D+00 0.000000000000000D+00
 0.836165381433251D+03 0.000000000000000D+00 0.000000000000000D+00 0.836165381433251D+03
 0.458779066519999D+03 0.000000000000000D+00 0.000000000000000D+00 -.458779066519999D+03
 0.500067651860731D+03 -.107320860431533D+03 -.463007575662652D+03 0.924601223919486D+02
 0.141405726673033D+03 0.366073005446683D+02 0.127789025074132D+03 -.482229214519776D+02
 0.251001832017961D+03 -.357156130397426D+02 0.244477779592675D+03 -.442372009399710D+02
 0.402469237401526D+03 0.106429172926607D+03 0.907407709958444D+02 0.377386314913252D+03
0.141538910810D-02 0.000000000000D+00 0.000000000000D+00 0.453697523558D-04 0.177871465443D-07  6 -1 2 25 4 -3 21 2 0.11005665D+00 0.82499773D-01 0.25568614D+06 0.25568614D+06 0.25568614D+06 0.10897251D+01  1  2  1  1  6  1       -1 0.104360258301D-01 0.100000000000D+01
  </mgrwgt>
  </event>
  <event>
  7     66 0.18082911E-05 0.23980028E+02 0.75467711E-02 0.94050406E-01
       -1 -1    0    0    0  501 0.00000000E+00 0.00000000E+00 0.36362347E+03 0.36362362E+03 0.32000000E+00 0.0000E+00 0.9000E+01
        2 -1    0    0  503    0 0.00000000E+00 0.00000000E+00 -.16489174E+04 0.16489175E+04 0.32000000E+00 0.0000E+00 0.9000E+01
       24  2    1    2    0    0 -.32035610E+03 0.40575839E+03 -.65758506E+02 0.52994200E+03 0.96158393E+02 0.0000E+00 0.0000E+00
       25  1    1    2    0    0 0.31808191E+03 -.39094381E+03 -.38129326E+03 0.64422256E+03 0.12500000E+03 0.0000E+00 0.9000E+01
        4  1    3    3  502    0 -.23187666E+02 0.45780553E+02 -.35005671E+02 0.62139572E+02 0.15500000E+01 0.0000E+00 0.9000E+01
       -3  1    3    3    0  502 -.29716844E+03 0.35997784E+03 -.30752835E+02 0.46780243E+03 0.50000000E+00 0.0000E+00 0.9000E+01
       21  1    1    2  503  501 0.22741907E+01 -.14814584E+02 -.83824221E+03 0.83837653E+03 0.75000000E+00 0.0000E+00 0.9000E+01
#aMCatNLO 2  0  0  2  1 0.54718231D+02 0.00000000D+00  -5  6  0 0.00000000D+00 0.00000000D+00 0.00000000D+00 0.00000000D+00 0.00000000D+00
  <mgrwgt>
 0.2212250937D-02    1    2    0
 0.542812697270835D+03 0.000000000000000D+00 0.000000000000000D+00 0.542812697270835D+03
 0.542812697270835D+03 0.000000000000000D+00 0.000000000000000D+00 -.542812697270835D+03
 0.545750450494494D+03 0.319218777984862D+03 -.398349550490032D+03 -.147090317904286D+03
 0.519936893717247D+02 -.230014610282364D+02 0.449741890561659D+02 -.123125482248875D+02
 0.487881254675452D+03 -.296217316956626D+03 0.353375361433866D+03 0.159402866129173D+03
 0.000000000000000D+00 0.000000000000000D+00 -.000000000000000D+00 -.000000000000000D+00
 0.542964460828736D+03 0.000000000000000D+00 0.000000000000000D+00 0.542964460828736D+03
 0.110427984431216D+04 0.000000000000000D+00 0.000000000000000D+00 -.110427984431216D+04
 0.539697824026524D+03 0.318081922308951D+03 -.390943819925604D+03 -.147090317904286D+03
 0.526605517806002D+02 -.231110717493136D+02 0.456882176566911D+02 -.123125482248875D+02
 0.493370476675318D+03 -.297245041286260D+03 0.360070186151764D+03 0.159402866129173D+03
 0.561515452658455D+03 0.227419072662247D+01 -.148145838828505D+02 -.561315383483427D+03
0.385379096295D-03 0.000000000000D+00 0.000000000000D+00 0.578730415243D-06 0.204830028802D-07  6 -1 2 25 4 -3 21 2 0.55942060D-01 0.25367950D+00 0.27686867D+06 0.27686867D+06 0.27686867D+06 0.10871395D+01  1  2  1  2  6  2        2 0.221225093708D-02 0.100000000000D+01
  </mgrwgt>
  </event>
  <event>
  7     66 0.18082911E-05 0.30848514E+02 0.75467711E-02 0.94742895E-01
       -1 -1    0    0    0  501 0.00000000E+00 0.00000000E+00 0.19139492E+03 0.19139519E+03 0.32000000E+00 0.0000E+00 0.9000E+01
        2 -1    0    0  503    0 0.00000000E+00 0.00000000E+00 -.13665966E+04 0.13665967E+04 0.32000000E+00 0.0000E+00 0.9000E+01
       24  2    1    2    0    0 -.16528424E+01 -.45118513E+03 -.42293231E+03 0.62332452E+03 0.78044644E+02 0.0000E+00 0.0000E+00
       25  1    1    2    0    0 -.49032156E+02 0.46629833E+03 -.58954594E+03 0.76356251E+03 0.12500000E+03 0.0000E+00 0.9000E+01
        4  1    3    3  502    0 -.10190607E+02 -.29234334E+03 -.32150361E+03 0.43466706E+03 0.15500000E+01 0.0000E+00 0.9000E+01
       -3  1    3    3    0  502 0.85377644E+01 -.15884179E+03 -.10142870E+03 0.18865746E+03 0.50000000E+00 0.0000E+00 0.9000E+01
       21  1    1    2  503  501 0.50684998E+02 -.15113200E+02 -.16272346E+03 0.17110484E+03 0.75000000E+00 0.0000E+00 0.9000E+01
#aMCatNLO 2  0  0  2  1 0.54718231D+02 0.00000000D+00  -5  6  0 0.00000000D+00 0.00000000D+00 0.00000000D+00 0.00000000D+00 0.00000000D+00
  <mgrwgt>
 0.1505479068D-02    1    2    0
 0.473166470655119D+03 0.000000000000000D+00 0.000000000000000D+00 0.473166470655119D+03
 0.473166470655119D+03 0.000000000000000D+00 0.000000000000000D+00 -.473166470655119D+03
 0.478203827611694D+03 -.231906450595925D+02 0.458592933681922D+03 -.469959136649441D+02
 0.297113331320816D+03 0.558388583000154D+01 -.296997420694106D+03 -.613872695586331D+01
 0.171015782377728D+03 0.176067592295910D+02 -.161595512987816D+03 0.531346406208074D+02
 0.000000000000000D+00 0.000000000000000D+00 -.000000000000000D+00 -.000000000000000D+00
 0.484511749511390D+03 0.000000000000000D+00 0.000000000000000D+00 0.484511749511390D+03
 0.539838182102557D+03 0.000000000000000D+00 0.000000000000000D+00 -.539838182102557D+03
 0.487516050190701D+03 -.490321561030647D+02 0.466298328283754D+03 -.469959136649441D+02
 0.292534808839569D+03 -.101943944725556D+02 -.292292669657489D+03 -.613872695586331D+01
 0.167758939230609D+03 0.854155211216801D+01 -.158892459057666D+03 0.531346406208074D+02
 0.765401333530680D+02 0.506849984634524D+02 -.151131995685991D+02 -.553264325911672D+02
0.585472263647D-04 0.000000000000D+00 0.000000000000D+00 0.573530335068D-04 0.131281836200D-06  6 -1 2 25 4 -3 21 2 0.29445286D-01 0.21024487D+00 0.24489043D+06 0.24489043D+06 0.24489043D+06 0.10911344D+01  1  2  1  2  6  2        2 0.150547906848D-02 0.100000000000D+01
  </mgrwgt>
  </event>
  <event>
  6     66 0.18082911E-05 0.23407805E+02 0.75467711E-02 0.92558975E-01
       -1 -1    0    0    0  501 0.00000000E+00 0.00000000E+00 0.15347233E+03 0.15347267E+03 0.32000000E+00 0.0000E+00 0.9000E+01
        2 -1    0    0  501    0 -.00000000E+00 -.00000000E+00 -.33104024E+04 0.33104024E+04 0.32000000E+00 0.0000E+00 0.9000E+01
       25  1    1    2    0    0 0.30397291E+03 0.50139820E+03 -.65979331E+03 0.89148859E+03 0.12500000E+03 0.0000E+00 0.9000E+01
        4  1    1    2  502    0 -.95066638E+02 -.90284796E+02 -.48015586E+03 0.49773593E+03 0.15500000E+01 0.0000E+00 0.9000E+01
       -3  1    1    2    0  503 -.22121578E+03 -.36760497E+03 -.19240085E+04 0.19712632E+04 0.50000000E+00 0.0000E+00 0.9000E+01
       21  1    1    2  503  502 0.12309506E+02 -.43508433E+02 -.92972434E+02 0.10338735E+03 0.75000000E+00 0.0000E+00 0.9000E+01
#aMCatNLO 2  0  0  5  1 0.32714387D+02 0.00000000D+00  -5  6  0 0.00000000D+00 0.00000000D+00 0.00000000D+00 0.00000000D+00 0.00000000D+00
  <mgrwgt>
 0.2778748938D-01    1    2    0
 0.712780322627294D+03 0.000000000000000D+00 0.000000000000000D+00 0.712780322627294D+03
 0.712780322627294D+03 -.000000000000000D+00 -.000000000000000D+00 -.712780322627294D+03
 0.715225963140377D+03 0.307883385689745D+03 0.509093751057940D+03 0.376768565302436D+03
 0.143962973939790D+03 -.942252940819063D+02 -.886116484692592D+02 -.632052812376266D+02
 0.566371708174419D+03 -.213658091607838D+03 -.420482102588681D+03 -.313563284064809D+03
 0.000000000000000D+00 0.000000000000000D+00 -.000000000000000D+00 0.000000000000000D+00
 0.712780322627294D+03 0.000000000000000D+00 0.000000000000000D+00 0.712780322627294D+03
 0.712780322627294D+03 -.000000000000000D+00 -.000000000000000D+00 -.712780322627294D+03
 0.705029601076530D+03 0.303967305256663D+03 0.501386850177113D+03 0.371021350057657D+03
 0.145971300971389D+03 -.950247318517455D+02 -.901849531441310D+02 -.643785311278125D+02
 0.529175355090771D+03 -.221273541037522D+03 -.367631626356917D+03 -.309695921468668D+03
 0.453843881158973D+02 0.123309676326041D+02 -.435702706760643D+02 0.305310253882312D+01
0.105979988953D-01 0.000000000000D+00 0.000000000000D+00 0.678622977294D-06 0.132601541472D-06  6 -1 2 25 4 -3 21 2 0.23611155D-01 0.50929270D+00 0.36293611D+06 0.36293611D+06 0.36293611D+06 0.10784852D+01  1  2  1  4  6  5       -3 0.277874893838D-01 0.100000000000D+01
  </mgrwgt>
  </event>
  <event>
  5     66 0.18082911E-05 0.39693129E+02 0.75467711E-02 0.92660472E-01
       -1 -1    0    0    0  501 0.00000000E+00 0.00000000E+00 0.28064401E+03 0.28064419E+03 0.32000000E+00 0.0000E+00 0.9000E+01
        2 -1    0    0  501    0 -.00000000E+00 -.00000000E+00 -.13113110E+04 0.13113110E+04 0.32000000E+00 0.0000E+00 0.9000E+01
       25  1    1    2    0    0 -.12624087E+03 -.57662753E+03 -.57603315E+03 0.83419138E+03 0.12500000E+03 0.0000E+00 0.9000E+01
        4  1    1    2  502    0 0.11511699E+03 0.53045287E+03 -.35841034E+03 0.65045564E+03 0.15500000E+01 0.0000E+00 0.9000E+01
       -3  1    1    2    0  502 0.11123886E+02 0.46174663E+02 -.96223490E+02 0.10730820E+03 0.50000000E+00 0.0000E+00 0.9000E+01
#aMCatNLO 1  0  0  4  5 0.32425619D+01 0.00000000D+00  -5  6  0 0.00000000D+00 0.00000000D+00 0.00000000D+00 0.00000000D+00 0.00000000D+00
  <mgrwgt>
 0.5605948716D-04    6    2    0
 0.606639720290501D+03 0.000000000000000D+00 0.000000000000000D+00 0.606639720290501D+03
 0.606639720290501D+03 -.000000000000000D+00 -.000000000000000D+00 -.606639720290501D+03
 0.605216904270535D+03 -.126240920275389D+03 -.576627737808677D+03 -.471824464444268D+02
 0.549003149620658D+03 0.115117122562032D+03 0.530454060605285D+03 0.822860618440635D+02
 0.590593866898083D+02 0.111237977133572D+02 0.461736772033917D+02 -.351036153996367D+02
 0.000000000000000D+00 0.000000000000000D+00 0.000000000000000D+00 0.000000000000000D+00
 0.606639720290501D+03 0.000000000000000D+00 0.000000000000000D+00 0.606639720290501D+03
 0.606639720290501D+03 -.000000000000000D+00 -.000000000000000D+00 -.606639720290501D+03
 0.605191472110702D+03 -.126235456386973D+03 -.576602560478560D+03 -.471785408407244D+02
 0.132744527950945D+03 0.308443130736679D+02 0.127429444554497D+03 0.207719693930355D+02
 0.590611815244199D+02 0.111243309198493D+02 0.461761341927827D+02 -.351032342620492D+02
 0.416282258994935D+03 0.842668123934560D+02 0.402996981731281D+03 0.615098057097381D+02
0.738818276272D-07 0.000000000000D+00 0.000000000000D+00 0.605209002770D-08 0.000000000000D+00  6 -1 2 25 4 -3 21 0 0.43176018D-01 0.20174017D+00 0.35621270D+06 0.35621270D+06 0.35621270D+06 0.10790763D+01  1  2  2  3  6  4        4 0.874297582982D-06 0.100000000000D+01
0.146381609989D-07 0.000000000000D+00 -.283725671620D-09 0.605209002770D-08 0.000000000000D+00  6 -1 2 25 4 -3 21 2 0.43176018D-01 0.20174017D+00 0.35621270D+06 0.35621270D+06 0.35621270D+06 0.10790763D+01  1  2  3  3  6  4        4 0.201703042921D-06 0.100000000000D+01
-.201579478983D-07 0.000000000000D+00 0.000000000000D+00 0.605209002770D-08 0.000000000000D+00  6 -1 2 25 4 -3 21 2 0.43176018D-01 0.20174017D+00 0.35621270D+06 0.35621270D+06 0.35621270D+06 0.10790763D+01  1  2 15  3  6  4        4 -.277761628009D-06 0.100000000000D+01
0.990032723011D-06 0.000000000000D+00 0.000000000000D+00 0.605209002770D-08 0.000000000000D+00  6 -1 2 25 4 -3 21 2 0.43176018D-01 0.20174017D+00 0.35621145D+06 0.35621145D+06 0.35621145D+06 0.10790764D+01  1  2 12  3  6  4        4 0.136419239241D-04 0.100000000000D+01
-.375303068610D-04 0.000000000000D+00 0.000000000000D+00 0.605209002770D-08 0.000000000000D+00  6 -1 2 25 4 -3 21 2 0.43176018D-01 0.20174017D+00 0.35621270D+06 0.35621270D+06 0.35621270D+06 0.10790763D+01  1  2  5  3  6  4        4 -.517139898664D-03 0.100000000000D+01
0.405507256920D-04 0.000000000000D+00 0.000000000000D+00 0.605209002770D-08 0.507597713135D-09  6 -1 2 25 4 -3 21 2 0.43176018D-01 0.20174017D+00 0.35621145D+06 0.35621145D+06 0.35621145D+06 0.10790764D+01  1  2 11  3  6  4        4 0.558759222903D-03 0.100000000000D+01
  </mgrwgt>
  </event>
  <event>
  7     66 0.18082911E-05 0.59711828E+02 0.75467711E-02 0.92149000E-01
       -1 -1    0    0    0  501 0.00000000E+00 0.00000000E+00 0.35986382E+03 0.35986396E+03 0.32000000E+00 0.0000E+00 0.9000E+01
        2 -1    0    0  503    0 0.00000000E+00 0.00000000E+00 -.12229640E+04 0.12229640E+04 0.32000000E+00 0.0000E+00 0.9000E+01
       24  2    1    2    0    0 0.59990976E+03 -.10684779E+03 -.19505524E+03 0.64488330E+03 0.80744916E+02 0.0000E+00 0.0000E+00
       25  1    1    2    0    0 -.59873774E+03 0.12473471E+03 -.59375598E+03 0.86152005E+03 0.12500000E+03 0.0000E+00 0.9000E+01
        4  1    3    3  502    0 0.34689494E+03 -.64249423E+02 -.15440433E+03 0.38510672E+03 0.15500000E+01 0.0000E+00 0.9000E+01
       -3  1    3    3    0  502 0.25301482E+03 -.42598366E+02 -.40650919E+02 0.25977657E+03 0.50000000E+00 0.0000E+00 0.9000E+01
       21  1    1    2  503  501 -.11720224E+01 -.17886924E+02 -.74288938E+02 0.76424633E+02 0.75000000E+00 0.0000E+00 0.9000E+01
#aMCatNLO 2  0  0  2  1 0.57901435D+02 0.00000000D+00  -5  6  0 0.00000000D+00 0.00000000D+00 0.00000000D+00 0.00000000D+00 0.00000000D+00
  <mgrwgt>
 0.3085268751D-02    1    2    0
 0.641620327194603D+03 0.000000000000000D+00 0.000000000000000D+00 0.641620327194603D+03
 0.641620327194603D+03 0.000000000000000D+00 0.000000000000000D+00 -.641620327194603D+03
 0.645168086761444D+03 -.599327480697673D+03 0.115734371425402D+03 -.167418596119934D+03
 0.357655318844887D+03 0.346488616584194D+03 -.692169763300964D+02 0.554254081024971D+02
 0.280417248782874D+03 0.252838864113479D+03 -.465173950953053D+02 0.111993188017437D+03
 0.000000000000000D+00 -.000000000000000D+00 -.000000000000000D+00 -.000000000000000D+00
 0.643589512498017D+03 0.000000000000000D+00 0.000000000000000D+00 0.643589512498017D+03
 0.683815175057066D+03 0.000000000000000D+00 0.000000000000000D+00 -.683815175057066D+03
 0.646296850768443D+03 -.598737742508517D+03 0.124734713220667D+03 -.167418596119934D+03
 0.357041863205935D+03 0.346814977919829D+03 -.642361837962521D+02 0.554254081024971D+02
 0.280027131285509D+03 0.253094787014845D+03 -.426116049872913D+02 0.111993188017437D+03
 0.440388422951970D+02 -.117202242615610D+01 -.178869244371240D+02 -.402256625590485D+02
0.316131324226D-03 0.000000000000D+00 0.000000000000D+00 0.305249622536D-03 0.587933115967D-05  6 -1 2 25 4 -3 21 2 0.55363404D-01 0.18814739D+00 0.39158295D+06 0.39158295D+06 0.39158295D+06 0.10760941D+01  1  2  1  2  6  2        2 0.308526875102D-02 0.100000000000D+01
  </mgrwgt>
  </event>
  <event>
  7     66 0.18082911E-05 0.16146177E+03 0.75467711E-02 0.91713887E-01
       -1 -1    0    0    0  501 0.00000000E+00 0.00000000E+00 0.88553069E+03 0.88553074E+03 0.32000000E+00 0.0000E+00 0.9000E+01
        2 -1    0    0  503    0 0.00000000E+00 0.00000000E+00 -.13603032E+04 0.13603033E+04 0.32000000E+00 0.0000E+00 0.9000E+01
       24  2    1    2    0    0 -.12463582E+03 -.46978685E+03 0.15176265E+03 0.51560548E+03 0.81137730E+02 0.0000E+00 0.0000E+00
       25  1    1    2    0    0 0.32944121E+02 0.62078467E+03 0.35921120E+03 0.72877748E+03 0.12500000E+03 0.0000E+00 0.9000E+01
        4  1    3    3  502    0 -.38799022E+02 -.45260243E+02 0.19571410E+02 0.62763814E+02 0.15500000E+01 0.0000E+00 0.9000E+01
       -3  1    3    3    0  502 -.85836799E+02 -.42452661E+03 0.13219124E+03 0.45284166E+03 0.50000000E+00 0.0000E+00 0.9000E+01
       21  1    1    2  503  501 0.91691700E+02 -.15099782E+03 -.98574640E+03 0.10014511E+04 0.75000000E+00 0.0000E+00 0.9000E+01
#aMCatNLO 2  0  0  2  1 0.57901435D+02 0.00000000D+00  -5  6  0 0.00000000D+00 0.00000000D+00 0.00000000D+00 0.00000000D+00 0.00000000D+00
  <mgrwgt>
 0.6873343898D-03    1    2    0
 0.560398729998125D+03 0.000000000000000D+00 0.000000000000000D+00 0.560398729998125D+03
 0.560398729998125D+03 0.000000000000000D+00 0.000000000000000D+00 -.560398729998125D+03
 0.564432317333343D+03 0.818072019302270D+02 0.540316989350212D+03 0.657569280164257D+02
 0.635079052848850D+02 -.337536472309481D+02 -.533665085113495D+02 -.677946174786041D+01
 0.492857237378022D+03 -.480535546992789D+02 -.486950480838863D+03 -.589774662685653D+02
 0.000000000000000D+00 0.000000000000000D+00 -.000000000000000D+00 -.000000000000000D+00
 0.572392605980178D+03 0.000000000000000D+00 0.000000000000000D+00 0.572392605980178D+03
 0.210448207992788D+04 0.000000000000000D+00 0.000000000000000D+00 -.210448207992788D+04
 0.637501294408648D+03 0.329441214582214D+02 0.620784674143853D+03 0.657569280164257D+02
 0.598635732528897D+02 -.387691575926265D+02 -.451069697560308D+02 -.677946174786041D+01
 0.437269283534718D+03 -.858666640062360D+02 -.424679880389861D+03 -.589774662685653D+02
 0.154224053471181D+04 0.916917001406412D+02 -.150997823997962D+03 -.153208947394771D+04
0.600387290332D-03 0.000000000000D+00 0.000000000000D+00 0.758998738456D-04 0.279663456391D-07  6 -1 2 25 4 -3 21 2 0.13623548D+00 0.20927739D+00 0.42478462D+06 0.42478462D+06 0.42478462D+06 0.10735505D+01  1  2  1  2  6  2        2 0.687334389794D-03 0.100000000000D+01
  </mgrwgt>
  </event>
  <event>
  6     66 0.18082911E-05 0.60986115E+02 0.75467711E-02 0.82815491E-01
       -1 -1    0    0    0  501 0.00000000E+00 0.00000000E+00 0.11022368E+04 0.11022369E+04 0.32000000E+00 0.0000E+00 0.9000E+01
        2 -1    0    0  501    0 -.00000000E+00 -.00000000E+00 -.24978532E+04 0.24978532E+04 0.32000000E+00 0.0000E+00 0.9000E+01
       25  1    1    2    0    0 0.14900935E+04 0.69651249E+03 -.85579882E+03 0.18583662E+04 0.12500000E+03 0.0000E+00 0.9000E+01
        4  1    1    2  502    0 -.58897365E+03 -.30680504E+03 -.18166014E+03 0.68849263E+03 0.15500000E+01 0.0000E+00 0.9000E+01
       -3  1    1    2    0  503 -.86623998E+03 -.38247080E+03 -.31649603E+03 0.99841154E+03 0.50000000E+00 0.0000E+00 0.9000E+01
       21  1    1    2  503  502 -.34879863E+02 -.72366500E+01 -.41661368E+02 0.54819759E+02 0.75000000E+00 0.0000E+00 0.9000E+01
#aMCatNLO 2  0  0  5  5 0.68118205D+02 0.00000000D+00  -5  6  0 0.00000000D+00 0.00000000D+00 0.00000000D+00 0.00000000D+00 0.00000000D+00
  <mgrwgt>
 0.5059167376D-03    1    2    0
 0.165928476972381D+04 0.000000000000000D+00 0.000000000000000D+00 0.165928476972381D+04
 0.165928476972381D+04 -.000000000000000D+00 -.000000000000000D+00 -.165928476972381D+04
 0.166043315764414D+04 0.149406987918029D+04 0.698232157388491D+03 -.147106497201497D+03
 0.668593930281528D+03 -.587210321396851D+03 -.306052628087138D+03 0.923778701598160D+02
 0.989542451521951D+03 -.906859557783439D+03 -.392179529301353D+03 0.547286270416813D+02
 0.000000000000000D+00 -.000000000000000D+00 0.000000000000000D+00 0.000000000000000D+00
 0.165928476972381D+04 0.000000000000000D+00 0.000000000000000D+00 0.165928476972381D+04
 0.165928476972381D+04 -.000000000000000D+00 -.000000000000000D+00 -.165928476972381D+04
 0.165610641809283D+04 0.149008942806570D+04 0.696510775691482D+03 -.146866278500996D+03
 0.670336827775192D+03 -.588817281997367D+03 -.306747572576069D+03 0.924748496166917D+02
 0.950161047923314D+03 -.866380722416886D+03 -.382530186805250D+03 0.765579322987860D+02
 0.419652456562842D+02 -.348914236514500D+02 -.723301631016358D+01 -.221665034144816D+02
0.475801101887D-02 0.000000000000D+00 0.000000000000D+00 0.288040847306D-05 0.102743840167D-07  6 -1 2 25 4 -3 21 2 0.16957490D+00 0.38428511D+00 0.27162567D+07 0.27162567D+07 0.27162567D+07 0.10201422D+01  1  2  1  4  6  5       -3 0.505916737601D-03 0.100000000000D+01
  </mgrwgt>
  </event>
  <event>
  7     66 0.18082911E-05 0.13829956E+03 0.75467711E-02 0.86822604E-01
       -1 -1    0    0    0  503 0.00000000E+00 0.00000000E+00 0.10523884E+04 0.10523885E+04 0.32000000E+00 0.0000E+00 0.9000E+01
        2 -1    0    0  501    0 0.00000000E+00 0.00000000E+00 -.16145883E+04 0.16145883E+04 0.32000000E+00 0.0000E+00 0.9000E+01
       24  2    1    2    0    0 0.94718167E+03 0.44965133E+03 -.54045944E+03 0.11822847E+04 0.79757122E+02 0.0000E+00 0.0000E+00
       25  1    1    2    0    0 -.78406042E+03 -.43310188E+03 -.46150823E+03 0.10153535E+04 0.12500000E+03 0.0000E+00 0.9000E+01
        4  1    3    3  502    0 0.29026752E+03 0.10197157E+03 -.17672420E+03 0.35480597E+03 0.15500000E+01 0.0000E+00 0.9000E+01
       -3  1    3    3    0  502 0.65691416E+03 0.34767976E+03 -.36373524E+03 0.82747870E+03 0.50000000E+00 0.0000E+00 0.9000E+01
       21  1    1    2  501  503 -.16312126E+03 -.16549451E+02 0.43976781E+03 0.46933859E+03 0.75000000E+00 0.0000E+00 0.9000E+01
#aMCatNLO 2  0  0  1  2 0.54490634D+02 0.00000000D+00  -5  6  0 0.00000000D+00 0.00000000D+00 0.00000000D+00 0.00000000D+00 0.00000000D+00
  <mgrwgt>
 0.3596849960D-03    1    2    0
 0.974524512608194D+03 0.000000000000000D+00 0.000000000000000D+00 0.974524512608194D+03
 0.974524512608194D+03 0.000000000000000D+00 0.000000000000000D+00 -.974524512608194D+03
 0.976901005301969D+03 -.862647623159803D+03 -.441074939821893D+03 0.159683369689233D+01
 0.283800906596565D+03 0.265315846455704D+03 0.993367679490489D+02 -.168125767793753D+02
 0.688347113317852D+03 0.597331776704098D+03 0.341738171872844D+03 0.152157430824830D+02
 0.000000000000000D+00 -.000000000000000D+00 -.000000000000000D+00 0.000000000000000D+00
 0.172154540124329D+04 0.000000000000000D+00 0.000000000000000D+00 0.172154540124329D+04
 0.987004771268371D+03 0.000000000000000D+00 0.000000000000000D+00 -.987004771268371D+03
 0.904408938277582D+03 -.784060416673253D+03 -.433101882661218D+03 0.159683369689233D+01
 0.307851788110911D+03 0.290030717413560D+03 0.101844212705969D+03 -.168125767793753D+02
 0.743672434857080D+03 0.657150955521105D+03 0.347807120666618D+03 0.152157430824830D+02
 0.752617011266087D+03 -.163121256261412D+03 -.165494507113692D+02 0.734540629974917D+03
0.811700465790D-03 0.000000000000D+00 0.000000000000D+00 0.182976087276D-03 0.459773644390D-07  6 -1 2 25 4 -3 21 2 0.16190589D+00 0.24839816D+00 0.11228319D+07 0.11228319D+07 0.11228319D+07 0.10445310D+01  1  2  1  1  6  1       -1 0.359684995990D-03 0.100000000000D+01
  </mgrwgt>
  </event>
  <event>
  7     66 0.18082911E-05 0.69511517E+02 0.75467711E-02 0.93786644E-01
       21 -1    0    0  503  501 0.00000000E+00 0.00000000E+00 0.55297592E+03 0.55297643E+03 0.75000000E+00 0.0000E+00 0.9000E+01
        2 -1    0    0  501    0 0.00000000E+00 0.00000000E+00 -.71949866E+03 0.71949873E+03 0.32000000E+00 0.0000E+00 0.9000E+01
       24  2    1    2    0    0 -.17720795E+03 -.46674184E+03 -.38460182E+03 0.63528724E+03 0.80129389E+02 0.0000E+00 0.0000E+00
       25  1    1    2    0    0 0.83012583E+02 0.45262840E+03 0.10308036E+03 0.48786690E+03 0.12500000E+03 0.0000E+00 0.9000E+01
        4  1    3    3  502    0 -.83820850E+02 -.12045544E+03 -.12032365E+03 0.18977784E+03 0.15500000E+01 0.0000E+00 0.9000E+01
        1  1    1    2  503    0 0.94195370E+02 0.14113442E+02 0.11499872E+03 0.14932101E+03 0.32000000E+00 0.0000E+00 0.9000E+01
       -3  1    3    3    0  502 -.93387102E+02 -.34628640E+03 -.26427817E+03 0.44550940E+03 0.50000000E+00 0.0000E+00 0.9000E+01
#aMCatNLO 2  0  0  1  2 0.54490634D+02 0.00000000D+00  -5  6  0 0.00000000D+00 0.00000000D+00 0.00000000D+00 0.00000000D+00 0.00000000D+00
  <mgrwgt>
 0.2111402613D-03    1    2    0
 0.541560001825219D+03 0.000000000000000D+00 0.000000000000000D+00 0.541560001825219D+03
 0.541560001825219D+03 0.000000000000000D+00 0.000000000000000D+00 -.541560001825219D+03
 0.545808968268168D+03 0.129730217244183D+03 0.459628174606630D+03 0.232796996723576D+03
 0.156522617453134D+03 -.698464122208318D+02 -.118241437134261D+03 -.750984088958110D+02
 0.000000000000000D+00 0.000000000000000D+00 0.000000000000000D+00 0.000000000000000D+00
 0.380788417929135D+03 -.598838050233513D+02 -.341386737472368D+03 -.157698587827765D+03
 0.714386211221393D+03 0.000000000000000D+00 0.000000000000000D+00 0.714386211221393D+03
 0.556933489680295D+03 0.000000000000000D+00 0.000000000000000D+00 -.556933489680295D+03
 0.530643944958722D+03 0.830125826933622D+02 0.452628396979704D+03 0.232796996723576D+03
 0.164741686570579D+03 -.837891571056145D+02 -.120330500817404D+03 -.750984088958110D+02
 0.184019880594109D+03 0.941953697292431D+02 0.141134423420662D+02 0.157452721541097D+03
 0.391914188778278D+03 -.934187953169908D+02 -.346411338504367D+03 -.157698587827765D+03
0.314632407266D-05 0.000000000000D+00 0.000000000000D+00 0.191094215134D-03 0.525303251717D-08  6 21 2 25 4 1 -3 2 0.85073242D-01 0.11069212D+00 0.29025977D+06 0.29025977D+06 0.29025977D+06 0.10856140D+01  1  2  1  5  5  1       -1 0.211140261338D-03 0.100000000000D+01
  </mgrwgt>
  </event>
  <event>
  6     66 -.18082911E-05 0.16617194E+02 0.75467711E-02 0.95527510E-01
       -1 -1    0    0    0  501 0.00000000E+00 0.00000000E+00 0.38207441E+03 0.38207454E+03 0.32000000E+00 0.0000E+00 0.9000E+01
        2 -1    0    0  501    0 -.00000000E+00 -.00000000E+00 -.56624481E+03 0.56624490E+03 0.32000000E+00 0.0000E+00 0.9000E+01
       24  2    1    2    0    0 0.37179586E+03 0.25366878E+03 -.37852856E+02 0.45881578E+03 0.80616799E+02 0.0000E+00 0.0000E+00
       25  1    1    2    0    0 -.37179586E+03 -.25366878E+03 -.14631754E+03 0.48950366E+03 0.12500000E+03 0.0000E+00 0.9000E+01
        4  1    3    3  502    0 0.16584712E+02 -.53755103E+01 0.50650932E+00 0.17510221E+02 0.15500000E+01 0.0000E+00 0.9000E+01
       -3  1    3    3    0  502 0.35521114E+03 0.25904429E+03 -.38359365E+02 0.44130556E+03 0.50000000E+00 0.0000E+00 0.9000E+01
#aMCatNLO 1  0  0  4  4 0.17132254D+01 0.00000000D+00  -5  6  0 0.00000000D+00 0.00000000D+00 0.00000000D+00 0.00000000D+00 0.00000000D+00
  <mgrwgt>
 -.2607759973D-01    6    2    0
 0.465131977048423D+03 0.000000000000000D+00 0.000000000000000D+00 0.465131977048423D+03
 0.465131977048423D+03 -.000000000000000D+00 -.000000000000000D+00 -.465131977048423D+03
 0.470036999835140D+03 -.371795857024424D+03 -.253668784594238D+03 -.522471973982825D+02
 0.177874759831363D+02 0.164539816473458D+02 -.547152039243276D+01 0.396525590531711D+01
 0.442439478278571D+03 0.355341875377078D+03 0.259140304986670D+03 0.482819414929654D+02
 0.000000000000000D+00 0.000000000000000D+00 0.000000000000000D+00 0.000000000000000D+00
 0.465131977048423D+03 0.000000000000000D+00 0.000000000000000D+00 0.465131977048423D+03
 0.465131977048423D+03 -.000000000000000D+00 -.000000000000000D+00 -.465131977048423D+03
 0.469591492143156D+03 -.371097297797421D+03 -.253901079800212D+03 -.520788511487573D+02
 0.160672406041189D+02 0.153796755203661D+02 -.411104670141270D+01 0.217280844477898D+01
 0.442857573379646D+03 0.356000042332800D+03 0.258921441613838D+03 0.484405535823547D+02
 0.174764796992536D+01 -.282420055744451D+00 -.909315112213691D+00 0.146548912162367D+01
0.377591714527D-04 0.000000000000D+00 0.000000000000D+00 0.355320767037D-04 0.000000000000D+00  6 -1 2 25 4 -3 21 0 0.58780696D-01 0.87114603D-01 0.21356470D+06 0.21356470D+06 0.21356470D+06 0.10956432D+01  1  2  2  3  6  4        4 0.809457069959D-03 0.100000000000D+01
0.142336626945D-04 0.000000000000D+00 -.145005160596D-06 0.355320767037D-04 0.000000000000D+00  6 -1 2 25 4 -3 21 2 0.58780696D-01 0.87114603D-01 0.21356470D+06 0.21356470D+06 0.21356470D+06 0.10956432D+01  1  2  3  3  6  4        4 0.366291092082D-03 0.100000000000D+01
-.976569310933D-05 0.000000000000D+00 0.000000000000D+00 0.355320767037D-04 0.000000000000D+00  6 -1 2 25 4 -3 21 2 0.58780696D-01 0.87114603D-01 0.21356470D+06 0.21356470D+06 0.21356470D+06 0.10956432D+01  1  2 15  3  6  4        4 -.251311729857D-03 0.100000000000D+01
-.110457475977D-02 0.000000000000D+00 0.000000000000D+00 0.355320767037D-04 0.000000000000D+00  6 -1 2 25 4 -3 21 2 0.58780696D-01 0.87114603D-01 0.21356470D+06 0.21356470D+06 0.21356470D+06 0.10956432D+01  1  2  4  3  6  4        4 -.284252833390D-01 0.100000000000D+01
-.144910712916D-03 0.000000000000D+00 0.000000000000D+00 0.355320767037D-04 0.000000000000D+00  6 -1 2 25 4 -3 21 2 0.58780696D-01 0.87114603D-01 0.21356470D+06 0.21356470D+06 0.21356470D+06 0.10956432D+01  1  2  5  3  6  4        4 -.372915281384D-02 0.100000000000D+01
0.200216508510D-03 0.000000000000D+00 -.000000000000D+00 0.355320767037D-04 0.000000000000D+00  6 -1 2 25 4 -3 21 2 0.58780696D-01 0.87114603D-01 0.21356470D+06 0.21356470D+06 0.21356470D+06 0.10956432D+01  1  2  6  3  6  4        4 0.515239999213D-02 0.100000000000D+01
  </mgrwgt>
  </event>
  <event>
  7     66 0.18082911E-05 0.71116640E+02 0.75467711E-02 0.92192601E-01
       -1 -1    0    0    0  501 0.00000000E+00 0.00000000E+00 0.41827736E+03 0.41827748E+03 0.32000000E+00 0.0000E+00 0.9000E+01
        2 -1    0    0  503    0 0.00000000E+00 0.00000000E+00 -.15732227E+04 0.15732227E+04 0.32000000E+00 0.0000E+00 0.9000E+01
       24  2    1    2    0    0 -.22887596E+02 -.54236513E+03 -.11149067E+04 0.12422733E+04 0.74445625E+02 0.0000E+00 0.0000E+00
       25  1    1    2    0    0 -.43504772E+02 0.59866158E+03 -.12705398E+03 0.62614381E+03 0.12500000E+03 0.0000E+00 0.9000E+01
        4  1    3    3  502    0 0.18551663E+02 -.82390531E+02 -.20930232E+03 0.22570385E+03 0.15500000E+01 0.0000E+00 0.9000E+01
       -3  1    3    3    0  502 -.41439259E+02 -.45997460E+03 -.90560436E+03 0.10165694E+04 0.50000000E+00 0.0000E+00 0.9000E+01
       21  1    1    2  503  501 0.66392368E+02 -.56296451E+02 0.87015310E+02 0.12308316E+03 0.75000000E+00 0.0000E+00 0.9000E+01
#aMCatNLO 2  0  0  2  1 0.16120546D+03 0.00000000D+00  -5  6  0 0.00000000D+00 0.00000000D+00 0.00000000D+00 0.00000000D+00 0.00000000D+00
  <mgrwgt>
 0.8666091965D-04    1    2    0
 0.696587899270662D+03 0.000000000000000D+00 0.000000000000000D+00 0.696587899270662D+03
 0.696587899270662D+03 0.000000000000000D+00 0.000000000000000D+00 -.696587899270662D+03
 0.700206555654526D+03 -.957708987495749D+01 0.569893094238259D+03 0.387032764854146D+03
 0.120081907444142D+03 0.241819535898933D+02 -.869529232546096D+02 -.792091330180907D+02
 0.572887335442657D+03 -.146048637149358D+02 -.482940170983649D+03 -.307823631836055D+03
 0.000000000000000D+00 0.000000000000000D+00 -.000000000000000D+00 0.000000000000000D+00
 0.932019983617366D+03 0.000000000000000D+00 0.000000000000000D+00 0.932019983617366D+03
 0.706039070292299D+03 0.000000000000000D+00 0.000000000000000D+00 -.706039070292299D+03
 0.725057044425583D+03 -.435047723258211D+02 0.598661583355234D+03 0.387032764854146D+03
 0.115650015844614D+03 0.185704738352551D+02 -.821947499109032D+02 -.792091330180907D+02
 0.555185501000567D+03 -.414580696581309D+02 -.460170382211559D+03 -.307823631836055D+03
 0.242166492638902D+03 0.663923681486969D+02 -.562964512327713D+02 0.225980913325067D+03
0.185547386584D-04 0.000000000000D+00 0.000000000000D+00 0.389851400570D-05 0.335723113039D-08  6 -1 2 25 4 -3 21 2 0.64350322D-01 0.24203408D+00 0.38841918D+06 0.38841918D+06 0.38841918D+06 0.10763486D+01  1  2  1  2  6  2        2 0.866609196468D-04 0.100000000000D+01
  </mgrwgt>
  </event>
  <event>
  7     66 0.18082911E-05 0.49481031E+02 0.75467711E-02 0.85582510E-01
       -1 -1    0    0    0  501 0.00000000E+00 0.00000000E+00 0.13452544E+04 0.13452544E+04 0.32000000E+00 0.0000E+00 0.9000E+01
        2 -1    0    0  503    0 0.00000000E+00 0.00000000E+00 -.14221981E+04 0.14221981E+04 0.32000000E+00 0.0000E+00 0.9000E+01
       24  2    1    2    0    0 -.11124140E+04 0.17506119E+03 0.52707036E+03 0.12460374E+04 0.81821536E+02 0.0000E+00 0.0000E+00
       25  1    1    2    0    0 0.11917517E+04 -.18239505E+03 -.35955182E+03 0.12642953E+04 0.12500000E+03 0.0000E+00 0.9000E+01
        4  1    3    3  502    0 -.38901639E+03 0.83476933E+02 0.15068319E+03 0.42545267E+03 0.15500000E+01 0.0000E+00 0.9000E+01
       -3  1    3    3    0  502 -.72339760E+03 0.91584255E+02 0.37638717E+03 0.82058474E+03 0.50000000E+00 0.0000E+00 0.9000E+01
       21  1    1    2  503  501 -.79337691E+02 0.73338631E+01 -.24446228E+03 0.25711986E+03 0.75000000E+00 0.0000E+00 0.9000E+01
#aMCatNLO 2  0  0  2  1 0.16120546D+03 0.00000000D+00  -5  6  0 0.00000000D+00 0.00000000D+00 0.00000000D+00 0.00000000D+00 0.00000000D+00
  <mgrwgt>
 0.6614405593D-03    1    2    0
 0.125173474354259D+04 0.000000000000000D+00 0.000000000000000D+00 0.125173474354259D+04
 0.125173474354259D+04 0.000000000000000D+00 0.000000000000000D+00 -.125173474354259D+04
 0.125351831556069D+04 0.115143995736383D+04 -.178668692704086D+03 -.444912002849451D+03
 0.428830378776876D+03 -.402155492900122D+03 0.846843953234355D+02 0.122454099485818D+03
 0.821120792747617D+03 -.749284464463711D+03 0.939842973806504D+02 0.322457903363633D+03
 0.000000000000000D+00 -.000000000000000D+00 0.000000000000000D+00 -.000000000000000D+00
 0.125828767391820D+04 0.000000000000000D+00 0.000000000000000D+00 0.125828767391820D+04
 0.152049232932028D+04 0.000000000000000D+00 0.000000000000000D+00 -.152049232932028D+04
 0.129116680401411D+04 0.119175168170933D+04 -.182395051060822D+03 -.444912002849451D+03
 0.416054677124997D+03 -.388771214737314D+03 0.834471717218501D+02 0.122454099485818D+03
 0.797515576423388D+03 -.723642775978292D+03 0.916140162349090D+02 0.322457903363633D+03
 0.274042945675984D+03 -.793376909937226D+02 0.733386310406268D+01 -.262204655402084D+03
0.283490692955D-02 0.000000000000D+00 0.000000000000D+00 0.891992809455D-04 0.823850460578D-07  6 -1 2 25 4 -3 21 2 0.20696213D+00 0.21879962D+00 0.14626630D+07 0.14626630D+07 0.14626630D+07 0.10370446D+01  1  2  1  2  6  2        2 0.661440559315D-03 0.100000000000D+01
  </mgrwgt>
  </event>
  <event>
  7     66 0.18082911E-05 0.53441213E+02 0.75467711E-02 0.89334473E-01
       -1 -1    0    0    0  501 0.00000000E+00 0.00000000E+00 0.46452684E+03 0.46452695E+03 0.32000000E+00 0.0000E+00 0.9000E+01
        2 -1    0    0  503    0 0.00000000E+00 0.00000000E+00 -.18005613E+04 0.18005613E+04 0.32000000E+00 0.0000E+00 0.9000E+01
       24  2    1    2    0    0 0.45123805E+03 -.66107214E+03 -.46548054E+03 0.92919602E+03 0.78108619E+02 0.0000E+00 0.0000E+00
       25  1    1    2    0    0 -.43146296E+03 0.67641021E+03 -.47737002E+03 0.94191199E+03 0.12500000E+03 0.0000E+00 0.9000E+01
        4  1    3    3  502    0 0.29035430E+03 -.36850265E+03 -.24724740E+03 0.53031453E+03 0.15500000E+01 0.0000E+00 0.9000E+01
       -3  1    3    3    0  502 0.16088374E+03 -.29256950E+03 -.21823313E+03 0.39888149E+03 0.50000000E+00 0.0000E+00 0.9000E+01
       21  1    1    2  503  501 -.19775092E+02 -.15338067E+02 -.39318386E+03 0.39398023E+03 0.75000000E+00 0.0000E+00 0.9000E+01
#aMCatNLO 2  0  0  2  1 0.16120546D+03 0.00000000D+00  -5  6  0 0.00000000D+00 0.00000000D+00 0.00000000D+00 0.00000000D+00 0.00000000D+00
  <mgrwgt>
 0.2721363758D-02    1    2    0
 0.807999332814441D+03 0.000000000000000D+00 0.000000000000000D+00 0.807999332814441D+03
 0.807999332814441D+03 0.000000000000000D+00 0.000000000000000D+00 -.807999332814441D+03
 0.810946130938413D+03 -.441392347001813D+03 0.668708721054984D+03 -.317327547191892D+01
 0.469608300057584D+03 0.284556543652944D+03 -.372859457737920D+03 0.231377121308168D+02
 0.335444234632884D+03 0.156835803348870D+03 -.295849263317064D+03 -.199644366588979D+02
 0.000000000000000D+00 -.000000000000000D+00 -.000000000000000D+00 -.000000000000000D+00
 0.808788880005688D+03 0.000000000000000D+00 0.000000000000000D+00 0.808788880005688D+03
 0.103414862500661D+04 0.000000000000000D+00 0.000000000000000D+00 -.103414862500661D+04
 0.811988993110460D+03 -.431462955143471D+03 0.676410211036307D+03 -.317327547191892D+01
 0.469607796315309D+03 0.290302826743597D+03 -.368402493778407D+03 0.231377121308168D+02
 0.334595648957715D+03 0.160935220797111D+03 -.292669650420594D+03 -.199644366588979D+02
 0.226745066628815D+03 -.197750923972365D+02 -.153380668373056D+02 -.225359745000922D+03
0.101423239899D-02 0.000000000000D+00 0.000000000000D+00 0.422252857435D-04 0.415745937479D-06  6 -1 2 25 4 -3 21 2 0.71465624D-01 0.27700922D+00 0.67243768D+06 0.67243768D+06 0.67243768D+06 0.10595330D+01  1  2  1  2  6  2        2 0.272136375762D-02 0.100000000000D+01
  </mgrwgt>
  </event>
  <event>
  6     66 0.18082911E-05 0.28353005E+02 0.75467711E-02 0.93348025E-01
       -1 -1    0    0    0  501 0.00000000E+00 0.00000000E+00 0.35597350E+03 0.35597364E+03 0.32000000E+00 0.0000E+00 0.9000E+01
        2 -1    0    0  501    0 -.00000000E+00 -.00000000E+00 -.11462385E+04 0.11462386E+04 0.32000000E+00 0.0000E+00 0.9000E+01
       25  1    1    2    0    0 0.25774180E+03 0.44971780E+03 -.24849049E+02 0.53377842E+03 0.12500000E+03 0.0000E+00 0.9000E+01
        4  1    1    2  503    0 -.93621622E+02 -.14548128E+03 -.16836109E+03 0.24140769E+03 0.15500000E+01 0.0000E+00 0.9000E+01
       -3  1    1    2    0  502 -.21315355E+03 -.29648961E+03 -.52859697E+03 0.64246053E+03 0.50000000E+00 0.0000E+00 0.9000E+01
       21  1    1    2  502  503 0.49033377E+02 -.77469027E+01 -.68457924E+02 0.84565574E+02 0.75000000E+00 0.0000E+00 0.9000E+01
#aMCatNLO 2  0  0  4  5 0.58859311D+00 0.00000000D+00  -5  6  0 0.00000000D+00 0.00000000D+00 0.00000000D+00 0.00000000D+00 0.00000000D+00
  <mgrwgt>
 0.9411566304D-01    1    2    0
 0.638772791556059D+03 0.000000000000000D+00 0.000000000000000D+00 0.638772791556059D+03
 0.638772791556059D+03 -.000000000000000D+00 -.000000000000000D+00 -.638772791556059D+03
 0.640952450916528D+03 0.265287602637615D+03 0.475649058007092D+03 0.313967364290714D+03
 0.226928555036014D+03 -.570711847861427D+02 -.196355136275886D+03 -.984078727334218D+02
 0.409664577159576D+03 -.208216417851472D+03 -.279293921731206D+03 -.215559491557292D+03
 0.000000000000000D+00 0.000000000000000D+00 0.000000000000000D+00 0.000000000000000D+00
 0.638772791556059D+03 0.000000000000000D+00 0.000000000000000D+00 0.638772791556059D+03
 0.638772791556059D+03 -.000000000000000D+00 -.000000000000000D+00 -.638772791556059D+03
 0.612114279689585D+03 0.257706211962719D+03 0.449565054236921D+03 0.300894768523284D+03
 0.179126195482584D+03 -.937459819862449D+02 -.144854303550318D+03 -.481156472725017D+02
 0.428794649054813D+03 -.213289321635157D+03 -.296747400531280D+03 -.224306702112049D+03
 0.575104588851353D+02 0.493290916586837D+02 -.796335015532252D+01 -.284724191387340D+02
0.834553451167D-02 0.000000000000D+00 0.000000000000D+00 0.379645555960D-06 0.518816730293D-07  6 -1 2 25 4 -3 21 2 0.54765168D-01 0.17634440D+00 0.31416652D+06 0.31416652D+06 0.31416652D+06 0.10830724D+01  1  2  1  3  6  4        4 0.941156630436D-01 0.100000000000D+01
  </mgrwgt>
  </event>
  <event>
  7     66 0.18082911E-05 0.48223029E+02 0.75467711E-02 0.94889680E-01
       -1 -1    0    0    0  501 0.00000000E+00 0.00000000E+00 0.12516594E+03 0.12516635E+03 0.32000000E+00 0.0000E+00 0.9000E+01
        2 -1    0    0  503    0 0.00000000E+00 0.00000000E+00 -.20284462E+04 0.20284462E+04 0.32000000E+00 0.0000E+00 0.9000E+01
       24  2    1    2    0    0 0.25846342E+03 -.39193596E+03 -.87754502E+03 0.99863031E+03 0.82219752E+02 0.0000E+00 0.0000E+00
       25  1    1    2    0    0 -.25360714E+03 0.40091129E+03 -.86900528E+03 0.99791864E+03 0.12500000E+03 0.0000E+00 0.9000E+01
        4  1    3    3  502    0 0.15374327E+03 -.29916212E+03 -.63732314E+03 0.72063733E+03 0.15500000E+01 0.0000E+00 0.9000E+01
       -3  1    3    3    0  502 0.10472015E+03 -.92773838E+02 -.24022188E+03 0.27799298E+03 0.50000000E+00 0.0000E+00 0.9000E+01
       21  1    1    2  503  501 -.48562825E+01 -.89753329E+01 -.15672992E+03 0.15706359E+03 0.75000000E+00 0.0000E+00 0.9000E+01
#aMCatNLO 2  0  0  2  1 0.16120546D+03 0.00000000D+00  -5  6  0 0.00000000D+00 0.00000000D+00 0.00000000D+00 0.00000000D+00 0.00000000D+00
  <mgrwgt>
 0.5285127758D-02    1    2    0
 0.483649053658799D+03 0.000000000000000D+00 0.000000000000000D+00 0.483649053658799D+03
 0.483649053658799D+03 0.000000000000000D+00 0.000000000000000D+00 -.483649053658799D+03
 0.488231360252403D+03 -.256064290999900D+03 0.396370012277895D+03 0.817027389083459D+01
 0.338647496417108D+03 0.152016688786715D+03 -.302272968779169D+03 -.142865498048355D+02
 0.140419250648088D+03 0.104047602213185D+03 -.940970434987264D+02 0.611627591400089D+01
 0.000000000000000D+00 -.000000000000000D+00 -.000000000000000D+00 -.000000000000000D+00
 0.484318109001962D+03 0.000000000000000D+00 0.000000000000000D+00 0.484318109001962D+03
 0.524220061117850D+03 0.000000000000000D+00 0.000000000000000D+00 -.524220061117850D+03
 0.490650793528101D+03 -.253607139483294D+03 0.400911295198083D+03 0.817027389083459D+01
 0.336624815408153D+03 0.153711730808592D+03 -.299140209024254D+03 -.142865498048355D+02
 0.140076327279689D+03 0.104751691190642D+03 -.927957532746558D+02 0.611627591400089D+01
 0.411862339038694D+02 -.485628251593977D+01 -.897533289917365D+01 -.399019521158881D+02
0.234176262694D-03 0.000000000000D+00 0.000000000000D+00 0.623673041708D-04 0.382193290387D-05  6 -1 2 25 4 -3 21 2 0.19256197D-01 0.31206648D+00 0.23865761D+06 0.23865761D+06 0.23865761D+06 0.10919793D+01  1  2  1  2  6  2        2 0.528512775773D-02 0.100000000000D+01
  </mgrwgt>
  </event>
  <event>
  7     66 0.18082911E-05 0.72347495E+02 0.75467711E-02 0.95237366E-01
       -1 -1    0    0    0  503 0.00000000E+00 0.00000000E+00 0.28630529E+03 0.28630547E+03 0.32000000E+00 0.0000E+00 0.9000E+01
        2 -1    0    0  501    0 0.00000000E+00 0.00000000E+00 -.92807458E+03 0.92807463E+03 0.32000000E+00 0.0000E+00 0.9000E+01
       24  2    1    2    0    0 -.39239173E+03 -.23001742E+03 -.21730570E+03 0.51032099E+03 0.79539043E+02 0.0000E+00 0.0000E+00
       25  1    1    2    0    0 0.40470690E+03 0.22555637E+03 -.46087717E+03 0.66535413E+03 0.12500000E+03 0.0000E+00 0.9000E+01
        4  1    3    3  502    0 -.19659739E+03 -.11585714E+03 -.65082367E+02 0.23730050E+03 0.15500000E+01 0.0000E+00 0.9000E+01
       -3  1    3    3    0  502 -.19579435E+03 -.11416028E+03 -.15222334E+03 0.27302050E+03 0.50000000E+00 0.0000E+00 0.9000E+01
       21  1    1    2  501  503 -.12315166E+02 0.44610454E+01 0.36413579E+02 0.38704980E+02 0.75000000E+00 0.0000E+00 0.9000E+01
#aMCatNLO 2  0  0  1  4 0.17807291D+03 0.00000000D+00  -5  6  0 0.00000000D+00 0.00000000D+00 0.00000000D+00 0.00000000D+00 0.00000000D+00
  <mgrwgt>
 0.4592426883D-02    1    2    0
 0.480132381195191D+03 0.000000000000000D+00 0.000000000000000D+00 0.480132381195191D+03
 0.480132381195191D+03 0.000000000000000D+00 0.000000000000000D+00 -.480132381195191D+03
 0.484974035858698D+03 0.398461243579977D+03 0.227818798858145D+03 -.943506635302759D+02
 0.246474459771166D+03 -.199678744884481D+03 -.114678023546129D+03 0.879034076495343D+02
 0.228816266760519D+03 -.198782498695496D+03 -.113140775312017D+03 0.644725588074156D+01
 0.000000000000000D+00 -.000000000000000D+00 0.000000000000000D+00 0.000000000000000D+00
 0.552678896426818D+03 0.000000000000000D+00 0.000000000000000D+00 0.552678896426818D+03
 0.480768630691014D+03 0.000000000000000D+00 0.000000000000000D+00 -.480768630691014D+03
 0.489070955785307D+03 0.404706900069718D+03 0.225556372377529D+03 -.943506635302759D+02
 0.244469308595617D+03 -.196530773117979D+03 -.115818344775204D+03 0.879034076495343D+02
 0.226813825590257D+03 -.195860961120103D+03 -.114199073024282D+03 0.644725588074156D+01
 0.730934371466508D+02 -.123151658316357D+02 0.446104542195742D+01 0.719102657358040D+02
0.195653515211D-03 0.000000000000D+00 0.000000000000D+00 0.109837305860D-03 0.412426943390D-05  6 -1 2 25 4 -3 21 2 0.44046809D-01 0.14278015D+00 0.22459212D+06 0.22459212D+06 0.22459212D+06 0.10939781D+01  1  2  1  1  6  1       -1 0.459242688268D-02 0.100000000000D+01
  </mgrwgt>
  </event>
  <event>
  7     66 0.18082911E-05 0.34185934E+02 0.75467711E-02 0.91296591E-01
       -1 -1    0    0    0  501 0.00000000E+00 0.00000000E+00 0.10334153E+04 0.10334154E+04 0.32000000E+00 0.0000E+00 0.9000E+01
        2 -1    0    0  503    0 0.00000000E+00 0.00000000E+00 -.60095994E+03 0.60096002E+03 0.32000000E+00 0.0000E+00 0.9000E+01
       24  2    1    2    0    0 -.66090283E+03 -.46663643E+02 0.62776483E+03 0.91639101E+03 0.81937465E+02 0.0000E+00 0.0000E+00
       25  1    1    2    0    0 0.66374518E+03 0.58189888E+02 -.18625751E+03 0.70303669E+03 0.12500000E+03 0.0000E+00 0.9000E+01
        4  1    3    3  502    0 -.53373451E+03 -.64769569E+02 0.48165981E+03 0.72184915E+03 0.15500000E+01 0.0000E+00 0.9000E+01
       -3  1    3    3    0  502 -.12716832E+03 0.18105925E+02 0.14610502E+03 0.19454185E+03 0.50000000E+00 0.0000E+00 0.9000E+01
       21  1    1    2  503  501 -.28423469E+01 -.11526244E+02 -.90519396E+01 0.14947687E+02 0.75000000E+00 0.0000E+00 0.9000E+01
#aMCatNLO 2  0  0  2  1 0.18870575D+03 0.00000000D+00  -5  6  0 0.00000000D+00 0.00000000D+00 0.00000000D+00 0.00000000D+00 0.00000000D+00
  <mgrwgt>
 0.1958533406D-01    1    2    0
 0.779018039893112D+03 0.000000000000000D+00 0.000000000000000D+00 0.779018039893112D+03
 0.779018039893112D+03 0.000000000000000D+00 0.000000000000000D+00 -.779018039893112D+03
 0.781877810611166D+03 0.662317334475982D+03 0.523997060640038D+02 -.392807751938715D+03
 0.615220517199586D+03 -.534829869485054D+03 -.693243173047334D+02 0.296053094089825D+03
 0.160937751975472D+03 -.127487464990927D+03 0.169246112407296D+02 0.967546578488900D+02
 0.000000000000000D+00 -.000000000000000D+00 -.000000000000000D+00 -.000000000000000D+00
 0.781261511271872D+03 0.000000000000000D+00 0.000000000000000D+00 0.781261511271872D+03
 0.794905384657750D+03 0.000000000000000D+00 0.000000000000000D+00 -.794905384657750D+03
 0.783496431394419D+03 0.663745180755576D+03 0.581898878534023D+02 -.392807751938715D+03
 0.613749821894320D+03 -.533708871911874D+03 -.647784639961882D+02 0.296053094089825D+03
 0.160835053691833D+03 -.127193961947938D+03 0.181148205783455D+02 0.967546578488900D+02
 0.180855889490500D+02 -.284234689576391D+01 -.115262444355596D+02 -.136438733858781D+02
0.852511796863D-02 0.000000000000D+00 0.000000000000D+00 0.486848678429D-04 0.211432720480D-05  6 -1 2 25 4 -3 21 2 0.15898540D+00 0.92454467D-01 0.45960920D+06 0.45960920D+06 0.45960920D+06 0.10711054D+01  1  2  1  2  6  2        2 0.195853340642D-01 0.100000000000D+01
  </mgrwgt>
  </event>
  <event>
  7     66 0.18082911E-05 0.59445675E+02 0.75467711E-02 0.93398206E-01
       -1 -1    0    0    0  503 0.00000000E+00 0.00000000E+00 0.70294419E+03 0.70294426E+03 0.32000000E+00 0.0000E+00 0.9000E+01
        2 -1    0    0  501    0 0.00000000E+00 0.00000000E+00 -.70396143E+03 0.70396151E+03 0.32000000E+00 0.0000E+00 0.9000E+01
       24  2    1    2    0    0 -.92317566E+02 0.47329550E+03 -.34626970E+03 0.59902790E+03 0.80003511E+02 0.0000E+00 0.0000E+00
       25  1    1    2    0    0 0.14906851E+03 -.52191081E+03 0.11894144E+03 0.56954752E+03 0.12500000E+03 0.0000E+00 0.9000E+01
        4  1    3    3  502    0 -.66437411E+02 0.41686448E+03 -.27175671E+03 0.50203988E+03 0.15500000E+01 0.0000E+00 0.9000E+01
       -3  1    3    3    0  502 -.25880155E+02 0.56431020E+02 -.74512983E+02 0.96988025E+02 0.50000000E+00 0.0000E+00 0.9000E+01
       21  1    1    2  501  503 -.56750946E+02 0.48615310E+02 0.22631101E+03 0.23833035E+03 0.75000000E+00 0.0000E+00 0.9000E+01
#aMCatNLO 2  0  0  1  4 0.17807291D+03 0.00000000D+00  -5  6  0 0.00000000D+00 0.00000000D+00 0.00000000D+00 0.00000000D+00 0.00000000D+00
  <mgrwgt>
 0.2061328703D-03    1    2    0
 0.571906081079075D+03 0.000000000000000D+00 0.000000000000000D+00 0.571906081079075D+03
 0.571906081079075D+03 0.000000000000000D+00 0.000000000000000D+00 -.571906081079075D+03
 0.575938403226070D+03 0.119822316187371D+03 -.496857253301735D+03 0.234212567330501D+03
 0.479898321487106D+03 -.896704473770524D+02 0.436768104070528D+03 -.177468963765436D+03
 0.879754374449725D+02 -.301518688103191D+02 0.600891492312074D+02 -.567436035650651D+02
 0.000000000000000D+00 -.000000000000000D+00 0.000000000000000D+00 0.000000000000000D+00
 0.856044636274535D+03 0.000000000000000D+00 0.000000000000000D+00 0.856044636274535D+03
 0.578059660305181D+03 0.000000000000000D+00 0.000000000000000D+00 -.578059660305181D+03
 0.604229127520018D+03 0.149068512323092D+03 -.521910807017672D+03 0.234212567330501D+03
 0.457908426696445D+03 -.664302891959172D+02 0.416859581654281D+03 -.177468963765436D+03
 0.841130207053276D+02 -.258872769887023D+02 0.564359158403212D+02 -.567436035650651D+02
 0.287853721657926D+03 -.567509461384728D+02 0.486153095230700D+02 0.277984975969355D+03
0.377482836253D-04 0.000000000000D+00 0.000000000000D+00 0.630901370056D-04 0.791716243673D-07  6 -1 2 25 4 -3 21 2 0.10814518D+00 0.10830168D+00 0.31132268D+06 0.31132268D+06 0.31132268D+06 0.10833635D+01  1  2  1  1  6  1       -1 0.206132870289D-03 0.100000000000D+01
  </mgrwgt>
  </event>
  <event>
  7     66 0.18082911E-05 0.63357653E+02 0.75467711E-02 0.94272837E-01
       -1 -1    0    0    0  503 0.00000000E+00 0.00000000E+00 0.47999853E+03 0.47999863E+03 0.32000000E+00 0.0000E+00 0.9000E+01
        2 -1    0    0  501    0 0.00000000E+00 0.00000000E+00 -.70602887E+03 0.70602894E+03 0.32000000E+00 0.0000E+00 0.9000E+01
       24  2    1    2    0    0 0.50060566E+03 0.22677293E+02 -.31493453E+03 0.59762332E+03 0.82762248E+02 0.0000E+00 0.0000E+00
       25  1    1    2    0    0 -.49686955E+03 -.11513881E+02 0.14099316E+02 0.51267506E+03 0.12500000E+03 0.0000E+00 0.9000E+01
        4  1    3    3  502    0 0.20587990E+03 -.30041646E+02 -.14136906E+03 0.25154850E+03 0.15500000E+01 0.0000E+00 0.9000E+01
       -3  1    3    3    0  502 0.29472576E+03 0.52718939E+02 -.17356547E+03 0.34607482E+03 0.50000000E+00 0.0000E+00 0.9000E+01
       21  1    1    2  501  503 -.37361045E+01 -.11163412E+02 0.74804874E+02 0.75729201E+02 0.75000000E+00 0.0000E+00 0.9000E+01
#aMCatNLO 2  0  0  1  4 0.17807291D+03 0.00000000D+00  -5  6  0 0.00000000D+00 0.00000000D+00 0.00000000D+00 0.00000000D+00 0.00000000D+00
  <mgrwgt>
 0.3278871923D-02    1    2    0
 0.534350558593899D+03 0.000000000000000D+00 0.000000000000000D+00 0.534350558593899D+03
 0.534350558593899D+03 0.000000000000000D+00 0.000000000000000D+00 -.534350558593899D+03
 0.538456201856122D+03 -.498748598440868D+03 -.171284324106992D+02 0.158954501898319D+03
 0.221038403441475D+03 0.205010600065480D+03 -.323721353072220D+02 -.760307471513936D+02
 0.309206511890200D+03 0.293737998375388D+03 0.495005677179213D+02 -.829237547469256D+02
 0.000000000000000D+00 -.000000000000000D+00 -.000000000000000D+00 0.000000000000000D+00
 0.633759326650305D+03 0.000000000000000D+00 0.000000000000000D+00 0.633759326650305D+03
 0.534731600332704D+03 0.000000000000000D+00 0.000000000000000D+00 -.534731600332704D+03
 0.536566357795480D+03 -.496869553504278D+03 -.115138805197841D+02 0.158954501898319D+03
 0.221430363660158D+03 0.205783996576053D+03 -.300612406839441D+02 -.760307471513936D+02
 0.310769229594293D+03 0.294821661473791D+03 0.527385332288975D+02 -.829237547469256D+02
 0.997249759330773D+02 -.373610454556499D+01 -.111634120251694D+02 0.990277263176014D+02
0.262052841194D-03 0.000000000000D+00 0.000000000000D+00 0.431455489072D-04 0.199395123939D-05  6 -1 2 25 4 -3 21 2 0.73845747D-01 0.10861955D+00 0.26611298D+06 0.26611298D+06 0.26611298D+06 0.10884243D+01  1  2  1  1  6  1       -1 0.327887192266D-02 0.100000000000D+01
  </mgrwgt>
  </event>
  <event>
  7     66 0.18082911E-05 0.62850890E+02 0.75467711E-02 0.93377103E-01
       -1 -1    0    0    0  503 0.00000000E+00 0.00000000E+00 0.40886023E+03 0.40886035E+03 0.32000000E+00 0.0000E+00 0.9000E+01
        2 -1    0    0  501    0 0.00000000E+00 0.00000000E+00 -.11121049E+04 0.11121049E+04 0.32000000E+00 0.0000E+00 0.9000E+01
       24  2    1    2    0    0 0.43141203E+03 -.33892319E+03 -.75868513E+03 0.93991812E+03 0.82811085E+02 0.0000E+00 0.0000E+00
       25  1    1    2    0    0 -.40037635E+03 0.33531014E+03 0.77828779E+02 0.54260154E+03 0.12500000E+03 0.0000E+00 0.9000E+01
        4  1    3    3  502    0 0.21570297E+03 -.19253947E+03 -.33570521E+03 0.44305712E+03 0.15500000E+01 0.0000E+00 0.9000E+01
       -3  1    3    3    0  502 0.21570907E+03 -.14638372E+03 -.42297992E+03 0.49686101E+03 0.50000000E+00 0.0000E+00 0.9000E+01
       21  1    1    2  501  503 -.31035685E+02 0.36130488E+01 -.22388319E+02 0.38445639E+02 0.75000000E+00 0.0000E+00 0.9000E+01
#aMCatNLO 2  0  0  1  4 0.17807291D+03 0.00000000D+00  -5  6  0 0.00000000D+00 0.00000000D+00 0.00000000D+00 0.00000000D+00 0.00000000D+00
  <mgrwgt>
 0.2525596031D-02    1    2    0
 0.658278608440889D+03 0.000000000000000D+00 0.000000000000000D+00 0.658278608440889D+03
 0.658278608440889D+03 0.000000000000000D+00 0.000000000000000D+00 -.658278608440889D+03
 0.661608248957586D+03 -.415846252547293D+03 0.337111084004099D+03 0.368141937807520D+03
 0.319579251291064D+03 0.208037681851932D+03 -.191610714056633D+03 -.148783584592316D+03
 0.335369716633129D+03 0.207808570695362D+03 -.145500369947466D+03 -.219358353215205D+03
 0.000000000000000D+00 -.000000000000000D+00 0.000000000000000D+00 -.000000000000000D+00
 0.671648580290576D+03 0.000000000000000D+00 0.000000000000000D+00 0.671648580290576D+03
 0.676975461778560D+03 0.000000000000000D+00 0.000000000000000D+00 -.676975461778560D+03
 0.651066508078417D+03 -.400376349521232D+03 0.335310140486087D+03 0.368141937807520D+03
 0.325099226369684D+03 0.215635232942896D+03 -.192495190214434D+03 -.148783584592316D+03
 0.340762195686600D+03 0.215776801256928D+03 -.146427999109440D+03 -.219358353215205D+03
 0.316961119344352D+02 -.310356846785921D+02 0.361304883778612D+01 -.532688148798343D+01
0.277296329692D-03 0.000000000000D+00 0.000000000000D+00 0.220939727138D-04 0.141739618656D-06  6 -1 2 25 4 -3 21 2 0.62901173D-01 0.17109195D+00 0.31251508D+06 0.31251508D+06 0.31251508D+06 0.10832411D+01  1  2  1  1  6  1       -1 0.252559603072D-02 0.100000000000D+01
  </mgrwgt>
  </event>
  <event>
  6     66 0.18082911E-05 0.35761132E+02 0.75467711E-02 0.95001449E-01
       -1 -1    0    0    0  501 0.00000000E+00 0.00000000E+00 0.21038858E+03 0.21038882E+03 0.32000000E+00 0.0000E+00 0.9000E+01
        2 -1    0    0  501    0 -.00000000E+00 -.00000000E+00 -.17650506E+04 0.17650506E+04 0.32000000E+00 0.0000E+00 0.9000E+01
       25  1    1    2    0    0 0.15199165E+03 -.43813874E+03 -.18106220E+03 0.51329868E+03 0.12500000E+03 0.0000E+00 0.9000E+01
        4  1    1    2  503    0 -.10116299E+02 0.14014555E+03 -.32267961E+03 0.35194836E+03 0.15500000E+01 0.0000E+00 0.9000E+01
       -3  1    1    2    0  502 -.11803093E+03 0.30048580E+03 -.87522894E+03 0.93287135E+03 0.50000000E+00 0.0000E+00 0.9000E+01
       21  1    1    2  502  503 -.23844419E+02 -.24926113E+01 -.17569126E+03 0.17732104E+03 0.75000000E+00 0.0000E+00 0.9000E+01
#aMCatNLO 2  0  0  4  1 0.15858509D+03 0.00000000D+00  -5  6  0 0.00000000D+00 0.00000000D+00 0.00000000D+00 0.00000000D+00 0.00000000D+00
  <mgrwgt>
 0.1095760657D-01    1    2    0
 0.609382265173939D+03 0.000000000000000D+00 0.000000000000000D+00 0.609382265173939D+03
 0.609382265173939D+03 -.000000000000000D+00 -.000000000000000D+00 -.609382265173939D+03
 0.614743835762381D+03 0.154460538215553D+03 -.448145894963371D+03 0.370934202480017D+03
 0.216585793580501D+03 -.377803610532377D+02 0.153504171479123D+03 -.148049044705092D+03
 0.387434901004996D+03 -.116680177162316D+03 0.294641723484248D+03 -.222885157774926D+03
 0.000000000000000D+00 0.000000000000000D+00 0.000000000000000D+00 -.000000000000000D+00
 0.609382265173939D+03 0.000000000000000D+00 0.000000000000000D+00 0.609382265173939D+03
 0.609382265173939D+03 -.000000000000000D+00 -.000000000000000D+00 -.609382265173939D+03
 0.600993454097236D+03 0.151993720656793D+03 -.438123047775276D+03 0.361267540413935D+03
 0.157729278287208D+03 -.978031866198039D+01 0.139347093459835D+03 -.732479224290331D+02
 0.396417112015475D+03 -.118270668730944D+03 0.301103998689685D+03 -.229117781042212D+03
 0.636246859479593D+02 -.239427332638688D+02 -.232804437424343D+01 -.589018369426899D+02
0.822421255115D-03 0.000000000000D+00 0.000000000000D+00 0.334027612626D-06 0.277217173738D-07  6 -1 2 25 4 -3 21 2 0.32367494D-01 0.27154626D+00 0.23403096D+06 0.23403096D+06 0.23403096D+06 0.10926223D+01  1  2  1  3  6  4        4 0.109576065716D-01 0.100000000000D+01
  </mgrwgt>
  </event>
  <event>
  7     66 0.18082911E-05 0.21836948E+03 0.75467711E-02 0.92973443E-01
       -1 -1    0    0    0  503 0.00000000E+00 0.00000000E+00 0.44540289E+03 0.44540300E+03 0.32000000E+00 0.0000E+00 0.9000E+01
        2 -1    0    0  501    0 0.00000000E+00 0.00000000E+00 -.12770473E+04 0.12770473E+04 0.32000000E+00 0.0000E+00 0.9000E+01
       24  2    1    2    0    0 -.23441490E+03 0.26068124E+03 -.62568317E+03 0.72167790E+03 0.80215462E+02 0.0000E+00 0.0000E+00
       25  1    1    2    0    0 0.32298839E+03 -.46876840E+03 -.39661422E+03 0.70497742E+03 0.12500000E+03 0.0000E+00 0.9000E+01
        4  1    3    3  502    0 -.12605114E+02 0.93435029E+01 -.77788602E+02 0.79370391E+02 0.15500000E+01 0.0000E+00 0.9000E+01
       -3  1    3    3    0  502 -.22180978E+03 0.25133773E+03 -.54789456E+03 0.64230751E+03 0.50000000E+00 0.0000E+00 0.9000E+01
       21  1    1    2  501  503 -.88573496E+02 0.20808717E+03 0.19065302E+03 0.29579498E+03 0.75000000E+00 0.0000E+00 0.9000E+01
#aMCatNLO 2  0  0  1  2 0.31604107D+02 0.00000000D+00  -5  6  0 0.00000000D+00 0.00000000D+00 0.00000000D+00 0.00000000D+00 0.00000000D+00
  <mgrwgt>
 0.1825551987D-03    1    2    0
 0.484537903057060D+03 0.000000000000000D+00 0.000000000000000D+00 0.484537903057060D+03
 0.484537903057060D+03 0.000000000000000D+00 0.000000000000000D+00 -.484537903057060D+03
 0.489279781661161D+03 0.273721736659247D+03 -.353025440067411D+03 0.155625043896701D+03
 0.377816998291814D+02 -.157481472191774D+02 0.168274630364805D+02 -.299380892660397D+02
 0.442014324623777D+03 -.257973589440070D+03 0.336197977030931D+03 -.125686954630661D+03
 0.000000000000000D+00 -.000000000000000D+00 0.000000000000000D+00 0.000000000000000D+00
 0.109612512811212D+04 0.000000000000000D+00 0.000000000000000D+00 0.109612512811212D+04
 0.518919028153057D+03 0.000000000000000D+00 0.000000000000000D+00 -.518919028153057D+03
 0.603249095777105D+03 0.322988392678169D+03 -.468768402799525D+03 0.155625043896701D+03
 0.337441927915499D+02 -.125227482196979D+02 0.924998028527494D+01 -.299380892660397D+02
 0.358121504541780D+03 -.221892148044813D+03 0.251431255191150D+03 -.125686954630661D+03
 0.619929363154746D+03 -.885734964136581D+02 0.208087167323100D+03 0.577206099959068D+03
0.297229163086D-04 0.000000000000D+00 0.000000000000D+00 0.103087062626D-03 0.190987583732D-07  6 -1 2 25 4 -3 21 2 0.68523504D-01 0.19646874D+00 0.33633811D+06 0.33633811D+06 0.33633811D+06 0.10808972D+01  1  2  1  1  6  1       -1 0.182555198689D-03 0.100000000000D+01
  </mgrwgt>
  </event>
  <event>
  7     66 0.18082911E-05 0.65579653E+02 0.75467711E-02 0.88624705E-01
       -1 -1    0    0    0  501 0.00000000E+00 0.00000000E+00 0.83413222E+03 0.83413229E+03 0.32000000E+00 0.0000E+00 0.9000E+01
        2 -1    0    0  503    0 0.00000000E+00 0.00000000E+00 -.10506668E+04 0.10506668E+04 0.32000000E+00 0.0000E+00 0.9000E+01
       24  2    1    2    0    0 0.51298989E+03 0.70582401E+03 0.17689836E+03 0.89391793E+03 0.80312312E+02 0.0000E+00 0.0000E+00
       25  1    1    2    0    0 -.51761915E+03 -.69551761E+03 -.34550388E+03 0.94163276E+03 0.12500000E+03 0.0000E+00 0.9000E+01
        4  1    3    3  502    0 0.27199488E+03 0.40591643E+03 0.13485044E+03 0.50688895E+03 0.15500000E+01 0.0000E+00 0.9000E+01
       -3  1    3    3    0  502 0.24099501E+03 0.29990758E+03 0.42047923E+02 0.38702897E+03 0.50000000E+00 0.0000E+00 0.9000E+01
       21  1    1    2  503  501 0.46292599E+01 -.10306400E+02 -.47929035E+02 0.49248419E+02 0.75000000E+00 0.0000E+00 0.9000E+01
#aMCatNLO 2  0  0  2  1 0.18870575D+03 0.00000000D+00  -5  6  0 0.00000000D+00 0.00000000D+00 0.00000000D+00 0.00000000D+00 0.00000000D+00
  <mgrwgt>
 0.3313056031D-02    1    2    0
 0.913877845650346D+03 0.000000000000000D+00 0.000000000000000D+00 0.913877845650346D+03
 0.913877845650346D+03 0.000000000000000D+00 0.000000000000000D+00 -.913877845650346D+03
 0.916387735966611D+03 -.515301516051756D+03 -.700677501952765D+03 -.260109339397886D+03
 0.519764604950564D+03 0.273234067375141D+03 0.402885099388181D+03 0.182159231651948D+03
 0.391603350383518D+03 0.242067448676616D+03 0.297792402564583D+03 0.779501077459384D+02
 0.000000000000000D+00 0.000000000000000D+00 -.000000000000000D+00 -.000000000000000D+00
 0.914615532038624D+03 0.000000000000000D+00 0.000000000000000D+00 0.914615532038624D+03
 0.958204959088652D+03 0.000000000000000D+00 0.000000000000000D+00 -.958204959088652D+03
 0.913759377356075D+03 -.517619152291726D+03 -.695517609011413D+03 -.260109339397886D+03
 0.521354299662856D+03 0.271915629700987D+03 0.405820416471664D+03 0.182159231651948D+03
 0.392676934348441D+03 0.241074262720713D+03 0.300003592187413D+03 0.779501077459384D+02
 0.450298797599035D+02 0.462925987002645D+01 -.103063996476641D+02 -.435894270500285D+02
0.174427353604D-02 0.000000000000D+00 0.000000000000D+00 0.218330617721D-03 0.101692194828D-04  6 -1 2 25 4 -3 21 2 0.12832761D+00 0.16164050D+00 0.77493935D+06 0.77493935D+06 0.77493935D+06 0.10553155D+01  1  2  1  2  6  2        2 0.331305603055D-02 0.100000000000D+01
  </mgrwgt>
  </event>
  <event>
  6     66 0.18082911E-05 0.21252140E+02 0.75467711E-02 0.95296847E-01
       -1 -1    0    0    0  501 0.00000000E+00 0.00000000E+00 0.25299322E+03 0.25299342E+03 0.32000000E+00 0.0000E+00 0.9000E+01
        2 -1    0    0  501    0 -.00000000E+00 -.00000000E+00 -.12260466E+04 0.12260467E+04 0.32000000E+00 0.0000E+00 0.9000E+01
       25  1    1    2    0    0 -.19256699E+03 -.41728373E+03 -.87291884E+03 0.99439432E+03 0.12500000E+03 0.0000E+00 0.9000E+01
        4  1    1    2  502    0 0.15456712E+03 0.37867968E+03 -.10386974E+03 0.42199599E+03 0.15500000E+01 0.0000E+00 0.9000E+01
       -3  1    1    2    0  503 0.27278969E+02 0.38154705E+02 0.12757991E+02 0.48610081E+02 0.50000000E+00 0.0000E+00 0.9000E+01
       21  1    1    2  503  502 0.10720904E+02 0.44935305E+00 -.90228262E+01 0.14039714E+02 0.75000000E+00 0.0000E+00 0.9000E+01
#aMCatNLO 2  0  0  5  4 0.99992092D+00 0.00000000D+00  -5  6  0 0.00000000D+00 0.00000000D+00 0.00000000D+00 0.00000000D+00 0.00000000D+00
  <mgrwgt>
 0.1053490359D+00    1    2    0
 0.556939557203834D+03 0.000000000000000D+00 0.000000000000000D+00 0.556939557203834D+03
 0.556939557203834D+03 -.000000000000000D+00 -.000000000000000D+00 -.556939557203834D+03
 0.560492609282498D+03 -.193952242148846D+03 -.418691015659405D+03 -.292587296771124D+03
 0.467441142516177D+03 0.153424974248271D+03 0.377564316188430D+03 0.228926158695132D+03
 0.859453626089930D+02 0.405272679005750D+02 0.411266994709748D+02 0.636611380759914D+02
 0.000000000000000D+00 0.000000000000000D+00 0.000000000000000D+00 0.000000000000000D+00
 0.556939557203834D+03 0.000000000000000D+00 0.000000000000000D+00 0.556939557203834D+03
 0.556939557203834D+03 -.000000000000000D+00 -.000000000000000D+00 -.556939557203834D+03
 0.557798496728743D+03 -.192551314842101D+03 -.417269367487450D+03 -.290386688851343D+03
 0.469693106848233D+03 0.154598959226747D+03 0.378755665368732D+03 0.230770280534217D+03
 0.755278189409661D+02 0.271054463265055D+02 0.380693266489685D+02 0.593335704463707D+02
 0.108596918897254D+02 0.108469092888490D+02 0.444375469750022D+00 0.282837870754770D+00
0.545145329732D-02 0.000000000000D+00 0.000000000000D+00 0.232423403902D-05 0.440159950489D-05  6 -1 2 25 4 -3 21 2 0.38922053D-01 0.18862258D+00 0.22228033D+06 0.22228033D+06 0.22228033D+06 0.10943197D+01  1  2  1  4  6  5       -3 0.105349035869D+00 0.100000000000D+01
  </mgrwgt>
  </event>
  <event>
  6     66 0.18082911E-05 0.10993241E+03 0.75467711E-02 0.95022173E-01
       -1 -1    0    0    0  501 0.00000000E+00 0.00000000E+00 0.46814160E+03 0.46814171E+03 0.32000000E+00 0.0000E+00 0.9000E+01
        2 -1    0    0  501    0 -.00000000E+00 -.00000000E+00 -.55010836E+03 0.55010846E+03 0.32000000E+00 0.0000E+00 0.9000E+01
       25  1    1    2    0    0 -.45747035E+03 0.10187056E+03 -.11381806E+03 0.49823316E+03 0.12500000E+03 0.0000E+00 0.9000E+01
        4  1    1    2  503    0 0.17952882E+03 -.93554160E+02 -.58750881E+02 0.21080096E+03 0.15500000E+01 0.0000E+00 0.9000E+01
       -3  1    1    2    0  502 0.11508075E+03 0.18797602E+01 -.13147280E+02 0.11584565E+03 0.50000000E+00 0.0000E+00 0.9000E+01
       21  1    1    2  502  503 0.16286078E+03 -.10196163E+02 0.10374946E+03 0.19337039E+03 0.75000000E+00 0.0000E+00 0.9000E+01
#aMCatNLO 2  0  0  4  2 0.13680555D+03 0.00000000D+00  -5  6  0 0.00000000D+00 0.00000000D+00 0.00000000D+00 0.00000000D+00 0.00000000D+00
  <mgrwgt>
 0.1232507271D-01    1    2    0
 0.507472867400562D+03 0.000000000000000D+00 0.000000000000000D+00 0.507472867400562D+03
 0.507472867400562D+03 -.000000000000000D+00 -.000000000000000D+00 -.507472867400562D+03
 0.511576148142100D+03 -.477751175344082D+03 0.108016024432596D+03 -.785589477464726D+02
 0.392635108810542D+03 0.367172593237142D+03 -.111286682641343D+03 0.834379392894122D+02
 0.110734477848482D+03 0.110578582106940D+03 0.327065820874655D+01 -.487899154293959D+01
 0.000000000000000D+00 0.000000000000000D+00 0.000000000000000D+00 0.000000000000000D+00
 0.507472867400562D+03 0.000000000000000D+00 0.000000000000000D+00 0.507472867400562D+03
 0.507472867400562D+03 -.000000000000000D+00 -.000000000000000D+00 -.507472867400562D+03
 0.490668317214756D+03 -.457475622144597D+03 0.101870688163363D+03 -.739514405194143D+02
 0.205965884167225D+03 0.178726045424082D+03 -.933189888393388D+02 -.420774577399717D+02
 0.115229300615508D+03 0.115149862637556D+03 0.188514454284332D+01 -.384019334717651D+01
 0.203082232803635D+03 0.163599714082959D+03 -.104368438668674D+02 0.119869091606563D+03
0.689528445489D-03 0.000000000000D+00 0.000000000000D+00 0.566394188307D-05 0.462253490482D-07  6 -1 2 25 4 -3 21 2 0.72021800D-01 0.84632071D-01 0.23318423D+06 0.23318423D+06 0.23318423D+06 0.10927414D+01  1  2  1  3  6  4        4 0.123250727123D-01 0.100000000000D+01
  </mgrwgt>
  </event>
  <event>
  7     66 0.18082911E-05 0.50175007E+02 0.75467711E-02 0.93416930E-01
       -1 -1    0    0    0  501 0.00000000E+00 0.00000000E+00 0.62399210E+03 0.62399219E+03 0.32000000E+00 0.0000E+00 0.9000E+01
        2 -1    0    0  503    0 0.00000000E+00 0.00000000E+00 -.71381872E+03 0.71381879E+03 0.32000000E+00 0.0000E+00 0.9000E+01
       24  2    1    2    0    0 -.34039914E+03 -.41716451E+03 -.13476440E+03 0.56083522E+03 0.80479175E+02 0.0000E+00 0.0000E+00
       25  1    1    2    0    0 0.35101804E+03 0.38508403E+03 0.23414954E+03 0.58476866E+03 0.12500000E+03 0.0000E+00 0.9000E+01
        4  1    3    3  502    0 -.10765352E+03 -.19442700E+03 -.54078164E+02 0.22873126E+03 0.15500000E+01 0.0000E+00 0.9000E+01
       -3  1    3    3    0  502 -.23274562E+03 -.22273751E+03 -.80686236E+02 0.33210396E+03 0.50000000E+00 0.0000E+00 0.9000E+01
       21  1    1    2  503  501 -.10618901E+02 0.32080480E+02 -.18921175E+03 0.19220710E+03 0.75000000E+00 0.0000E+00 0.9000E+01
#aMCatNLO 2  0  0  2  1 0.18870575D+03 0.00000000D+00  -5  6  0 0.00000000D+00 0.00000000D+00 0.00000000D+00 0.00000000D+00 0.00000000D+00
  <mgrwgt>
 0.9999764246D-03    1    2    0
 0.570392172178624D+03 0.000000000000000D+00 0.000000000000000D+00 0.570392172178624D+03
 0.570392172178624D+03 0.000000000000000D+00 0.000000000000000D+00 -.570392172178624D+03
 0.574401739129751D+03 0.345708784114269D+03 0.401123688872554D+03 0.184112956433792D+03
 0.229827434856512D+03 -.109730464535612D+03 -.187828885367412D+03 -.741632306952586D+02
 0.336555170370984D+03 -.235978319578656D+03 -.213294803505141D+03 -.109949725738534D+03
 0.000000000000000D+00 -.000000000000000D+00 0.000000000000000D+00 -.000000000000000D+00
 0.572014615834113D+03 0.000000000000000D+00 0.000000000000000D+00 0.572014615834113D+03
 0.778679931753997D+03 0.000000000000000D+00 0.000000000000000D+00 -.778679931753997D+03
 0.566591525416229D+03 0.351018042716909D+03 0.385084029315535D+03 0.184112956433792D+03
 0.234188843282911D+03 -.107571308567714D+03 -.194351853873482D+03 -.741632306952586D+02
 0.340504362891687D+03 -.232827832837699D+03 -.222812654969136D+03 -.109949725738534D+03
 0.209409815997284D+03 -.106189013114970D+02 0.320804795270840D+02 -.206665315919884D+03
0.142177251340D-03 0.000000000000D+00 0.000000000000D+00 0.246836920256D-03 0.142046328148D-05  6 -1 2 25 4 -3 21 2 0.95998685D-01 0.10981815D+00 0.31026894D+06 0.31026894D+06 0.31026894D+06 0.10834721D+01  1  2  1  2  6  2        2 0.999976424641D-03 0.100000000000D+01
  </mgrwgt>
  </event>
  <event>
  6     66 -.18082911E-05 0.83471826E+02 0.75467711E-02 0.94068277E-01
       -1 -1    0    0    0  503 0.00000000E+00 0.00000000E+00 0.26060909E+03 0.26060928E+03 0.32000000E+00 0.0000E+00 0.9000E+01
        2 -1    0    0  501    0 0.00000000E+00 0.00000000E+00 -.15204897E+04 0.15204897E+04 0.32000000E+00 0.0000E+00 0.9000E+01
       25  1    1    2    0    0 0.34286613E+03 0.36266645E+03 -.15900567E+03 0.53850899E+03 0.12500000E+03 0.0000E+00 0.9000E+01
        4  1    1    2  502    0 -.45554926E+02 -.13215469E+03 -.44592242E+03 0.46732143E+03 0.15500000E+01 0.0000E+00 0.9000E+01
       -3  1    1    2    0  502 -.26443469E+03 -.24498662E+03 -.64344598E+03 0.73754127E+03 0.50000000E+00 0.0000E+00 0.9000E+01
       21  1    1    2  501  503 -.32876517E+02 0.14474861E+02 -.11506537E+02 0.37727309E+02 0.75000000E+00 0.0000E+00 0.9000E+01
#aMCatNLO 2  0  0  1  2 0.35921956D+02 0.00000000D+00  -5  6  0 0.00000000D+00 0.00000000D+00 0.00000000D+00 0.00000000D+00 0.00000000D+00
  <mgrwgt>
 -.2125594197D-03    3    2    0
 0.608197474950259D+03 0.000000000000000D+00 0.000000000000000D+00 0.608197474950259D+03
 0.608197474950259D+03 0.000000000000000D+00 0.000000000000000D+00 -.608197474950259D+03
 0.603669668104843D+03 0.326490805586429D+03 0.369876640624883D+03 0.324633782557187D+03
 0.211756669604132D+03 -.512585539937683D+02 -.129613110767353D+03 -.159417343101406D+03
 0.400968612191543D+03 -.275232251592661D+03 -.240263529857531D+03 -.165216439455780D+03
 0.000000000000000D+00 -.000000000000000D+00 0.000000000000000D+00 0.000000000000000D+00
 0.640690388911119D+03 0.000000000000000D+00 0.000000000000000D+00 0.640690388911119D+03
 0.618472525523349D+03 0.000000000000000D+00 0.000000000000000D+00 -.618472525523349D+03
 0.608355722379586D+03 0.342866444480897D+03 0.362666780148982D+03 0.324633782557187D+03
 0.212005949979577D+03 -.455331098819885D+02 -.132133907267235D+03 -.159417343101406D+03
 0.396563576409575D+03 -.264456817983942D+03 -.245007733939391D+03 -.165216439455780D+03
 0.422376656657289D+02 -.328765166149667D+02 0.144748610576441D+02 0.222178633877701D+02
-.271015015878D-04 0.000000000000D+00 0.000000000000D+00 0.184155758441D-07 0.000000000000D+00  6 -1 2 25 4 -3 21 2 0.40403301D-01 0.23003400D+00 0.27598672D+06 0.27598672D+06 0.27598672D+06 0.10872428D+01  1  2 13  1  6  1       -1 -.339802798337D-03 0.100000000000D+01
-.286561801975D-05 0.000000000000D+00 0.000000000000D+00 0.184155758441D-07 0.000000000000D+00  6 -1 2 25 4 -3 21 2 0.38060148D-01 0.23003400D+00 0.25688623D+06 0.25688623D+06 0.25688623D+06 0.10895724D+01  1  2  8  1  6  1       -1 -.401623548801D-04 0.100000000000D+01
0.136002326956D-04 0.000000000000D+00 0.000000000000D+00 0.184155758441D-07 0.905640034317D-10  6 -1 2 25 4 -3 21 2 0.40093509D-01 0.23392026D+00 0.27598672D+06 0.27598672D+06 0.27598672D+06 0.10872428D+01  1  2  1  1  6  1       -1 0.167405733523D-03 0.100000000000D+01
  </mgrwgt>
  </event>
</LesHouchesEvents>
