<LesHouchesEvents version="3.0">
  <!--
  <scalesfunctionalform>
    muR  H_T/2 := sum_i mT(i)/2, i=final state
    muF1 H_T/2 := sum_i mT(i)/2, i=final state
    muF2 H_T/2 := sum_i mT(i)/2, i=final state
    QES  H_T/2 := sum_i mT(i)/2, i=final state
  </scalesfunctionalform>
HERWIG6   
  -->
  <header>
       49
  </header>
  <init>
   2212   2212 0.65000000D+04 0.65000000D+04 -1 -1   244800   244800 -4   1
 0.44661842D-04 0.21400354D-05 0.19826370D-05     66
  </init>
  <event>
  5     66 -.19826370E-05 0.43888723E+02 0.75467711E-02 0.89943347E-01
        1 -1    0    0  502    0 0.00000000E+00 0.00000000E+00 0.20486655E+04 0.20486655E+04 0.32000000E+00 0.0000E+00 0.9000E+01
        4 -1    0    0  501    0 0.00000000E+00 0.00000000E+00 -.15119680E+04 0.15119688E+04 0.15500000E+01 0.0000E+00 0.9000E+01
       25  1    1    2    0    0 0.18382646E+03 -.73381619E+03 0.57541639E+03 0.95864873E+03 0.12500000E+03 0.0000E+00 0.9000E+01
        3  1    1    2  501    0 -.41197064E+02 0.15123145E+02 -.12152013E+04 0.12159935E+04 0.50000000E+00 0.0000E+00 0.9000E+01
        2  1    1    2  502    0 -.14262940E+03 0.71869304E+03 0.11764825E+04 0.13859920E+04 0.32000000E+00 0.0000E+00 0.9000E+01
#aMCatNLO 1  0  0  5  1 0.16150184D+02 0.00000000D+00  -5  6  0 0.00000000D+00 0.00000000D+00 0.00000000D+00 0.00000000D+00 0.00000000D+00
  <mgrwgt>
 -.5637430589D-03    7    2    0
 0.175997672699401D+04 0.000000000000000D+00 0.000000000000000D+00 0.175997672699401D+04
 0.175997672699401D+04 -.000000000000000D+00 -.000000000000000D+00 -.175997672699401D+04
 0.882015258231040D+03 0.183819850472738D+03 -.733767516597017D+03 0.436029138833168D+03
 0.141539474879374D+04 -.412003743762885D+02 0.151244555725415D+02 -.141471413186827D+04
 0.122254344696324D+04 -.142619476096449D+03 0.718643061024475D+03 0.978684993035100D+03
 0.000000000000000D+00 0.000000000000000D+00 0.000000000000000D+00 0.000000000000000D+00
 0.175997672699401D+04 0.000000000000000D+00 0.000000000000000D+00 0.175997672699401D+04
 0.175997672699401D+04 -.000000000000000D+00 -.000000000000000D+00 -.175997672699401D+04
 0.881971046345032D+03 0.183775910495966D+03 -.733546108131124D+03 0.436330664242168D+03
 0.141491708134803D+04 -.412708759645107D+02 0.154797049294583D+02 -.141423033506669D+04
 0.112836562223398D+04 -.146327387995312D+03 0.667386110439602D+03 0.897993904519536D+03
 0.946997040609851D+02 0.382235346385723D+01 0.506802927620632D+02 0.799057663049862D+02
0.231192488014D-02 0.000000000000D+00 0.000000000000D+00 0.164097625135D-03 0.000000000000D+00  6 1 4 25 3 2 21 0 0.31517937D+00 0.23261052D+00 0.59540314D+06 0.59540314D+06 0.59540314D+06 0.10631913D+01  1  2  2  4  6  5        2 0.140829545025D-04 0.100000000000D+01
0.160762985716D-02 0.000000000000D+00 -.887840028355D-05 0.164097625135D-03 0.000000000000D+00  6 1 4 25 3 2 21 2 0.31517937D+00 0.23261052D+00 0.59540314D+06 0.59540314D+06 0.59540314D+06 0.10631913D+01  1  2  3  4  6  5        2 0.110695236777D-04 0.100000000000D+01
-.176645599724D-02 0.000000000000D+00 0.000000000000D+00 0.164097625135D-03 0.000000000000D+00  6 1 4 25 3 2 21 2 0.31517937D+00 0.23261052D+00 0.59540314D+06 0.59540314D+06 0.59540314D+06 0.10631913D+01  1  2 15  4  6  5        2 -.121631396680D-04 0.100000000000D+01
0.266221740728D+00 0.000000000000D+00 0.000000000000D+00 0.164097625135D-03 0.000000000000D+00  6 1 4 25 3 2 21 2 0.31517937D+00 0.23261052D+00 0.59646266D+06 0.59646266D+06 0.59646266D+06 0.10631375D+01  1  2 12  4  6  5        2 0.183266184234D-02 0.100000000000D+01
-.372443111115D+00 0.000000000000D+00 0.000000000000D+00 0.164097625135D-03 0.000000000000D+00  6 1 4 25 3 2 21 2 0.31517937D+00 0.23261052D+00 0.59540314D+06 0.59540314D+06 0.59540314D+06 0.10631913D+01  1  2  4  4  6  5        2 -.256450066459D-02 0.100000000000D+01
-.279996215744D+00 0.000000000000D+00 0.000000000000D+00 0.164097625135D-03 0.000000000000D+00  6 1 4 25 3 2 21 2 0.31517937D+00 0.23261052D+00 0.59540314D+06 0.59540314D+06 0.59540314D+06 0.10631913D+01  1  2  5  4  6  5        2 -.192794673852D-02 0.100000000000D+01
0.302522362922D+00 0.000000000000D+00 -.000000000000D+00 0.164097625135D-03 0.000000000000D+00  6 1 4 25 3 2 21 2 0.31517937D+00 0.23261052D+00 0.59540314D+06 0.59540314D+06 0.59540314D+06 0.10631913D+01  1  2  6  4  6  5        2 0.208305316332D-02 0.100000000000D+01
  </mgrwgt>
  </event>
  <event>
  5     66 0.19826370E-05 0.39880032E+02 0.75467711E-02 0.94851693E-01
        1 -1    0    0  502    0 0.00000000E+00 0.00000000E+00 0.48814926E+03 0.48814937E+03 0.32000000E+00 0.0000E+00 0.9000E+01
        4 -1    0    0  501    0 -.00000000E+00 -.00000000E+00 -.15459621E+04 0.15459629E+04 0.15500000E+01 0.0000E+00 0.9000E+01
       25  1    1    2    0    0 0.29877968E+03 -.37047738E+03 -.12310456E+02 0.49223910E+03 0.12500000E+03 0.0000E+00 0.9000E+01
        3  1    1    2  501    0 -.27420451E+03 0.33904705E+03 -.12550075E+04 0.13286027E+04 0.50000000E+00 0.0000E+00 0.9000E+01
        2  1    1    2  502    0 -.24575172E+02 0.31430335E+02 0.20950510E+03 0.21327048E+03 0.32000000E+00 0.0000E+00 0.9000E+01
#aMCatNLO 1  0  0  5  5 0.66758811D+01 0.00000000D+00  -5  6  0 0.00000000D+00 0.00000000D+00 0.00000000D+00 0.00000000D+00 0.00000000D+00
  <mgrwgt>
 0.2333332518D-02    7    2    0
 0.868712366717577D+03 0.000000000000000D+00 0.000000000000000D+00 0.868712366717577D+03
 0.868712366717577D+03 -.000000000000000D+00 -.000000000000000D+00 -.868712366717577D+03
 0.568928706882382D+03 0.298817749954965D+03 -.370524081848574D+03 0.285437787612263D+03
 0.791416551771038D+03 -.274253295382673D+03 0.339107454085845D+03 -.660402470446864D+03
 0.377079474781734D+03 -.245644545722913D+02 0.314166277627288D+02 0.374964682834600D+03
 0.000000000000000D+00 -.000000000000000D+00 0.000000000000000D+00 0.000000000000000D+00
 0.868712366717577D+03 0.000000000000000D+00 0.000000000000000D+00 0.868712366717577D+03
 0.868712366717577D+03 -.000000000000000D+00 -.000000000000000D+00 -.868712366717577D+03
 0.569468245737274D+03 0.298732311136413D+03 -.370414810154752D+03 0.286741970426732D+03
 0.790011762259393D+03 -.274371984532766D+03 0.339259251180992D+03 -.658590737180425D+03
 0.762710678194070D+01 0.462044252361293D+01 -.421533840503431D+01 0.436522518092137D+01
 0.370317618656547D+03 -.289807691272595D+02 0.353708973787941D+02 0.367483541572771D+03
0.240152244392D-01 0.000000000000D+00 0.000000000000D+00 0.711190673163D-04 0.000000000000D+00  6 1 4 25 3 2 21 0 0.75099954D-01 0.23784040D+00 0.23432992D+06 0.23432992D+06 0.23432992D+06 0.10925803D+01  1  2  2  4  6  5        2 0.224381019891D-02 0.100000000000D+01
0.871878793552D-02 0.000000000000D+00 -.922247852005D-04 0.711190673163D-04 0.000000000000D+00  6 1 4 25 3 2 21 2 0.75099954D-01 0.23784040D+00 0.23432992D+06 0.23432992D+06 0.23432992D+06 0.10925803D+01  1  2  3  4  6  5        2 0.972438888704D-03 0.100000000000D+01
-.157481209549D-01 0.000000000000D+00 0.000000000000D+00 0.711190673163D-04 0.000000000000D+00  6 1 4 25 3 2 21 2 0.75099954D-01 0.23784040D+00 0.23432992D+06 0.23432992D+06 0.23432992D+06 0.10925803D+01  1  2 15  4  6  5        2 -.175644657879D-02 0.100000000000D+01
-.928081854362D-03 0.000000000000D+00 0.000000000000D+00 0.711190673163D-04 0.000000000000D+00  6 1 4 25 3 2 21 2 0.75099954D-01 0.23784040D+00 0.23432992D+06 0.23432992D+06 0.23432992D+06 0.10925803D+01  1  2  4  4  6  5        2 -.103512425552D-03 0.100000000000D+01
-.674975333341D-02 0.000000000000D+00 0.000000000000D+00 0.711190673163D-04 0.000000000000D+00  6 1 4 25 3 2 21 2 0.75099954D-01 0.23784040D+00 0.23432992D+06 0.23432992D+06 0.23432992D+06 0.10925803D+01  1  2  5  4  6  5        2 -.752825126509D-03 0.100000000000D+01
0.153692835274D-01 0.000000000000D+00 -.000000000000D+00 0.711190673163D-04 0.000000000000D+00  6 1 4 25 3 2 21 2 0.75099954D-01 0.23784040D+00 0.23432992D+06 0.23432992D+06 0.23432992D+06 0.10925803D+01  1  2  6  4  6  5        2 0.171419342965D-02 0.100000000000D+01
0.140884336846D-03 0.000000000000D+00 0.000000000000D+00 0.711190673163D-04 0.270396316077D-07  6 1 4 25 3 2 21 2 0.75099954D-01 0.23784040D+00 0.24025335D+06 0.24025335D+06 0.24025335D+06 0.10917607D+01  1  2 11  4  6  5        2 0.156741312457D-04 0.100000000000D+01
  </mgrwgt>
  </event>
  <event>
  5     66 0.19826370E-05 0.16218137E+02 0.75467711E-02 0.92036377E-01
        1 -1    0    0  502    0 0.00000000E+00 0.00000000E+00 0.45517313E+03 0.45517324E+03 0.32000000E+00 0.0000E+00 0.9000E+01
        4 -1    0    0  501    0 -.00000000E+00 -.00000000E+00 -.11171734E+04 0.11171745E+04 0.15500000E+01 0.0000E+00 0.9000E+01
       25  1    1    2    0    0 -.51521663E+03 -.53118787E+02 -.23450496E+03 0.58214032E+03 0.12500000E+03 0.0000E+00 0.9000E+01
        3  1    1    2  501    0 -.89814917E+01 0.13503168E+02 -.46303055E+03 0.46331474E+03 0.50000000E+00 0.0000E+00 0.9000E+01
        2  1    1    2  502    0 0.52419812E+03 0.39615619E+02 0.35535188E+02 0.52689270E+03 0.32000000E+00 0.0000E+00 0.9000E+01
#aMCatNLO 1  0  0  4  2 0.29845657D+01 0.00000000D+00  -5  6  0 0.00000000D+00 0.00000000D+00 0.00000000D+00 0.00000000D+00 0.00000000D+00
  <mgrwgt>
 0.2875541838D-02    4    2    0
 0.713097653135556D+03 0.000000000000000D+00 0.000000000000000D+00 0.713097653135556D+03
 0.713097653135556D+03 -.000000000000000D+00 -.000000000000000D+00 -.713097653135556D+03
 0.532935461365287D+03 -.515205351676064D+03 -.531188082869964D+02 0.117065704262241D+02
 0.295891042376848D+03 -.898159541100708D+01 0.135040332591023D+02 -.295446240437186D+03
 0.597368802528977D+03 0.524186947087071D+03 0.396147750278938D+02 0.283739670010962D+03
 0.000000000000000D+00 0.000000000000000D+00 0.000000000000000D+00 0.000000000000000D+00
 0.713097653135556D+03 0.000000000000000D+00 0.000000000000000D+00 0.713097653135556D+03
 0.713097653135556D+03 -.000000000000000D+00 -.000000000000000D+00 -.713097653135556D+03
 0.535679459509353D+03 -.516803403972671D+03 -.507161002629052D+02 -.408607654922888D+02
 0.986293196868974D+02 0.276057382821942D+02 -.944034683307147D+02 0.732468995432268D+01
 0.570899260666854D+03 0.522439869234261D+03 0.422415463698404D+02 0.226270193849595D+03
 0.220987266408008D+03 -.332422035437837D+02 0.102878022223779D+03 -.192734118311629D+03
0.104405267070D-01 0.000000000000D+00 0.000000000000D+00 0.130226814155D-04 0.000000000000D+00  6 1 4 25 3 2 21 0 0.70026726D-01 0.17187293D+00 0.28874865D+06 0.28874865D+06 0.28874865D+06 0.10857822D+01  1  2  2  3  6  4        3 0.374493891843D-02 0.100000000000D+01
0.755966004405D-02 0.000000000000D+00 -.400943716087D-04 0.130226814155D-04 0.000000000000D+00  6 1 4 25 3 2 21 2 0.70026726D-01 0.17187293D+00 0.28874865D+06 0.28874865D+06 0.28874865D+06 0.10857822D+01  1  2  3  3  6  4        3 0.319676024535D-02 0.100000000000D+01
-.778660682914D-02 0.000000000000D+00 0.000000000000D+00 0.130226814155D-04 0.000000000000D+00  6 1 4 25 3 2 21 2 0.70026726D-01 0.17187293D+00 0.28874865D+06 0.28874865D+06 0.28874865D+06 0.10857822D+01  1  2 15  3  6  4        3 -.329272943658D-02 0.100000000000D+01
-.182899293751D-02 0.000000000000D+00 0.000000000000D+00 0.130226814155D-04 0.000000000000D+00  6 1 4 25 3 2 21 2 0.70026726D-01 0.17187293D+00 0.28874865D+06 0.28874865D+06 0.28874865D+06 0.10857822D+01  1  2  4  3  6  4        3 -.773427889295D-03 0.100000000000D+01
  </mgrwgt>
  </event>
  <event>
  6     66 0.19826370E-05 0.30524464E+03 0.75467711E-02 0.90847082E-01
        1 -1    0    0  502    0 0.00000000E+00 0.00000000E+00 0.11086826E+04 0.11086826E+04 0.32000000E+00 0.0000E+00 0.9000E+01
       21 -1    0    0  501  503 0.00000000E+00 0.00000000E+00 -.47512407E+03 0.47512466E+03 0.75000000E+00 0.0000E+00 0.9000E+01
       25  1    1    2    0    0 0.18607608E+02 0.66479133E+03 0.23521450E+03 0.71641092E+03 0.12500000E+03 0.0000E+00 0.9000E+01
        3  1    1    2  501    0 -.11228397E+03 -.13470439E+03 0.45773309E+02 0.18124130E+03 0.50000000E+00 0.0000E+00 0.9000E+01
        2  1    1    2  502    0 0.14102413E+03 -.36007828E+03 0.32972747E+03 0.50819728E+03 0.32000000E+00 0.0000E+00 0.9000E+01
       -4  1    1    2    0  503 -.47347764E+02 -.17000866E+03 0.22843228E+02 0.17795777E+03 0.15500000E+01 0.0000E+00 0.9000E+01
#aMCatNLO 2  0  0  2  1 0.17647876D+03 0.00000000D+00  -5  6  0 0.00000000D+00 0.00000000D+00 0.00000000D+00 0.00000000D+00 0.00000000D+00
  <mgrwgt>
 0.2004577675D-01    1    2    0
 0.626955923885221D+03 0.000000000000000D+00 0.000000000000000D+00 0.626955923885221D+03
 0.626955923885221D+03 0.000000000000000D+00 0.000000000000000D+00 -.626955923885221D+03
 0.597819299396717D+03 -.541126049875585D+01 0.578465224258032D+03 -.843304056381855D+02
 0.203464635384557D+03 -.119481888586836D+03 -.160562460355685D+03 -.366283015770982D+02
 0.452627912989167D+03 0.124893149085592D+03 -.417902763902347D+03 0.120958707215284D+03
 0.000000000000000D+00 -.000000000000000D+00 -.000000000000000D+00 -.000000000000000D+00
 0.696176772751032D+03 0.000000000000000D+00 0.000000000000000D+00 0.696176772751032D+03
 0.756643377552591D+03 0.000000000000000D+00 0.000000000000000D+00 -.756643377552591D+03
 0.681936709590336D+03 0.186320780245244D+02 0.664796137353611D+03 -.843304056381855D+02
 0.179188794646943D+03 -.112292810441680D+03 -.134749086726814D+03 -.366283015770982D+02
 0.405144481088213D+03 0.141008495996955D+03 -.360038394843830D+03 0.120958707215284D+03
 0.186550164978131D+03 -.473477635797995D+02 -.170008655782967D+03 -.604666048015589D+02
0.790227801432D-03 0.000000000000D+00 0.000000000000D+00 0.211148712570D-08 0.780662031931D-10  6 1 21 25 3 2 -4 2 0.17056583D+00 0.73095731D-01 0.50073519D+06 0.50073519D+06 0.50073519D+06 0.10684653D+01  1  2  1  6  6  2        4 0.200457767482D-01 0.100000000000D+01
  </mgrwgt>
  </event>
  <event>
  6     66 0.19826370E-05 0.13264202E+03 0.75467711E-02 0.93844883E-01
        1 -1    0    0  502    0 0.00000000E+00 0.00000000E+00 0.92844255E+03 0.92844260E+03 0.32000000E+00 0.0000E+00 0.9000E+01
       21 -1    0    0  501  503 0.00000000E+00 0.00000000E+00 -.37284589E+03 0.37284664E+03 0.75000000E+00 0.0000E+00 0.9000E+01
       25  1    1    2    0    0 0.39312313E+03 -.29583457E+03 0.38487471E+03 0.63703801E+03 0.12500000E+03 0.0000E+00 0.9000E+01
        3  1    1    2  501    0 -.49889230E+02 0.19646372E+03 0.51416563E+02 0.20911921E+03 0.50000000E+00 0.0000E+00 0.9000E+01
        2  1    1    2  502    0 -.12485435E+03 0.64209408E+02 0.17759032E+03 0.22638437E+03 0.32000000E+00 0.0000E+00 0.9000E+01
       -4  1    1    2    0  503 -.21837955E+03 0.35161442E+02 -.58284939E+02 0.22874766E+03 0.15500000E+01 0.0000E+00 0.9000E+01
#aMCatNLO 2  0  0  2  1 0.17647876D+03 0.00000000D+00  -5  6  0 0.00000000D+00 0.00000000D+00 0.00000000D+00 0.00000000D+00 0.00000000D+00
  <mgrwgt>
 0.2060785552D-03    1    2    0
 0.425608060736471D+03 0.000000000000000D+00 0.000000000000000D+00 0.425608060736471D+03
 0.425608060736471D+03 0.000000000000000D+00 0.000000000000000D+00 -.425608060736471D+03
 0.412038461262493D+03 0.276964595761987D+03 -.277172882860318D+03 0.248294031515517D+02
 0.247460931464508D+03 -.108829029853787D+03 0.206026592649199D+03 -.833438539049307D+02
 0.191716728745942D+03 -.168135565908200D+03 0.711462902111194D+02 0.585144507533790D+02
 0.000000000000000D+00 -.000000000000000D+00 0.000000000000000D+00 -.000000000000000D+00
 0.484189971298696D+03 0.000000000000000D+00 0.000000000000000D+00 0.484189971298696D+03
 0.714934249821572D+03 0.000000000000000D+00 0.000000000000000D+00 -.714934249821572D+03
 0.508227071695343D+03 0.393083494994011D+03 -.295869266917762D+03 0.248294031515517D+02
 0.219248770184957D+03 -.499397040281662D+02 0.196544781679567D+03 -.833438539049307D+02
 0.152009712623455D+03 -.124764240372981D+03 0.641630431716638D+02 0.585144507533790D+02
 0.319638666616513D+03 -.218379550592864D+03 0.351614420665315D+02 -.230744278522877D+03
0.314944869280D-05 0.000000000000D+00 0.000000000000D+00 0.114860684785D-07 0.211362252270D-12  6 1 21 25 3 2 -4 2 0.14283686D+00 0.57360760D-01 0.28724164D+06 0.28724164D+06 0.28724164D+06 0.10859510D+01  1  2  1  6  6  2        4 0.206078555216D-03 0.100000000000D+01
  </mgrwgt>
  </event>
  <event>
  5     66 0.19826370E-05 0.95942063E+02 0.75467711E-02 0.91780492E-01
        1 -1    0    0  502    0 0.00000000E+00 0.00000000E+00 0.29520960E+04 0.29520960E+04 0.32000000E+00 0.0000E+00 0.9000E+01
        4 -1    0    0  501    0 0.00000000E+00 0.00000000E+00 -.50937810E+03 0.50938046E+03 0.15500000E+01 0.0000E+00 0.9000E+01
       25  1    1    2    0    0 0.22662966E+03 0.45659169E+03 0.13703901E+03 0.54244047E+03 0.12500000E+03 0.0000E+00 0.9000E+01
        3  1    1    2  501    0 -.89748510E+02 0.33917136E+02 -.27361545E+03 0.28994970E+03 0.50000000E+00 0.0000E+00 0.9000E+01
        2  1    1    2  502    0 -.13688115E+03 -.49050883E+03 0.25792943E+04 0.26290863E+04 0.32000000E+00 0.0000E+00 0.9000E+01
#aMCatNLO 1  0  0  1  5 0.20620066D+03 0.00000000D+00  -5  6  0 0.00000000D+00 0.00000000D+00 0.00000000D+00 0.00000000D+00 0.00000000D+00
  <mgrwgt>
 0.7724997868D-03    4    2    0
 0.122626961333646D+04 0.000000000000000D+00 0.000000000000000D+00 0.122626961333646D+04
 0.122626961333646D+04 0.000000000000000D+00 0.000000000000000D+00 -.122626961333646D+04
 0.629109503899252D+03 0.226628602862964D+03 0.456593431174380D+03 -.346865511213136D+03
 0.681740296925703D+03 -.897471466974475D+02 0.339165010367624D+02 -.674955519326597D+03
 0.114168942584796D+04 -.136881456165517D+03 -.490509932211142D+03 0.102182103053973D+04
 0.000000000000000D+00 -.000000000000000D+00 -.000000000000000D+00 -.000000000000000D+00
 0.126566201536894D+04 0.000000000000000D+00 0.000000000000000D+00 0.126566201536894D+04
 0.153373061571080D+04 0.000000000000000D+00 0.000000000000000D+00 -.153373061571080D+04
 0.661720162487498D+03 0.277917597136091D+03 0.474019725091090D+03 -.346865511213136D+03
 0.677918484327138D+03 -.357233407213389D+02 0.522719929854952D+02 -.674955519326597D+03
 0.112155361929289D+04 -.469552152340947D+02 -.459955987305326D+03 0.102182103053973D+04
 0.338200364972220D+03 -.195239041180657D+03 -.663357307712589D+02 -.268068600341860D+03
0.393596436034D-01 0.000000000000D+00 0.000000000000D+00 0.461623695538D-04 0.000000000000D+00  6 1 4 25 3 2 21 0 0.45416880D+00 0.78366044D-01 0.31924691D+06 0.31924691D+06 0.31924691D+06 0.10825595D+01  1  2  2  1  6  1        1 0.194399483434D-02 0.100000000000D+01
0.842976009815D-02 0.000000000000D+00 -.151151395069D-03 0.461623695538D-04 0.000000000000D+00  6 1 4 25 3 2 21 2 0.45416880D+00 0.78366044D-01 0.31924691D+06 0.31924691D+06 0.31924691D+06 0.10825595D+01  1  2  3  1  6  1        1 0.487935855527D-03 0.100000000000D+01
-.285322923759D-01 0.000000000000D+00 0.000000000000D+00 0.461623695538D-04 0.000000000000D+00  6 1 4 25 3 2 21 2 0.45416880D+00 0.78366044D-01 0.31924691D+06 0.31924691D+06 0.31924691D+06 0.10825595D+01  1  2 15  1  6  1        1 -.165152131597D-02 0.100000000000D+01
-.136648948877D-03 0.000000000000D+00 0.000000000000D+00 0.461623695538D-04 0.000000000000D+00  6 1 4 25 3 2 21 2 0.45416880D+00 0.78366044D-01 0.31924691D+06 0.31924691D+06 0.31924691D+06 0.10825595D+01  1  2  4  1  6  1        1 -.790958710578D-05 0.100000000000D+01
  </mgrwgt>
  </event>
  <event>
  6     66 0.19826370E-05 0.47102615E+02 0.75467711E-02 0.91385027E-01
        1 -1    0    0  502    0 0.00000000E+00 0.00000000E+00 0.11629044E+04 0.11629044E+04 0.32000000E+00 0.0000E+00 0.9000E+01
        4 -1    0    0  501    0 0.00000000E+00 0.00000000E+00 -.94198658E+03 0.94198785E+03 0.15500000E+01 0.0000E+00 0.9000E+01
       25  1    1    2    0    0 0.56478972E+03 -.24218683E+03 0.50123659E+03 0.80281069E+03 0.12500000E+03 0.0000E+00 0.9000E+01
        3  1    1    2  501    0 -.58879785E+03 0.28325057E+03 -.65316219E+03 0.92386952E+03 0.50000000E+00 0.0000E+00 0.9000E+01
        2  1    1    2  503    0 0.17396603E+02 -.49659255E+02 0.31150530E+03 0.31591825E+03 0.32000000E+00 0.0000E+00 0.9000E+01
       21  1    1    2  502  503 0.66115273E+01 0.85955194E+01 0.61338111E+02 0.62293833E+02 0.75000000E+00 0.0000E+00 0.9000E+01
#aMCatNLO 2  0  0  5  2 0.15492902D+02 0.00000000D+00  -5  6  0 0.00000000D+00 0.00000000D+00 0.00000000D+00 0.00000000D+00 0.00000000D+00
  <mgrwgt>
 0.2836066398D-03    4    2    0
 0.104663351718052D+04 0.000000000000000D+00 0.000000000000000D+00 0.104663351718052D+04
 0.104663351718052D+04 -.000000000000000D+00 -.000000000000000D+00 -.104663351718052D+04
 0.754392607648462D+03 0.565062541267931D+03 -.242284991942502D+03 0.418909911090553D+03
 0.999044873292005D+03 -.589175031090077D+03 0.283527223958386D+03 -.755364650262042D+03
 0.339829553420578D+03 0.241124898221458D+02 -.412422320158841D+02 0.336454739171489D+03
 0.000000000000000D+00 0.000000000000000D+00 0.000000000000000D+00 0.000000000000000D+00
 0.104663351718052D+04 0.000000000000000D+00 0.000000000000000D+00 0.104663351718052D+04
 0.104663351718052D+04 -.000000000000000D+00 -.000000000000000D+00 -.104663351718052D+04
 0.754995721055196D+03 0.565129170143368D+03 -.242398954605005D+03 0.419839620177901D+03
 0.998020281265610D+03 -.589086874713821D+03 0.283376440453653D+03 -.754134556198830D+03
 0.284113524992103D+03 0.173473359690629D+02 -.495798254653540D+02 0.279215697848527D+03
 0.561375070481361D+02 0.661036860139056D+01 0.860233961670587D+01 0.550792381724015D+02
-.139512508347D-02 0.000000000000D+00 0.000000000000D+00 0.139580886299D-04 0.000000000000D+00  6 1 4 25 3 2 21 2 0.17890847D+00 0.14492111D+00 0.44156928D+06 0.44156928D+06 0.44156928D+06 0.10723458D+01  1  2  8  4  6  5        2 -.227590557431D-03 0.100000000000D+01
-.203073913207D-02 0.000000000000D+00 0.000000000000D+00 0.139580886299D-04 0.000000000000D+00  6 1 4 25 3 2 21 2 0.17890847D+00 0.14492111D+00 0.44156928D+06 0.44156928D+06 0.44156928D+06 0.10723458D+01  1  2  9  4  6  5        2 -.331280009613D-03 0.100000000000D+01
0.239346587873D-02 0.000000000000D+00 0.000000000000D+00 0.139580886299D-04 0.000000000000D+00  6 1 4 25 3 2 21 2 0.17890847D+00 0.14492111D+00 0.44156928D+06 0.44156928D+06 0.44156928D+06 0.10723458D+01  1  2 10  4  6  5        2 0.390452612446D-03 0.100000000000D+01
0.277746815658D-02 0.000000000000D+00 0.000000000000D+00 0.139580886299D-04 0.982672714853D-07  6 1 4 25 3 2 21 2 0.17890847D+00 0.14492111D+00 0.45197041D+06 0.45197041D+06 0.45197041D+06 0.10716241D+01  1  2  1  4  6  5        2 0.452024594402D-03 0.100000000000D+01
  </mgrwgt>
  </event>
  <event>
  6     66 0.19826370E-05 0.29415315E+02 0.75467711E-02 0.92786627E-01
        1 -1    0    0  502    0 0.00000000E+00 0.00000000E+00 0.10263385E+04 0.10263386E+04 0.32000000E+00 0.0000E+00 0.9000E+01
       21 -1    0    0  501  503 0.00000000E+00 0.00000000E+00 -.96403151E+03 0.96403180E+03 0.75000000E+00 0.0000E+00 0.9000E+01
       25  1    1    2    0    0 -.54197791E+03 0.11878949E+03 -.24955668E+02 0.56929675E+03 0.12500000E+03 0.0000E+00 0.9000E+01
        3  1    1    2  501    0 0.33212107E+02 0.24969334E+02 -.38834634E+03 0.39056324E+03 0.50000000E+00 0.0000E+00 0.9000E+01
        2  1    1    2  502    0 0.51963959E+03 -.16546538E+03 0.65339066E+03 0.85107201E+03 0.32000000E+00 0.0000E+00 0.9000E+01
       -4  1    1    2    0  503 -.10873784E+02 0.21706564E+02 -.17778164E+03 0.17943837E+03 0.15500000E+01 0.0000E+00 0.9000E+01
#aMCatNLO 2  0  0  2  2 0.24277852D+02 0.00000000D+00  -5  6  0 0.00000000D+00 0.00000000D+00 0.00000000D+00 0.00000000D+00 0.00000000D+00
  <mgrwgt>
 0.1060229825D-02    1    2    0
 0.897391039932485D+03 0.000000000000000D+00 0.000000000000000D+00 0.897391039932485D+03
 0.897391039932485D+03 0.000000000000000D+00 0.000000000000000D+00 -.897391039932485D+03
 0.582462036138866D+03 -.545484265612550D+03 0.125799988335383D+03 -.101283278219989D+03
 0.446159176396459D+03 0.305121768586492D+02 0.303656130883186D+02 -.444077636554560D+03
 0.766160867329646D+03 0.514972088753900D+03 -.156165601423702D+03 0.545360914774550D+03
 0.000000000000000D+00 -.000000000000000D+00 0.000000000000000D+00 -.000000000000000D+00
 0.898195148216690D+03 0.000000000000000D+00 0.000000000000000D+00 0.898195148216690D+03
 0.110156078640415D+04 0.000000000000000D+00 0.000000000000000D+00 -.110156078640415D+04
 0.577689018572911D+03 -.541970007517563D+03 0.118784724119552D+03 -.101283278219989D+03
 0.446017603018950D+03 0.332147037895057D+02 0.249707502302373D+02 -.444077636554560D+03
 0.771239652894743D+03 0.519629087686490D+03 -.165462038134359D+03 0.545360914774550D+03
 0.204809660134236D+03 -.108737839584337D+02 0.217065637845699D+02 -.203365638187460D+03
0.224432148521D-03 0.000000000000D+00 0.000000000000D+00 0.274564032215D-04 0.804557909919D-08  6 1 21 25 3 2 -4 2 0.15789774D+00 0.14831208D+00 0.34804674D+06 0.34804674D+06 0.34804674D+06 0.10798107D+01  1  2  1  6  6  2        4 0.106022982484D-02 0.100000000000D+01
  </mgrwgt>
  </event>
  <event>
  5     66 0.19826370E-05 0.98654459E+02 0.75467711E-02 0.94070444E-01
        1 -1    0    0  502    0 0.00000000E+00 0.00000000E+00 0.11024925E+04 0.11024925E+04 0.32000000E+00 0.0000E+00 0.9000E+01
        4 -1    0    0  501    0 0.00000000E+00 0.00000000E+00 -.71624035E+03 0.71624203E+03 0.15500000E+01 0.0000E+00 0.9000E+01
       25  1    1    2    0    0 -.24362182E+02 -.48862796E+03 0.51967939E+03 0.72459814E+03 0.12500000E+03 0.0000E+00 0.9000E+01
        3  1    1    2  501    0 -.82241666E+02 0.54460052E+02 -.50393424E+03 0.51349738E+03 0.50000000E+00 0.0000E+00 0.9000E+01
        2  1    1    2  502    0 0.10660385E+03 0.43416791E+03 0.37050697E+03 0.58063902E+03 0.32000000E+00 0.0000E+00 0.9000E+01
#aMCatNLO 1  0  0  1  2 0.98074859D+02 0.00000000D+00  -5  6  0 0.00000000D+00 0.00000000D+00 0.00000000D+00 0.00000000D+00 0.00000000D+00
  <mgrwgt>
 0.1820653447D-03    1    2    0
 0.888623185060511D+03 0.000000000000000D+00 0.000000000000000D+00 0.888623185060511D+03
 0.888623185060511D+03 0.000000000000000D+00 0.000000000000000D+00 -.888623185060511D+03
 0.628590391551274D+03 -.243261533034407D+02 -.488541725996231D+03 0.374481108437614D+03
 0.635099108370686D+03 -.822541190928099D+02 0.544698287840725D+02 -.627389970510958D+03
 0.513556870199061D+03 0.106580272396251D+03 0.434071897212159D+03 0.252908862073344D+03
 0.000000000000000D+00 0.000000000000000D+00 0.000000000000000D+00 0.000000000000000D+00
 0.179779109654197D+04 0.000000000000000D+00 0.000000000000000D+00 0.179779109654197D+04
 0.116395013698663D+04 0.000000000000000D+00 0.000000000000000D+00 -.116395013698663D+04
 0.893382312766788D+03 -.150959250915252D+03 -.787071890459173D+03 0.374481108437614D+03
 0.687457848560932D+03 -.192295175511981D+03 -.204945563321339D+03 -.627389970510958D+03
 0.365440847622296D+03 0.334447927088500D+02 0.261659256355150D+03 0.252908862073344D+03
 0.101546022457858D+04 0.309809633718383D+03 0.730358197425361D+03 0.633840959555339D+03
0.418421356721D-03 0.000000000000D+00 0.000000000000D+00 0.415561254693D-05 0.000000000000D+00  6 1 4 25 3 2 21 2 0.16961436D+00 0.11019096D+00 0.27588001D+06 0.27588001D+06 0.27588001D+06 0.10872553D+01  1  2 14  1  6  1        1 0.182065344652D-03 0.100000000000D+01
  </mgrwgt>
  </event>
  <event>
  5     66 0.19826370E-05 0.21654971E+03 0.75467711E-02 0.92049406E-01
        1 -1    0    0  502    0 0.00000000E+00 0.00000000E+00 0.13261629E+04 0.13261629E+04 0.32000000E+00 0.0000E+00 0.9000E+01
        4 -1    0    0  501    0 0.00000000E+00 0.00000000E+00 -.49096068E+03 0.49096312E+03 0.15500000E+01 0.0000E+00 0.9000E+01
       25  1    1    2    0    0 0.50509091E+02 0.45150896E+03 0.38236587E+03 0.60682796E+03 0.12500000E+03 0.0000E+00 0.9000E+01
        3  1    1    2  501    0 -.18807887E+03 0.10729815E+03 -.23093961E+03 0.31657528E+03 0.50000000E+00 0.0000E+00 0.9000E+01
        2  1    1    2  502    0 0.13756978E+03 -.55880711E+03 0.68377596E+03 0.89372283E+03 0.32000000E+00 0.0000E+00 0.9000E+01
#aMCatNLO 1  0  0  2  1 0.29262232D+03 0.00000000D+00  -5  6  0 0.00000000D+00 0.00000000D+00 0.00000000D+00 0.00000000D+00 0.00000000D+00
  <mgrwgt>
 0.1114189442D-03    7    2    0
 0.806905259326915D+03 0.000000000000000D+00 0.000000000000000D+00 0.806905259326915D+03
 0.806905259326915D+03 0.000000000000000D+00 0.000000000000000D+00 -.806905259326915D+03
 0.485379687422880D+03 0.505318129643844D+02 0.451480701337735D+03 0.116533914208924D+03
 0.476018182657144D+03 -.188095669757262D+03 0.107302353963664D+03 -.423909818325353D+03
 0.652412648573807D+03 0.137563856792877D+03 -.558783055301398D+03 0.307375904116429D+03
 0.000000000000000D+00 0.000000000000000D+00 0.000000000000000D+00 -.000000000000000D+00
 0.890554936919919D+03 0.000000000000000D+00 0.000000000000000D+00 0.890554936919919D+03
 0.112374162039861D+04 0.000000000000000D+00 0.000000000000000D+00 -.112374162039861D+04
 0.412569358728402D+03 0.257465623023564D+02 0.374627064065482D+03 0.116533914208924D+03
 0.475731224015524D+03 -.214365921630601D+03 0.258440529743010D+02 -.423909818325353D+03
 0.751825087327995D+03 0.988039912720212D+02 -.678968914467424D+03 0.307375904116429D+03
 0.374170887246607D+03 0.898153680562229D+02 0.278497797427641D+03 -.233186683478690D+03
0.143047851088D-03 0.000000000000D+00 0.000000000000D+00 0.132439229856D-06 0.000000000000D+00  6 1 4 25 3 2 21 0 0.20402525D+00 0.75532603D-01 0.39891831D+06 0.39891831D+06 0.39891831D+06 0.10755124D+01  1  2  2  2  6  2        4 0.100158455505D-03 0.100000000000D+01
0.841282086470D-05 0.000000000000D+00 -.549341413542D-06 0.132439229856D-06 0.000000000000D+00  6 1 4 25 3 2 21 2 0.20402525D+00 0.75532603D-01 0.39891831D+06 0.39891831D+06 0.39891831D+06 0.10755124D+01  1  2  3  2  6  2        4 0.681363358030D-05 0.100000000000D+01
-.990304659461D-04 0.000000000000D+00 0.000000000000D+00 0.132439229856D-06 0.000000000000D+00  6 1 4 25 3 2 21 2 0.20402525D+00 0.75532603D-01 0.39891831D+06 0.39891831D+06 0.39891831D+06 0.10755124D+01  1  2 15  2  6  2        4 -.802058333460D-04 0.100000000000D+01
-.170271208742D-04 0.000000000000D+00 0.000000000000D+00 0.132439229856D-06 0.000000000000D+00  6 1 4 25 3 2 21 2 0.20402525D+00 0.75532603D-01 0.39891831D+06 0.39891831D+06 0.39891831D+06 0.10755124D+01  1  2  4  2  6  2        4 -.137904472745D-04 0.100000000000D+01
-.254004729043D-03 0.000000000000D+00 -.915924169825D-04 0.132439229856D-06 0.000000000000D+00  6 1 4 25 3 2 21 2 0.20402525D+00 0.11257834D+00 0.39891831D+06 0.39891831D+06 0.39891831D+06 0.10755124D+01  1  2  5  2  6  2        4 -.694891373472D-04 0.100000000000D+01
0.275190188468D-03 0.000000000000D+00 0.847531005369D-04 0.132439229856D-06 0.000000000000D+00  6 1 4 25 3 2 21 2 0.20402525D+00 0.75532603D-01 0.39891831D+06 0.39891831D+06 0.39891831D+06 0.10755124D+01  1  2  6  2  6  2        4 0.222879476370D-03 0.100000000000D+01
-.895372269592D-05 0.000000000000D+00 -.435245751931D-05 0.132439229856D-06 0.000000000000D+00  6 1 21 25 3 2 -4 2 0.20402525D+00 0.11257834D+00 0.39891831D+06 0.39891831D+06 0.39891831D+06 0.10755124D+01  1  2  5  6  6  2        4 -.549472032748D-04 0.100000000000D+01
  </mgrwgt>
  </event>
  <event>
  5     66 0.19826370E-05 0.24319847E+02 0.75467711E-02 0.92722967E-01
        1 -1    0    0  502    0 0.00000000E+00 0.00000000E+00 0.81392996E+03 0.81393003E+03 0.32000000E+00 0.0000E+00 0.9000E+01
        4 -1    0    0  501    0 0.00000000E+00 0.00000000E+00 -.74805058E+03 0.74805219E+03 0.15500000E+01 0.0000E+00 0.9000E+01
       25  1    1    2    0    0 -.23310759E+03 0.42498775E+03 0.12624068E+03 0.51625134E+03 0.12500000E+03 0.0000E+00 0.9000E+01
        3  1    1    2  501    0 0.21849602E+03 -.40553519E+03 -.45668516E+03 0.64866085E+03 0.50000000E+00 0.0000E+00 0.9000E+01
        2  1    1    2  502    0 0.14611567E+02 -.19452558E+02 0.39632387E+03 0.39707003E+03 0.32000000E+00 0.0000E+00 0.9000E+01
#aMCatNLO 1  0  0  2  4 0.56955078D+02 0.00000000D+00  -5  6  0 0.00000000D+00 0.00000000D+00 0.00000000D+00 0.00000000D+00 0.00000000D+00
  <mgrwgt>
 0.1022565202D-02    4    2    0
 0.780296153190646D+03 0.000000000000000D+00 0.000000000000000D+00 0.780296153190646D+03
 0.780296153190646D+03 0.000000000000000D+00 0.000000000000000D+00 -.780296153190646D+03
 0.511481213412163D+03 -.233144152897527D+03 0.425057517627557D+03 0.104680190826979D+03
 0.668561220259605D+03 0.218538079253145D+03 -.405612271960689D+03 -.484452162742872D+03
 0.380549872709525D+03 0.146060736443822D+02 -.194452456668679D+02 0.379771971915893D+03
 0.000000000000000D+00 0.000000000000000D+00 0.000000000000000D+00 0.000000000000000D+00
 0.907397253756656D+03 0.000000000000000D+00 0.000000000000000D+00 0.907397253756656D+03
 0.854127729226354D+03 0.000000000000000D+00 0.000000000000000D+00 -.854127729226354D+03
 0.534535519326217D+03 -.293472052171846D+03 0.415956047754833D+03 0.104680190826979D+03
 0.654914296688959D+03 0.142208040564873D+03 -.417127931479117D+03 -.484452162742872D+03
 0.381796979699297D+03 -.293614678726773D+02 -.260784826817292D+02 0.379771971915893D+03
 0.190278187268536D+03 0.180625479479651D+03 0.272503664060136D+02 0.532695245303021D+02
0.213916445812D-02 0.000000000000D+00 0.000000000000D+00 0.513227125948D-04 0.000000000000D+00  6 1 4 25 3 2 21 0 0.12522012D+00 0.11508483D+00 0.24290766D+06 0.24290766D+06 0.24290766D+06 0.10914006D+01  1  2  2  2  6  2        4 0.117498593301D-02 0.100000000000D+01
0.123844671128D-02 0.000000000000D+00 -.821495477412D-05 0.513227125948D-04 0.000000000000D+00  6 1 4 25 3 2 21 2 0.12522012D+00 0.11508483D+00 0.24290766D+06 0.24290766D+06 0.24290766D+06 0.10914006D+01  1  2  3  2  6  2        4 0.810278323748D-03 0.100000000000D+01
-.143078870108D-02 0.000000000000D+00 0.000000000000D+00 0.513227125948D-04 0.000000000000D+00  6 1 4 25 3 2 21 2 0.12522012D+00 0.11508483D+00 0.24290766D+06 0.24290766D+06 0.24290766D+06 0.10914006D+01  1  2 15  2  6  2        4 -.936121885420D-03 0.100000000000D+01
-.406211140707D-04 0.000000000000D+00 0.000000000000D+00 0.513227125948D-04 0.000000000000D+00  6 1 4 25 3 2 21 2 0.12522012D+00 0.11508483D+00 0.24290766D+06 0.24290766D+06 0.24290766D+06 0.10914006D+01  1  2  4  2  6  2        4 -.265771695449D-04 0.100000000000D+01
  </mgrwgt>
  </event>
  <event>
  6     66 -.19826370E-05 0.26799756E+02 0.75467711E-02 0.95255197E-01
        1 -1    0    0  502    0 0.00000000E+00 0.00000000E+00 0.17624902E+04 0.17624902E+04 0.32000000E+00 0.0000E+00 0.9000E+01
        4 -1    0    0  501    0 0.00000000E+00 0.00000000E+00 -.55024480E+03 0.55024698E+03 0.15500000E+01 0.0000E+00 0.9000E+01
       25  1    1    2    0    0 -.44245822E+03 0.13320704E+03 0.45907851E+02 0.48088036E+03 0.12500000E+03 0.0000E+00 0.9000E+01
        3  1    1    2  501    0 0.48311026E+02 -.83244949E+01 -.30080465E+03 0.30477359E+03 0.50000000E+00 0.0000E+00 0.9000E+01
        2  1    1    2  503    0 0.33082403E+03 -.78047266E+02 0.12723233E+04 0.13169444E+04 0.32000000E+00 0.0000E+00 0.9000E+01
       21  1    1    2  502  503 0.63323162E+02 -.46835280E+02 0.19481892E+03 0.21013886E+03 0.75000000E+00 0.0000E+00 0.9000E+01
#aMCatNLO 2  0  0  5  1 0.32108116D+02 0.00000000D+00  -5  6  0 0.00000000D+00 0.00000000D+00 0.00000000D+00 0.00000000D+00 0.00000000D+00
  <mgrwgt>
 -.3583892053D-02    2    2    0
 0.984786079256470D+03 0.000000000000000D+00 0.000000000000000D+00 0.984786079256470D+03
 0.984786079256470D+03 -.000000000000000D+00 -.000000000000000D+00 -.984786079256470D+03
 0.537329368498695D+03 -.443030775679307D+03 0.133385606748557D+03 -.242960618134951D+03
 0.544335077131375D+03 0.477411603652546D+02 -.814109273596485D+01 -.542176337008231D+03
 0.887907712882870D+03 0.395289615314053D+03 -.125244514012592D+03 0.785136955143182D+03
 0.000000000000000D+00 0.000000000000000D+00 -.000000000000000D+00 0.000000000000000D+00
 0.984786079256470D+03 0.000000000000000D+00 0.000000000000000D+00 0.984786079256470D+03
 0.984786079256470D+03 -.000000000000000D+00 -.000000000000000D+00 -.984786079256470D+03
 0.536278379231339D+03 -.442446983050603D+03 0.133200636485657D+03 -.241801070428209D+03
 0.543220272263863D+03 0.483325372416114D+02 -.832846601016217D+01 -.541001725224727D+03
 0.763191832389861D+03 0.330770168636371D+03 -.780162972180671D+02 0.683349343992693D+03
 0.126881674627877D+03 0.633442771726205D+02 -.468558732574278D+02 0.994534516602437D+02
-.249150066015D-01 0.000000000000D+00 0.000000000000D+00 0.172815538988D-03 0.000000000000D+00  6 1 4 25 3 2 21 2 0.27115251D+00 0.84653216D-01 0.22389628D+06 0.22389628D+06 0.22389628D+06 0.10940805D+01  1  2 13  4  6  5        2 -.809479930252D-02 0.100000000000D+01
0.138841347014D-01 0.000000000000D+00 0.000000000000D+00 0.172815538988D-03 0.406714871801D-06  6 1 4 25 3 2 21 2 0.27115251D+00 0.84653216D-01 0.22389628D+06 0.22389628D+06 0.22389628D+06 0.10940805D+01  1  2  1  4  6  5        2 0.451090724937D-02 0.100000000000D+01
  </mgrwgt>
  </event>
  <event>
  5     66 0.19826370E-05 0.65262214E+02 0.75467711E-02 0.91555390E-01
        1 -1    0    0  502    0 0.00000000E+00 0.00000000E+00 0.11360247E+04 0.11360247E+04 0.32000000E+00 0.0000E+00 0.9000E+01
        4 -1    0    0  501    0 0.00000000E+00 0.00000000E+00 -.31154239E+03 0.31154625E+03 0.15500000E+01 0.0000E+00 0.9000E+01
       25  1    1    2    0    0 -.40790190E+03 -.23667054E+03 0.52022836E+03 0.71320365E+03 0.12500000E+03 0.0000E+00 0.9000E+01
        3  1    1    2  501    0 0.47711675E+02 -.44516882E+02 -.10322590E+03 0.12212286E+03 0.50000000E+00 0.0000E+00 0.9000E+01
        2  1    1    2  502    0 0.36019023E+03 0.28118742E+03 0.40747982E+03 0.61224445E+03 0.32000000E+00 0.0000E+00 0.9000E+01
#aMCatNLO 1  0  0  1  4 0.28972627D+03 0.00000000D+00  -5  6  0 0.00000000D+00 0.00000000D+00 0.00000000D+00 0.00000000D+00 0.00000000D+00
  <mgrwgt>
 0.9358620535D-03    7    2    0
 0.594913998450059D+03 0.000000000000000D+00 0.000000000000000D+00 0.594913998450059D+03
 0.594913998450059D+03 0.000000000000000D+00 0.000000000000000D+00 -.594913998450059D+03
 0.507201053475062D+03 -.407887472921061D+03 -.236649968256278D+03 0.138753416551037D+03
 0.220144015704400D+03 0.477182794062314D+02 -.445210326412152D+02 -.210248022852838D+03
 0.462482927720657D+03 0.360169193514830D+03 0.281171000897494D+03 0.714946063018014D+02
 0.000000000000000D+00 0.000000000000000D+00 0.000000000000000D+00 0.000000000000000D+00
 0.768569041642092D+03 0.000000000000000D+00 0.000000000000000D+00 0.768569041642092D+03
 0.746584729591574D+03 0.000000000000000D+00 0.000000000000000D+00 -.746584729591574D+03
 0.623139256580511D+03 -.543456522830382D+03 -.240997988124874D+03 0.138753416551037D+03
 0.215310556711031D+03 -.450861380093653D+01 -.461960725525494D+02 -.210248022852838D+03
 0.386144803165484D+03 0.258387761693398D+03 0.277906629803135D+03 0.714946063018014D+02
 0.290559154776641D+03 0.289577374937920D+03 0.928743087428811D+01 0.219843120505181D+02
0.223415987951D-03 0.000000000000D+00 0.000000000000D+00 0.538899154021D-06 0.000000000000D+00  6 1 4 25 3 2 21 0 0.17477333D+00 0.47929899D-01 0.25504441D+06 0.25504441D+06 0.25504441D+06 0.10898070D+01  1  2  2  1  6  1        1 0.635991156053D-03 0.100000000000D+01
0.421510343730D-04 0.000000000000D+00 -.857976220514D-06 0.538899154021D-06 0.000000000000D+00  6 1 4 25 3 2 21 2 0.17477333D+00 0.47929899D-01 0.25504441D+06 0.25504441D+06 0.25504441D+06 0.10898070D+01  1  2  3  1  6  1        1 0.142509650259D-03 0.100000000000D+01
-.155494392922D-03 0.000000000000D+00 0.000000000000D+00 0.538899154021D-06 0.000000000000D+00  6 1 4 25 3 2 21 2 0.17477333D+00 0.47929899D-01 0.25504441D+06 0.25504441D+06 0.25504441D+06 0.10898070D+01  1  2 15  1  6  1        1 -.525715486755D-03 0.100000000000D+01
-.340093448566D-04 0.000000000000D+00 0.000000000000D+00 0.538899154021D-06 0.000000000000D+00  6 1 4 25 3 2 21 2 0.17477333D+00 0.47929899D-01 0.25504441D+06 0.25504441D+06 0.25504441D+06 0.10898070D+01  1  2  4  1  6  1        1 -.114983176882D-03 0.100000000000D+01
-.318590594638D-03 0.000000000000D+00 -.176324381666D-03 0.538899154021D-06 0.000000000000D+00  6 1 4 25 3 2 21 2 0.25986249D+00 0.47929899D-01 0.25504441D+06 0.25504441D+06 0.25504441D+06 0.10898070D+01  1  2  5  1  6  1        1 -.450827180549D-03 0.100000000000D+01
0.371905097433D-03 0.000000000000D+00 0.163307528376D-03 0.538899154021D-06 0.000000000000D+00  6 1 4 25 3 2 21 2 0.17477333D+00 0.47929899D-01 0.25504441D+06 0.25504441D+06 0.25504441D+06 0.10898070D+01  1  2  6  1  6  1        1 0.125738469181D-02 0.100000000000D+01
-.912178866424D-05 0.000000000000D+00 -.834159236383D-05 0.538899154021D-06 0.000000000000D+00  6 21 4 25 3 2 -1 2 0.25986249D+00 0.47929899D-01 0.25504441D+06 0.25504441D+06 0.25504441D+06 0.10898070D+01  1  2  5  5  6  1        1 -.849760047190D-05 0.100000000000D+01
  </mgrwgt>
  </event>
  <event>
  6     66 0.19826370E-05 0.10010898E+03 0.75467711E-02 0.91328812E-01
        1 -1    0    0  502    0 0.00000000E+00 0.00000000E+00 0.77234438E+03 0.77234445E+03 0.32000000E+00 0.0000E+00 0.9000E+01
        4 -1    0    0  501    0 -.00000000E+00 -.00000000E+00 -.13602316E+04 0.13602324E+04 0.15500000E+01 0.0000E+00 0.9000E+01
       25  1    1    2    0    0 0.38804075E+03 -.44544990E+03 -.20114597E+03 0.63646362E+03 0.12500000E+03 0.0000E+00 0.9000E+01
        3  1    1    2  501    0 0.64277640E+01 -.45270765E+02 -.51185341E+03 0.51389193E+03 0.50000000E+00 0.0000E+00 0.9000E+01
        2  1    1    2  503    0 -.12224419E+03 -.19001381E+02 -.25990276E+03 0.28784413E+03 0.32000000E+00 0.0000E+00 0.9000E+01
       21  1    1    2  502  503 -.27222432E+03 0.50972204E+03 0.38501496E+03 0.69437722E+03 0.75000000E+00 0.0000E+00 0.9000E+01
#aMCatNLO 2  0  0  5  5 0.21809135D+03 0.00000000D+00  -5  6  0 0.00000000D+00 0.00000000D+00 0.00000000D+00 0.00000000D+00 0.00000000D+00
  <mgrwgt>
 0.5346095687D-03    1    2    0
 0.102497230360404D+04 0.000000000000000D+00 0.000000000000000D+00 0.102497230360404D+04
 0.102497230360404D+04 -.000000000000000D+00 -.000000000000000D+00 -.102497230360404D+04
 0.694587308290121D+03 0.442802759524107D+03 -.513559231080491D+03 -.837207332001259D+02
 0.432545514259636D+03 0.410445093919373D+02 -.883490160800359D+02 -.421432582405060D+03
 0.922811784658326D+03 -.483847268916044D+03 0.601908247160527D+03 0.505153315605186D+03
 0.000000000000000D+00 0.000000000000000D+00 0.000000000000000D+00 0.000000000000000D+00
 0.102497230360404D+04 0.000000000000000D+00 0.000000000000000D+00 0.102497230360404D+04
 0.102497230360404D+04 -.000000000000000D+00 -.000000000000000D+00 -.102497230360404D+04
 0.604662860122597D+03 0.388195064284763D+03 -.445627004870709D+03 -.267084070387918D+02
 0.388144441069814D+03 0.655077750243299D+01 -.454386535886868D+02 -.385419930994181D+03
 0.224018882306994D+03 -.121570324588084D+03 -.191103606685704D+02 -.187189502709794D+03
 0.833118423708678D+03 -.273175517199111D+03 0.510176019127966D+03 0.599317840742767D+03
0.595163403257D-02 0.000000000000D+00 0.000000000000D+00 0.113618993719D-05 0.487619353106D-10  6 1 4 25 3 2 21 2 0.11882229D+00 0.20926647D+00 0.45680946D+06 0.45680946D+06 0.45680946D+06 0.10712944D+01  1  2  1  4  6  5        2 0.534609568698D-03 0.100000000000D+01
  </mgrwgt>
  </event>
  <event>
  5     66 0.19826370E-05 0.21438213E+02 0.75467711E-02 0.91164116E-01
        1 -1    0    0  502    0 0.00000000E+00 0.00000000E+00 0.15520111E+04 0.15520112E+04 0.32000000E+00 0.0000E+00 0.9000E+01
        4 -1    0    0  501    0 0.00000000E+00 0.00000000E+00 -.66211616E+03 0.66211797E+03 0.15500000E+01 0.0000E+00 0.9000E+01
       25  1    1    2    0    0 -.53254921E+03 0.36568542E+03 0.19108074E+03 0.68517978E+03 0.12500000E+03 0.0000E+00 0.9000E+01
        3  1    1    2  501    0 0.20138954E+02 -.73444505E+01 -.32693866E+03 0.32764105E+03 0.50000000E+00 0.0000E+00 0.9000E+01
        2  1    1    2  502    0 0.51241026E+03 -.35834097E+03 0.10257529E+04 0.12013083E+04 0.32000000E+00 0.0000E+00 0.9000E+01
#aMCatNLO 1  0  0  1  5 0.25355140D+03 0.00000000D+00  -5  6  0 0.00000000D+00 0.00000000D+00 0.00000000D+00 0.00000000D+00 0.00000000D+00
  <mgrwgt>
 0.1143718403D-02    7    2    0
 0.101371282533788D+04 0.000000000000000D+00 0.000000000000000D+00 0.101371282533788D+04
 0.101371282533788D+04 0.000000000000000D+00 0.000000000000000D+00 -.101371282533788D+04
 0.664386041662617D+03 -.532538679972322D+03 0.365677572398867D+03 -.920123890241350D+02
 0.501356932963117D+03 0.201406485027522D+02 -.734515246250726D+01 -.500898370174404D+03
 0.861682676050021D+03 0.512398031469570D+03 -.358332419936360D+03 0.592910759198539D+03
 0.000000000000000D+00 -.000000000000000D+00 0.000000000000000D+00 0.000000000000000D+00
 0.104427099586765D+04 0.000000000000000D+00 0.000000000000000D+00 0.104427099586765D+04
 0.103726166587868D+04 0.000000000000000D+00 0.000000000000000D+00 -.103726166587868D+04
 0.650584926960889D+03 -.526172135683205D+03 0.349731827383999D+03 -.920123890241350D+02
 0.501901141285382D+03 0.249980081825655D+02 -.195109704294395D+02 -.500898370174404D+03
 0.875631005147224D+03 0.520809384084455D+03 -.379399623420108D+03 0.592910759198539D+03
 0.534155883528348D+02 -.196352565838158D+02 0.491787664655486D+02 0.700932998896806D+01
0.114891597384D-02 0.000000000000D+00 0.000000000000D+00 0.444328833760D-04 0.000000000000D+00  6 1 4 25 3 2 21 0 0.23877108D+00 0.10186417D+00 0.42555070D+06 0.42555070D+06 0.42555070D+06 0.10734944D+01  1  2  2  1  6  1        1 0.253050971646D-03 0.100000000000D+01
0.869611858082D-03 0.000000000000D+00 -.441213985607D-05 0.444328833760D-04 0.000000000000D+00  6 1 4 25 3 2 21 2 0.23877108D+00 0.10186417D+00 0.42555070D+06 0.42555070D+06 0.42555070D+06 0.10734944D+01  1  2  3  1  6  1        1 0.220721564020D-03 0.100000000000D+01
-.792238017938D-03 0.000000000000D+00 0.000000000000D+00 0.444328833760D-04 0.000000000000D+00  6 1 4 25 3 2 21 2 0.23877108D+00 0.10186417D+00 0.42555070D+06 0.42555070D+06 0.42555070D+06 0.10734944D+01  1  2 15  1  6  1        1 -.201082831116D-03 0.100000000000D+01
-.182458160535D-03 0.000000000000D+00 0.000000000000D+00 0.444328833760D-04 0.000000000000D+00  6 1 4 25 3 2 21 2 0.23877108D+00 0.10186417D+00 0.42555070D+06 0.42555070D+06 0.42555070D+06 0.10734944D+01  1  2  4  1  6  1        1 -.463108341809D-04 0.100000000000D+01
-.354206094322D-01 0.000000000000D+00 -.603832826151D-02 0.444328833760D-04 0.000000000000D+00  6 1 4 25 3 2 21 2 0.24925140D+00 0.10186417D+00 0.42555070D+06 0.42555070D+06 0.42555070D+06 0.10734944D+01  1  2  5  1  6  1        1 -.809066991291D-02 0.100000000000D+01
0.356526636006D-01 0.000000000000D+00 0.603276133391D-02 0.444328833760D-04 0.000000000000D+00  6 1 4 25 3 2 21 2 0.23877108D+00 0.10186417D+00 0.42555070D+06 0.42555070D+06 0.42555070D+06 0.10734944D+01  1  2  6  1  6  1        1 0.904922305078D-02 0.100000000000D+01
-.263819598464D-03 0.000000000000D+00 -.456493092395D-04 0.444328833760D-04 0.000000000000D+00  6 21 4 25 3 2 -1 2 0.24925140D+00 0.10186417D+00 0.42555070D+06 0.42555070D+06 0.42555070D+06 0.10734944D+01  1  2  5  5  6  1        1 -.412136050486D-04 0.100000000000D+01
  </mgrwgt>
  </event>
  <event>
  5     66 0.19826370E-05 0.52473703E+02 0.75467711E-02 0.83337038E-01
        1 -1    0    0  502    0 0.00000000E+00 0.00000000E+00 0.20750384E+04 0.20750384E+04 0.32000000E+00 0.0000E+00 0.9000E+01
        4 -1    0    0  501    0 0.00000000E+00 0.00000000E+00 -.84020634E+03 0.84020777E+03 0.15500000E+01 0.0000E+00 0.9000E+01
       25  1    1    2    0    0 -.45853494E+03 -.24035117E+03 -.29172968E+03 0.60725133E+03 0.12500000E+03 0.0000E+00 0.9000E+01
        3  1    1    2  501    0 -.42003100E+02 -.31473213E+02 -.34639272E+03 0.35034695E+03 0.50000000E+00 0.0000E+00 0.9000E+01
        2  1    1    2  502    0 0.50053804E+03 0.27182438E+03 0.18729545E+04 0.19576479E+04 0.32000000E+00 0.0000E+00 0.9000E+01
#aMCatNLO 1  0  0  2  2 0.32414326D+03 0.00000000D+00  -5  6  0 0.00000000D+00 0.00000000D+00 0.00000000D+00 0.00000000D+00 0.00000000D+00
  <mgrwgt>
 0.3027896674D-02    5    2    0
 0.132040242026622D+04 0.000000000000000D+00 0.000000000000000D+00 0.132040242026622D+04
 0.132040242026622D+04 0.000000000000000D+00 0.000000000000000D+00 -.132040242026622D+04
 0.806906188247251D+03 -.458551018504825D+03 -.240362130522568D+03 -.606159720099041D+03
 0.548577671712336D+03 -.419929970912847D+02 -.314655007951350D+02 -.546062242199852D+03
 0.128532098057286D+04 0.500544015596109D+03 0.271827631317703D+03 0.115222196229889D+04
 0.000000000000000D+00 0.000000000000000D+00 0.000000000000000D+00 -.000000000000000D+00
 0.213203548800566D+04 0.000000000000000D+00 0.000000000000000D+00 0.213203548800566D+04
 0.223600224062660D+04 0.000000000000000D+00 0.000000000000000D+00 -.223600224062660D+04
 0.109370660353156D+04 -.577489973207568D+03 -.692563974794186D+03 -.606159720099041D+03
 0.640791787443192D+03 -.116422865625911D+03 -.314445319344656D+03 -.546062242199852D+03
 0.124656499913458D+04 0.342100447734456D+03 -.330569403186946D+03 0.115222196229889D+04
 0.138697433852293D+04 0.351812391099023D+03 0.133757869732579D+04 -.103966752620935D+03
0.978749094875D-01 0.000000000000D+00 0.000000000000D+00 0.108494044532D-03 0.000000000000D+00  6 1 4 25 3 2 21 0 0.31923679D+00 0.12926263D+00 0.33331582D+06 0.33331582D+06 0.33331582D+06 0.10811843D+01  1  2  2  2  6  2        4 0.485838432586D-02 0.100000000000D+01
0.301073202193D-01 0.000000000000D+00 -.375865423487D-03 0.108494044532D-03 0.000000000000D+00  6 1 4 25 3 2 21 2 0.31923679D+00 0.12926263D+00 0.33331582D+06 0.33331582D+06 0.33331582D+06 0.10811843D+01  1  2  3  2  6  2        4 0.174699673712D-02 0.100000000000D+01
-.705506930840D-01 0.000000000000D+00 0.000000000000D+00 0.108494044532D-03 0.000000000000D+00  6 1 4 25 3 2 21 2 0.31923679D+00 0.12926263D+00 0.33331582D+06 0.33331582D+06 0.33331582D+06 0.10811843D+01  1  2 15  2  6  2        4 -.409374961708D-02 0.100000000000D+01
0.680934398322D-01 0.000000000000D+00 -.435130356086D-01 0.108494044532D-03 0.000000000000D+00  6 1 4 25 3 2 21 2 0.31923679D+00 0.33087518D+00 0.33331582D+06 0.33331582D+06 0.33331582D+06 0.10811843D+01  1  2  5  2  6  2        4 0.821337171185D-04 0.100000000000D+01
0.972332798417D-02 0.000000000000D+00 -.451929767356D-02 0.108494044532D-03 0.000000000000D+00  6 1 21 25 3 2 -4 2 0.31923679D+00 0.33087518D+00 0.33331582D+06 0.33331582D+06 0.33331582D+06 0.10811843D+01  1  2  5  6  6  2        4 0.434131510720D-03 0.100000000000D+01
  </mgrwgt>
  </event>
  <event>
  5     66 0.19826370E-05 0.24979160E+02 0.75467711E-02 0.92965887E-01
        1 -1    0    0  502    0 0.00000000E+00 0.00000000E+00 0.92146067E+03 0.92146072E+03 0.32000000E+00 0.0000E+00 0.9000E+01
        4 -1    0    0  501    0 0.00000000E+00 0.00000000E+00 -.91299178E+03 0.91299310E+03 0.15500000E+01 0.0000E+00 0.9000E+01
       25  1    1    2    0    0 -.50002808E+03 0.88132912E+00 0.57067122E+02 0.51856582E+03 0.12500000E+03 0.0000E+00 0.9000E+01
        3  1    1    2  501    0 0.48497680E+03 -.20822893E+02 -.59557563E+03 0.76834021E+03 0.50000000E+00 0.0000E+00 0.9000E+01
        2  1    1    2  502    0 0.15051281E+02 0.19941564E+02 0.54697739E+03 0.54754779E+03 0.32000000E+00 0.0000E+00 0.9000E+01
#aMCatNLO 1  0  0  1  1 0.14945191D+03 0.00000000D+00  -5  6  0 0.00000000D+00 0.00000000D+00 0.00000000D+00 0.00000000D+00 0.00000000D+00
  <mgrwgt>
 0.1851071625D-02    7    2    0
 0.917217134312450D+03 0.000000000000000D+00 0.000000000000000D+00 0.917217134312450D+03
 0.917217134312450D+03 0.000000000000000D+00 0.000000000000000D+00 -.917217134312450D+03
 0.518385486103469D+03 -.500098773119404D+03 0.886820845232942D+00 0.547626047224355D+02
 0.771128988023136D+03 0.485050489310789D+03 -.208244128236734D+02 -.599109574968970D+03
 0.544919794498295D+03 0.150482838086147D+02 0.199375919784404D+02 0.544346970246534D+03
 0.000000000000000D+00 0.000000000000000D+00 0.000000000000000D+00 0.000000000000000D+00
 0.128778498368533D+04 0.000000000000000D+00 0.000000000000000D+00 0.128778498368533D+04
 0.935449348692349D+03 0.000000000000000D+00 0.000000000000000D+00 -.935449348692349D+03
 0.556570331148718D+03 -.539261418960756D+03 -.185394891903594D+02 0.547626047224355D+02
 0.739036680847527D+03 0.430032336655053D+03 -.481157172826610D+02 -.599109574968970D+03
 0.544905133687021D+03 -.246560714835865D+02 0.242571402093972D+00 0.544346970246534D+03
 0.382722186694409D+03 0.133885153789289D+03 0.664126350709264D+02 0.352335634992977D+03
0.140813102960D-02 0.000000000000D+00 0.000000000000D+00 0.106612544625D-03 0.000000000000D+00  6 1 4 25 3 2 21 0 0.14176328D+00 0.14046038D+00 0.26314912D+06 0.26314912D+06 0.26314912D+06 0.10887883D+01  1  2  2  1  6  1        1 0.343173858939D-03 0.100000000000D+01
0.920908190482D-03 0.000000000000D+00 -.540759392309D-05 0.106612544625D-03 0.000000000000D+00  6 1 4 25 3 2 21 2 0.14176328D+00 0.14046038D+00 0.26314912D+06 0.26314912D+06 0.26314912D+06 0.10887883D+01  1  2  3  1  6  1        1 0.266056792472D-03 0.100000000000D+01
-.925536796618D-03 0.000000000000D+00 0.000000000000D+00 0.106612544625D-03 0.000000000000D+00  6 1 4 25 3 2 21 2 0.14176328D+00 0.14046038D+00 0.26314912D+06 0.26314912D+06 0.26314912D+06 0.10887883D+01  1  2 15  1  6  1        1 -.267394029034D-03 0.100000000000D+01
-.583630213520D-04 0.000000000000D+00 0.000000000000D+00 0.106612544625D-03 0.000000000000D+00  6 1 4 25 3 2 21 2 0.14176328D+00 0.14046038D+00 0.26314912D+06 0.26314912D+06 0.26314912D+06 0.10887883D+01  1  2  4  1  6  1        1 -.168614835012D-04 0.100000000000D+01
-.120294024100D-01 0.000000000000D+00 -.126874096043D-02 0.106612544625D-03 0.000000000000D+00  6 1 4 25 3 2 21 2 0.20052652D+00 0.14046038D+00 0.26314912D+06 0.26314912D+06 0.26314912D+06 0.10887883D+01  1  2  5  1  6  1        1 -.182111082984D-02 0.100000000000D+01
0.118238968001D-01 0.000000000000D+00 0.119609500629D-02 0.106612544625D-03 0.000000000000D+00  6 1 4 25 3 2 21 2 0.14176328D+00 0.14046038D+00 0.26314912D+06 0.26314912D+06 0.26314912D+06 0.10887883D+01  1  2  6  1  6  1        1 0.341600616617D-02 0.100000000000D+01
-.480809121437D-03 0.000000000000D+00 -.544446423782D-04 0.106612544625D-03 0.000000000000D+00  6 21 4 25 3 2 -1 2 0.20052652D+00 0.14046038D+00 0.26314912D+06 0.26314912D+06 0.26314912D+06 0.10887883D+01  1  2  5  5  6  1        1 -.687988503269D-04 0.100000000000D+01
  </mgrwgt>
  </event>
  <event>
  6     66 0.19826370E-05 0.35389929E+03 0.75467711E-02 0.88278163E-01
        1 -1    0    0  502    0 0.00000000E+00 0.00000000E+00 0.25180376E+04 0.25180376E+04 0.32000000E+00 0.0000E+00 0.9000E+01
       21 -1    0    0  501  503 0.00000000E+00 0.00000000E+00 -.50948164E+03 0.50948219E+03 0.75000000E+00 0.0000E+00 0.9000E+01
       25  1    1    2    0    0 0.58836063E+03 0.44051453E+03 0.17507494E+04 0.19028846E+04 0.12500000E+03 0.0000E+00 0.9000E+01
        3  1    1    2  501    0 -.66966884E+03 -.81572931E+02 0.25533824E+03 0.72132404E+03 0.50000000E+00 0.0000E+00 0.9000E+01
        2  1    1    2  502    0 0.11801201E+03 -.34388859E+03 0.36482200E+01 0.36359264E+03 0.32000000E+00 0.0000E+00 0.9000E+01
       -4  1    1    2    0  503 -.36703797E+02 -.15053012E+02 -.11799755E+01 0.39718468E+02 0.15500000E+01 0.0000E+00 0.9000E+01
#aMCatNLO 2  0  0  2  4 0.39670667D+02 0.00000000D+00  -5  6  0 0.00000000D+00 0.00000000D+00 0.00000000D+00 0.00000000D+00 0.00000000D+00
  <mgrwgt>
 0.5825858626D-02    2    2    0
 0.110525386706755D+04 0.000000000000000D+00 0.000000000000000D+00 0.110525386706755D+04
 0.110525386706755D+04 0.000000000000000D+00 0.000000000000000D+00 -.110525386706755D+04
 0.967542460444943D+03 0.572311228543073D+03 0.433813451232479D+03 0.636222571100035D+03
 0.754620641430303D+03 -.682179142018551D+03 -.867177006806438D+02 -.310747439339696D+03
 0.488344632259849D+03 0.109867913475478D+03 -.347095750551835D+03 -.325475131760339D+03
 0.000000000000000D+00 -.000000000000000D+00 -.000000000000000D+00 -.000000000000000D+00
 0.111394545813318D+04 0.000000000000000D+00 0.000000000000000D+00 0.111394545813318D+04
 0.115164490876566D+04 0.000000000000000D+00 0.000000000000000D+00 -.115164490876566D+04
 0.980155212138244D+03 0.588479944695443D+03 0.440444587429423D+03 0.636222571100035D+03
 0.742824562277123D+03 -.669748174526372D+03 -.816194951259411D+02 -.310747439339696D+03
 0.487883903997600D+03 0.117972026513543D+03 -.343772080521116D+03 -.325475131760339D+03
 0.547266884858755D+02 -.367037966826144D+02 -.150530117823665D+02 -.376994506324867D+02
-.111915392860D-06 0.000000000000D+00 0.000000000000D+00 0.120553906105D-09 0.000000000000D+00  6 1 21 25 3 2 -4 2 0.38436405D+00 0.79844035D-01 0.83122304D+06 0.83122304D+06 0.83122304D+06 0.10532503D+01  1  2 13  6  6  2        4 -.237327361827D-06 0.100000000000D+01
0.271059428236D-02 0.000000000000D+00 0.000000000000D+00 0.120553906105D-09 0.784136329916D-10  6 1 21 25 3 2 -4 2 0.38738664D+00 0.78381066D-01 0.83122304D+06 0.83122304D+06 0.83122304D+06 0.10532503D+01  1  2  1  6  6  2        4 0.582609595327D-02 0.100000000000D+01
  </mgrwgt>
  </event>
  <event>
  5     66 -.19826370E-05 0.20331569E+02 0.75467711E-02 0.92824856E-01
        1 -1    0    0  502    0 0.00000000E+00 0.00000000E+00 0.26191199E+04 0.26191199E+04 0.32000000E+00 0.0000E+00 0.9000E+01
        4 -1    0    0  501    0 0.00000000E+00 0.00000000E+00 -.36184028E+03 0.36184360E+03 0.15500000E+01 0.0000E+00 0.9000E+01
       25  1    1    2    0    0 0.51477990E+03 -.26674036E+03 0.17496239E+03 0.61837335E+03 0.12500000E+03 0.0000E+00 0.9000E+01
        3  1    1    2  501    0 -.20310305E+02 -.99033216E+00 -.10356479E+03 0.10554338E+03 0.50000000E+00 0.0000E+00 0.9000E+01
        2  1    1    2  502    0 -.49446960E+03 0.26773069E+03 0.21858820E+04 0.22570468E+04 0.32000000E+00 0.0000E+00 0.9000E+01
#aMCatNLO 1  0  0  4  2 0.15530371D+01 0.00000000D+00  -5  6  0 0.00000000D+00 0.00000000D+00 0.00000000D+00 0.00000000D+00 0.00000000D+00
  <mgrwgt>
 -.3713609129D-02    8    2    0
 0.973502991030334D+03 0.000000000000000D+00 0.000000000000000D+00 0.973502991030334D+03
 0.973502991030334D+03 -.000000000000000D+00 -.000000000000000D+00 -.973502991030334D+03
 0.743968769880963D+03 0.514784965381098D+03 -.266745056659425D+03 -.449119187659063D+03
 0.281593799179025D+03 -.203074555024986D+02 -.989917546542888D+00 -.280858852540457D+03
 0.921443413000680D+03 -.494477509878599D+03 0.267734974205968D+03 0.729978040199519D+03
 0.000000000000000D+00 0.000000000000000D+00 0.000000000000000D+00 -.000000000000000D+00
 0.973502991030334D+03 0.000000000000000D+00 0.000000000000000D+00 0.973502991030334D+03
 0.973502991030334D+03 -.000000000000000D+00 -.000000000000000D+00 -.973502991030334D+03
 0.743973375347660D+03 0.514784365295606D+03 -.266745085911497D+03 -.449127487040660D+03
 0.205824856849236D+03 -.163075709992631D+02 -.122849251239876D+01 -.205174134898284D+03
 0.921435658093708D+03 -.494478253109777D+03 0.267734937976043D+03 0.729967761065551D+03
 0.757720917700640D+02 -.399854118656683D+01 0.238640447852897D+00 -.756661391266065D+02
0.622469333341D-05 0.000000000000D+00 0.000000000000D+00 0.482476584618D-04 0.000000000000D+00  6 1 4 25 3 2 21 0 0.40294178D+00 0.55667993D-01 0.34559762D+06 0.34559762D+06 0.34559762D+06 0.10800346D+01  1  2  2  3  6  4        3 0.122487444612D-05 0.100000000000D+01
0.343378165833D-05 0.000000000000D+00 -.239044613997D-07 0.482476584618D-04 0.000000000000D+00  6 1 4 25 3 2 21 2 0.40294178D+00 0.55667993D-01 0.34559762D+06 0.34559762D+06 0.34559762D+06 0.10800346D+01  1  2  3  3  6  4        3 0.788173180758D-06 0.100000000000D+01
-.431710470412D-05 0.000000000000D+00 0.000000000000D+00 0.482476584618D-04 0.000000000000D+00  6 1 4 25 3 2 21 2 0.40294178D+00 0.55667993D-01 0.34559762D+06 0.34559762D+06 0.34559762D+06 0.10800346D+01  1  2 15  3  6  4        3 -.990926763808D-06 0.100000000000D+01
0.308501162664D-05 0.000000000000D+00 0.000000000000D+00 0.482476584618D-04 0.000000000000D+00  6 1 4 25 3 2 21 2 0.40294178D+00 0.55667993D-01 0.34561408D+06 0.34561408D+06 0.34561408D+06 0.10800331D+01  1  2 12  3  6  4        3 0.708114395219D-06 0.100000000000D+01
-.501058513205D-01 0.000000000000D+00 0.000000000000D+00 0.482476584618D-04 0.000000000000D+00  6 1 4 25 3 2 21 2 0.40294178D+00 0.55667993D-01 0.34559762D+06 0.34559762D+06 0.34559762D+06 0.10800346D+01  1  2  4  3  6  4        3 -.115010481561D-01 0.100000000000D+01
-.140586104881D-01 0.000000000000D+00 0.000000000000D+00 0.482476584618D-04 0.000000000000D+00  6 1 4 25 3 2 21 2 0.40294178D+00 0.55667993D-01 0.34559762D+06 0.34559762D+06 0.34559762D+06 0.10800346D+01  1  2  5  3  6  4        3 -.322694359979D-02 0.100000000000D+01
0.210253999917D-01 0.000000000000D+00 -.000000000000D+00 0.482476584618D-04 0.000000000000D+00  6 1 4 25 3 2 21 2 0.40294178D+00 0.55667993D-01 0.34559762D+06 0.34559762D+06 0.34559762D+06 0.10800346D+01  1  2  6  3  6  4        3 0.482606584724D-02 0.100000000000D+01
0.269528363595D-01 0.000000000000D+00 0.000000000000D+00 0.482476584618D-04 0.135737001323D-03  6 1 4 25 3 2 21 2 0.40294178D+00 0.55667993D-01 0.34561408D+06 0.34561408D+06 0.34561408D+06 0.10800331D+01  1  2 11  3  6  4        3 0.618658654422D-02 0.100000000000D+01
  </mgrwgt>
  </event>
  <event>
  5     66 0.19826370E-05 0.30808693E+02 0.75467711E-02 0.93481833E-01
        1 -1    0    0  502    0 0.00000000E+00 0.00000000E+00 0.23847337E+04 0.23847338E+04 0.32000000E+00 0.0000E+00 0.9000E+01
        4 -1    0    0  501    0 0.00000000E+00 0.00000000E+00 -.78207620E+03 0.78207774E+03 0.15500000E+01 0.0000E+00 0.9000E+01
       25  1    1    2    0    0 -.33085813E+03 0.42575745E+03 0.53151376E+03 0.76737761E+03 0.12500000E+03 0.0000E+00 0.9000E+01
        3  1    1    2  501    0 0.30016165E+03 -.42841701E+03 -.56097308E+03 0.76702620E+03 0.50000000E+00 0.0000E+00 0.9000E+01
        2  1    1    2  502    0 0.30696486E+02 0.26595611E+01 0.16321169E+04 0.16324077E+04 0.32000000E+00 0.0000E+00 0.9000E+01
#aMCatNLO 1  0  0  4  1 0.50692675D+01 0.00000000D+00  -5  6  0 0.00000000D+00 0.00000000D+00 0.00000000D+00 0.00000000D+00 0.00000000D+00
  <mgrwgt>
 0.6519148342D-02    4    2    0
 0.136566686210872D+04 0.000000000000000D+00 0.000000000000000D+00 0.136566686210872D+04
 0.136566686210872D+04 -.000000000000000D+00 -.000000000000000D+00 -.136566686210872D+04
 0.577921271175313D+03 -.330886104298669D+03 0.425800374568086D+03 0.166061502692884D+03
 0.121849499284398D+04 0.300192398633932D+03 -.428459694782701D+03 -.110047119968447D+04
 0.934917460198139D+03 0.306937056647360D+02 0.265932021461473D+01 0.934409696991583D+03
 0.000000000000000D+00 0.000000000000000D+00 0.000000000000000D+00 0.000000000000000D+00
 0.136566686210872D+04 0.000000000000000D+00 0.000000000000000D+00 0.136566686210872D+04
 0.136566686210872D+04 -.000000000000000D+00 -.000000000000000D+00 -.136566686210872D+04
 0.460701283912068D+03 -.274799309517678D+03 0.345748610824036D+03 -.395463095634152D+02
 0.979664073372771D+03 -.155392316827381D+03 0.207923280071554D+03 -.944649582719769D+03
 0.643713583438773D+03 0.115941570681413D+03 -.119013561550998D+03 0.621900717042890D+03
 0.647254783493820D+03 0.314250055663646D+03 -.434658329344591D+03 0.362295175240295D+03
0.169452881685D+00 0.000000000000D+00 0.000000000000D+00 0.606535236922D-03 0.000000000000D+00  6 1 4 25 3 2 21 0 0.36688223D+00 0.12031954D+00 0.30664721D+06 0.30664721D+06 0.30664721D+06 0.10838484D+01  1  2  2  3  6  4        3 0.648638363817D-02 0.100000000000D+01
0.111045824093D+00 0.000000000000D+00 -.650743683640D-03 0.606535236922D-03 0.000000000000D+00  6 1 4 25 3 2 21 2 0.36688223D+00 0.12031954D+00 0.30664721D+06 0.30664721D+06 0.30664721D+06 0.10838484D+01  1  2  3  3  6  4        3 0.499336126394D-02 0.100000000000D+01
-.110261126071D+00 0.000000000000D+00 0.000000000000D+00 0.606535236922D-03 0.000000000000D+00  6 1 4 25 3 2 21 2 0.36688223D+00 0.12031954D+00 0.30664721D+06 0.30664721D+06 0.30664721D+06 0.10838484D+01  1  2 15  3  6  4        3 -.495807600451D-02 0.100000000000D+01
-.560538622977D-04 0.000000000000D+00 0.000000000000D+00 0.606535236922D-03 0.000000000000D+00  6 1 4 25 3 2 21 2 0.36688223D+00 0.12031954D+00 0.30664721D+06 0.30664721D+06 0.30664721D+06 0.10838484D+01  1  2  4  3  6  4        3 -.252055569830D-05 0.100000000000D+01
  </mgrwgt>
  </event>
  <event>
  5     66 -.19826370E-05 0.36894677E+02 0.75467711E-02 0.91825127E-01
        1 -1    0    0  502    0 0.00000000E+00 0.00000000E+00 0.66933594E+03 0.66933602E+03 0.32000000E+00 0.0000E+00 0.9000E+01
        4 -1    0    0  501    0 -.00000000E+00 -.00000000E+00 -.93230110E+03 0.93230239E+03 0.15500000E+01 0.0000E+00 0.9000E+01
       25  1    1    2    0    0 -.52446953E+03 -.35602276E+03 -.20915201E+03 0.67910976E+03 0.12500000E+03 0.0000E+00 0.9000E+01
        3  1    1    2  501    0 0.48785072E+03 0.36071645E+03 -.29772628E+03 0.67583717E+03 0.50000000E+00 0.0000E+00 0.9000E+01
        2  1    1    2  502    0 0.36618809E+02 -.46936850E+01 0.24391314E+03 0.24669148E+03 0.32000000E+00 0.0000E+00 0.9000E+01
#aMCatNLO 1  0  0  5  1 0.96133178D+00 0.00000000D+00  -5  6  0 0.00000000D+00 0.00000000D+00 0.00000000D+00 0.00000000D+00 0.00000000D+00
  <mgrwgt>
 -.6846362113D-03    8    2    0
 0.789951726371608D+03 0.000000000000000D+00 0.000000000000000D+00 0.789951726371608D+03
 0.789951726371608D+03 -.000000000000000D+00 -.000000000000000D+00 -.789951726371608D+03
 0.653727560581870D+03 -.524552765870423D+03 -.356092960090803D+03 -.988783244992665D+02
 0.635679731510280D+03 0.487957482239050D+03 0.360783629653312D+03 -.189265393440245D+03
 0.290496160651066D+03 0.365952836313723D+02 -.469066956250945D+01 0.288143717939512D+03
 0.000000000000000D+00 0.000000000000000D+00 0.000000000000000D+00 0.000000000000000D+00
 0.789951726371608D+03 0.000000000000000D+00 0.000000000000000D+00 0.789951726371608D+03
 0.789951726371608D+03 -.000000000000000D+00 -.000000000000000D+00 -.789951726371608D+03
 0.653725437137421D+03 -.524551661904369D+03 -.356093101593736D+03 -.988696320981819D+02
 0.635677960897003D+03 0.487958555727533D+03 0.360783492056899D+03 -.189256941013272D+03
 0.266728708780347D+03 0.344628909504447D+02 -.471643091191042D+01 0.264450881099728D+03
 0.237713459284459D+02 0.213021522639184D+01 0.260404487466028D-01 0.236756920117262D+02
0.194169842145D-05 0.000000000000D+00 0.000000000000D+00 0.266148479868D-05 0.000000000000D+00  6 1 4 25 3 2 21 0 0.10297487D+00 0.14343104D+00 0.41599371D+06 0.41599371D+06 0.41599371D+06 0.10742023D+01  1  2  2  4  6  5        2 0.725230257771D-06 0.100000000000D+01
0.835056189764D-06 0.000000000000D+00 -.745663319930D-08 0.266148479868D-05 0.000000000000D+00  6 1 4 25 3 2 21 2 0.10297487D+00 0.14343104D+00 0.41599371D+06 0.41599371D+06 0.41599371D+06 0.10742023D+01  1  2  3  4  6  5        2 0.359900139507D-06 0.100000000000D+01
-.140442491861D-05 0.000000000000D+00 0.000000000000D+00 0.266148479868D-05 0.000000000000D+00  6 1 4 25 3 2 21 2 0.10297487D+00 0.14343104D+00 0.41599371D+06 0.41599371D+06 0.41599371D+06 0.10742023D+01  1  2 15  4  6  5        2 -.605291871768D-06 0.100000000000D+01
0.687608878695D-08 0.000000000000D+00 0.000000000000D+00 0.266148479868D-05 0.000000000000D+00  6 1 4 25 3 2 21 2 0.10297487D+00 0.14343104D+00 0.41600647D+06 0.41600647D+06 0.41600647D+06 0.10742014D+01  1  2 12  4  6  5        2 0.296351144981D-08 0.100000000000D+01
-.154896919795D-01 0.000000000000D+00 0.000000000000D+00 0.266148479868D-05 0.000000000000D+00  6 1 4 25 3 2 21 2 0.10297487D+00 0.14343104D+00 0.41599371D+06 0.41599371D+06 0.41599371D+06 0.10742023D+01  1  2  4  4  6  5        2 -.667588884755D-02 0.100000000000D+01
-.661922497173D-02 0.000000000000D+00 0.000000000000D+00 0.266148479868D-05 0.000000000000D+00  6 1 4 25 3 2 21 2 0.10297487D+00 0.14343104D+00 0.41599371D+06 0.41599371D+06 0.41599371D+06 0.10742023D+01  1  2  5  4  6  5        2 -.285281400216D-02 0.100000000000D+01
0.736354641067D-02 0.000000000000D+00 -.000000000000D+00 0.266148479868D-05 0.000000000000D+00  6 1 4 25 3 2 21 2 0.10297487D+00 0.14343104D+00 0.41599371D+06 0.41599371D+06 0.41599371D+06 0.10742023D+01  1  2  6  4  6  5        2 0.317360845048D-02 0.100000000000D+01
0.131557629634D-01 0.000000000000D+00 0.000000000000D+00 0.266148479868D-05 0.304861354705D-04  6 1 4 25 3 2 21 2 0.10297487D+00 0.14343104D+00 0.41600647D+06 0.41600647D+06 0.41600647D+06 0.10742014D+01  1  2 11  4  6  5        2 0.566997538588D-02 0.100000000000D+01
  </mgrwgt>
  </event>
  <event>
  5     66 0.19826370E-05 0.70601585E+02 0.75467711E-02 0.83932594E-01
        1 -1    0    0  502    0 0.00000000E+00 0.00000000E+00 0.23531073E+04 0.23531073E+04 0.32000000E+00 0.0000E+00 0.9000E+01
        4 -1    0    0  501    0 0.00000000E+00 0.00000000E+00 -.19638829E+03 0.19639441E+03 0.15500000E+01 0.0000E+00 0.9000E+01
       25  1    1    2    0    0 0.32949096E+03 0.32443923E+03 0.72245129E+03 0.86682522E+03 0.12500000E+03 0.0000E+00 0.9000E+01
        3  1    1    2  501    0 -.51804165E+02 -.47954180E+02 -.86834991E+02 0.11190997E+03 0.50000000E+00 0.0000E+00 0.9000E+01
        2  1    1    2  502    0 -.27768680E+03 -.27648505E+03 0.15211027E+04 0.15707665E+04 0.32000000E+00 0.0000E+00 0.9000E+01
#aMCatNLO 1  0  0  2  4 0.26730409D+03 0.00000000D+00  -5  6  0 0.00000000D+00 0.00000000D+00 0.00000000D+00 0.00000000D+00 0.00000000D+00
  <mgrwgt>
 0.1438200386D-02    5    2    0
 0.679801838029703D+03 0.000000000000000D+00 0.000000000000000D+00 0.679801838029703D+03
 0.679801838029703D+03 0.000000000000000D+00 0.000000000000000D+00 -.679801838029703D+03
 0.479424012326790D+03 0.329481715401852D+03 0.324429607308079D+03 -.202388911083880D+02
 0.347642899633889D+03 -.518109373788507D+02 -.479605106968978D+02 -.340398298831642D+03
 0.532536764098727D+03 -.277670778023001D+03 -.276469096611181D+03 0.360637189940030D+03
 0.000000000000000D+00 -.000000000000000D+00 0.000000000000000D+00 -.000000000000000D+00
 0.160572690315150D+04 0.000000000000000D+00 0.000000000000000D+00 0.160572690315150D+04
 0.160862504418651D+04 0.000000000000000D+00 0.000000000000000D+00 -.160862504418651D+04
 0.948883655604467D+03 0.904687125550600D+03 0.256684210700605D+03 -.202388911083880D+02
 0.439970588695120D+03 0.265375303208340D+03 -.853174396963243D+02 -.340398298831642D+03
 0.505862388733690D+03 0.140511399398334D+03 -.325720923808459D+03 0.360637189940030D+03
 0.131963531430474D+04 -.131057382815727D+04 0.154354152804178D+03 -.289814103500836D+01
0.256355366279D-02 0.000000000000D+00 0.000000000000D+00 0.847331591682D-05 0.000000000000D+00  6 1 4 25 3 2 21 0 0.36201698D+00 0.30214055D-01 0.22157506D+06 0.22157506D+06 0.22157506D+06 0.10944246D+01  1  2  2  2  6  2        4 0.293112005234D-02 0.100000000000D+01
0.584206863797D-03 0.000000000000D+00 -.984472106431D-05 0.847331591682D-05 0.000000000000D+00  6 1 4 25 3 2 21 2 0.36201698D+00 0.30214055D-01 0.22157506D+06 0.22157506D+06 0.22157506D+06 0.10944246D+01  1  2  3  2  6  2        4 0.800072908375D-03 0.100000000000D+01
-.172146857931D-02 0.000000000000D+00 0.000000000000D+00 0.847331591682D-05 0.000000000000D+00  6 1 4 25 3 2 21 2 0.36201698D+00 0.30214055D-01 0.22157506D+06 0.22157506D+06 0.22157506D+06 0.10944246D+01  1  2 15  2  6  2        4 -.235755595882D-02 0.100000000000D+01
0.122391002063D-01 0.000000000000D+00 -.343484393003D-02 0.847331591682D-05 0.000000000000D+00  6 1 4 25 3 2 21 2 0.36201698D+00 0.36013018D+00 0.22157506D+06 0.22157506D+06 0.22157506D+06 0.10944246D+01  1  2  5  2  6  2        4 0.588785991521D-05 0.100000000000D+01
0.288712232683D-02 0.000000000000D+00 -.991634020592D-03 0.847331591682D-05 0.000000000000D+00  6 1 21 25 3 2 -4 2 0.36201698D+00 0.36013018D+00 0.22157506D+06 0.22157506D+06 0.22157506D+06 0.10944246D+01  1  2  5  6  6  2        4 0.586755242369D-04 0.100000000000D+01
  </mgrwgt>
  </event>
  <event>
  6     66 0.19826370E-05 0.19494812E+03 0.75467711E-02 0.93281368E-01
        1 -1    0    0  502    0 0.00000000E+00 0.00000000E+00 0.16453900E+04 0.16453900E+04 0.32000000E+00 0.0000E+00 0.9000E+01
       21 -1    0    0  501  503 0.00000000E+00 0.00000000E+00 -.40772585E+03 0.40772654E+03 0.75000000E+00 0.0000E+00 0.9000E+01
       25  1    1    2    0    0 0.50181032E+03 0.18462409E+03 0.30429405E+03 0.62778939E+03 0.12500000E+03 0.0000E+00 0.9000E+01
        3  1    1    2  501    0 -.22329993E+03 0.27044439E+02 0.12017947E+03 0.25502473E+03 0.50000000E+00 0.0000E+00 0.9000E+01
        2  1    1    2  502    0 -.25718341E+02 -.41874363E+02 0.86069183E+03 0.86209362E+03 0.32000000E+00 0.0000E+00 0.9000E+01
       -4  1    1    2    0  503 -.25279205E+03 -.16979417E+03 -.47501238E+02 0.30820878E+03 0.15500000E+01 0.0000E+00 0.9000E+01
#aMCatNLO 2  0  0  2  4 0.26730409D+03 0.00000000D+00  -5  6  0 0.00000000D+00 0.00000000D+00 0.00000000D+00 0.00000000D+00 0.00000000D+00
  <mgrwgt>
 0.4318982199D-02    1    2    0
 0.570157696504150D+03 0.000000000000000D+00 0.000000000000000D+00 0.570157696504150D+03
 0.570157696504150D+03 0.000000000000000D+00 0.000000000000000D+00 -.570157696504150D+03
 0.478965858509828D+03 0.384679488490703D+03 0.105913214756482D+03 -.233639413825097D+03
 0.300341511447234D+03 -.282901965976492D+03 -.129572043695429D+02 -.100018058369332D+03
 0.361008023051238D+03 -.101777522514211D+03 -.929560103869389D+02 0.333657472194429D+03
 0.000000000000000D+00 -.000000000000000D+00 -.000000000000000D+00 -.000000000000000D+00
 0.640912747618742D+03 0.000000000000000D+00 0.000000000000000D+00 0.640912747618742D+03
 0.104673596734089D+04 0.000000000000000D+00 0.000000000000000D+00 -.104673596734089D+04
 0.596799453938230D+03 0.501867219171082D+03 0.184625314759163D+03 -.233639413825097D+03
 0.246221932998804D+03 -.223362465133388D+03 0.270340056083525D+02 -.100018058369332D+03
 0.337255307987067D+03 -.257127022092223D+02 -.418651520882835D+02 0.333657472194429D+03
 0.507372020035535D+03 -.252792051828472D+03 -.169794168279232D+03 -.405823219722152D+03
0.263325234861D-03 0.000000000000D+00 0.000000000000D+00 0.466831230495D-06 0.449780735101D-10  6 1 21 25 3 2 -4 2 0.25313653D+00 0.62727000D-01 0.31798924D+06 0.31798924D+06 0.31798924D+06 0.10826857D+01  1  2  1  6  6  2        4 0.431898219916D-02 0.100000000000D+01
  </mgrwgt>
  </event>
  <event>
  5     66 0.19826370E-05 0.19111328E+03 0.75467711E-02 0.86170778E-01
        1 -1    0    0  502    0 0.00000000E+00 0.00000000E+00 0.18474500E+04 0.18474501E+04 0.32000000E+00 0.0000E+00 0.9000E+01
        4 -1    0    0  501    0 0.00000000E+00 0.00000000E+00 -.14050294E+04 0.14050302E+04 0.15500000E+01 0.0000E+00 0.9000E+01
       25  1    1    2    0    0 -.10043401E+04 0.11524935E+03 -.28384625E+03 0.10574380E+04 0.12500000E+03 0.0000E+00 0.9000E+01
        3  1    1    2  501    0 0.91152287E+03 0.51832875E+02 -.43980850E+03 0.10134063E+04 0.50000000E+00 0.0000E+00 0.9000E+01
        2  1    1    2  502    0 0.92817243E+02 -.16708223E+03 0.11660754E+04 0.11816360E+04 0.32000000E+00 0.0000E+00 0.9000E+01
#aMCatNLO 1  0  0  1  1 0.14004729D+03 0.00000000D+00  -5  6  0 0.00000000D+00 0.00000000D+00 0.00000000D+00 0.00000000D+00 0.00000000D+00
  <mgrwgt>
 0.9775537277D-05    7    2    0
 0.161112475935626D+04 0.000000000000000D+00 0.000000000000000D+00 0.161112475935626D+04
 0.161112475935626D+04 0.000000000000000D+00 0.000000000000000D+00 -.161112475935626D+04
 0.110637410251186D+04 -.100441953525096D+04 0.115241539599207D+03 -.431624187767542D+03
 0.108335990491855D+04 0.911611470040886D+03 0.518241680894376D+02 -.583050140962906D+03
 0.103251551128210D+04 0.928080652100709D+02 -.167065707688645D+03 0.101467432873045D+04
 0.000000000000000D+00 -.000000000000000D+00 -.000000000000000D+00 0.000000000000000D+00
 0.179832254599154D+04 0.000000000000000D+00 0.000000000000000D+00 0.179832254599154D+04
 0.163905351867060D+04 0.000000000000000D+00 0.000000000000000D+00 -.163905351867060D+04
 0.107391305555302D+04 -.965051347230302D+03 0.141565209815838D+03 -.431624187767542D+03
 0.111857106596511D+04 0.951370467909400D+03 0.784091546142272D+02 -.583050140962906D+03
 0.103280736980882D+04 0.130100409571862D+03 -.142130057257647D+03 0.101467432873045D+04
 0.212084573335189D+03 -.116419530250960D+03 -.778443071724174D+02 0.159269027320948D+03
0.210436204946D-03 0.000000000000D+00 0.000000000000D+00 0.397825519954D-06 0.000000000000D+00  6 1 4 25 3 2 21 0 0.28422315D+00 0.21615843D+00 0.11266801D+07 0.11266801D+07 0.11266801D+07 0.10444331D+01  1  2  2  1  6  1        1 0.226993320418D-05 0.100000000000D+01
0.448258334745D-04 0.000000000000D+00 -.808130436119D-06 0.397825519954D-06 0.000000000000D+00  6 1 4 25 3 2 21 2 0.28422315D+00 0.21615843D+00 0.11266801D+07 0.11266801D+07 0.11266801D+07 0.10444331D+01  1  2  3  1  6  1        1 0.527451121956D-06 0.100000000000D+01
-.150617342044D-03 0.000000000000D+00 0.000000000000D+00 0.397825519954D-06 0.000000000000D+00  6 1 4 25 3 2 21 2 0.28422315D+00 0.21615843D+00 0.11266801D+07 0.11266801D+07 0.11266801D+07 0.10444331D+01  1  2 15  1  6  1        1 -.177226567560D-05 0.100000000000D+01
-.485824637864D-04 0.000000000000D+00 0.000000000000D+00 0.397825519954D-06 0.000000000000D+00  6 1 4 25 3 2 21 2 0.28422315D+00 0.21615843D+00 0.11266801D+07 0.11266801D+07 0.11266801D+07 0.10444331D+01  1  2  4  1  6  1        1 -.571654178970D-06 0.100000000000D+01
-.259442801733D-02 0.000000000000D+00 -.400810974218D-03 0.397825519954D-06 0.000000000000D+00  6 1 4 25 3 2 21 2 0.31925587D+00 0.21615843D+00 0.11266801D+07 0.11266801D+07 0.11266801D+07 0.10444331D+01  1  2  5  1  6  1        1 -.214062632934D-04 0.100000000000D+01
0.262594943967D-02 0.000000000000D+00 0.398118621699D-03 0.397825519954D-06 0.000000000000D+00  6 1 4 25 3 2 21 2 0.28422315D+00 0.21615843D+00 0.11266801D+07 0.11266801D+07 0.11266801D+07 0.10444331D+01  1  2  6  1  6  1        1 0.308986999414D-04 0.100000000000D+01
-.461723651816D-04 0.000000000000D+00 -.740316968436D-05 0.397825519954D-06 0.000000000000D+00  6 21 4 25 3 2 -1 2 0.31925587D+00 0.21615843D+00 0.11266801D+07 0.11266801D+07 0.11266801D+07 0.10444331D+01  1  2  5  5  6  1        1 -.170363842642D-06 0.100000000000D+01
  </mgrwgt>
  </event>
  <event>
  6     66 -.19826370E-05 0.10717431E+03 0.75467711E-02 0.93857884E-01
        1 -1    0    0  502    0 0.00000000E+00 0.00000000E+00 0.10295439E+04 0.10295440E+04 0.32000000E+00 0.0000E+00 0.9000E+01
        4 -1    0    0  501    0 0.00000000E+00 0.00000000E+00 -.87734518E+03 0.87734655E+03 0.15500000E+01 0.0000E+00 0.9000E+01
       25  1    1    2    0    0 -.46989456E+03 -.24079776E+03 -.55016482E+02 0.54537718E+03 0.12500000E+03 0.0000E+00 0.9000E+01
        3  1    1    2  503    0 0.31183821E+03 0.16060779E+03 -.43380150E+03 0.55787267E+03 0.50000000E+00 0.0000E+00 0.9000E+01
        2  1    1    2  502    0 0.10052250E+03 0.51003575E+02 0.70430236E+03 0.71326577E+03 0.32000000E+00 0.0000E+00 0.9000E+01
       21  1    1    2  501  503 0.57533844E+02 0.29186399E+02 -.63285640E+02 0.90374907E+02 0.75000000E+00 0.0000E+00 0.9000E+01
#aMCatNLO 2  0  0  4  2 0.89363188D+01 0.00000000D+00  -5  6  0 0.00000000D+00 0.00000000D+00 0.00000000D+00 0.00000000D+00 0.00000000D+00
  <mgrwgt>
 -.1026720559D-02    2    2    0
 0.950403472128865D+03 0.000000000000000D+00 0.000000000000000D+00 0.950403472128865D+03
 0.950403472128865D+03 -.000000000000000D+00 -.000000000000000D+00 -.950403472128865D+03
 0.551606624175459D+03 -.469993543335376D+03 -.240848640484281D+03 -.987059746630246D+02
 0.689969985080392D+03 0.369567287168387D+03 0.189894481750009D+03 -.550834536288105D+03
 0.659230335001879D+03 0.100426256166989D+03 0.509541587342725D+02 0.649540510951129D+03
 0.000000000000000D+00 0.000000000000000D+00 0.000000000000000D+00 0.000000000000000D+00
 0.950403472128865D+03 0.000000000000000D+00 0.000000000000000D+00 0.950403472128865D+03
 0.950403472128865D+03 -.000000000000000D+00 -.000000000000000D+00 -.950403472128865D+03
 0.551545463986452D+03 -.469917989674442D+03 -.240809818803398D+03 -.988185862691670D+02
 0.594614466040197D+03 0.311961939675144D+03 0.160671919700717D+03 -.480031921478225D+03
 0.659115086679551D+03 0.100516548180260D+03 0.510005534116739D+02 0.649405932050378D+03
 0.955319275515306D+02 0.574395018190375D+02 0.291373456910070D+02 -.705554243029863D+02
-.166513355382D-01 0.000000000000D+00 0.000000000000D+00 0.152918317855D-04 0.000000000000D+00  6 1 4 25 3 2 21 2 0.15839148D+00 0.13497629D+00 0.28657271D+06 0.28657271D+06 0.28657271D+06 0.10860262D+01  1  2 13  3  6  4        3 -.445865351775D-02 0.100000000000D+01
0.128169338610D-01 0.000000000000D+00 0.000000000000D+00 0.152918317855D-04 0.690966455328D-06  6 1 4 25 3 2 21 2 0.15839148D+00 0.13497629D+00 0.28657271D+06 0.28657271D+06 0.28657271D+06 0.10860262D+01  1  2  1  3  6  4        3 0.343193295905D-02 0.100000000000D+01
  </mgrwgt>
  </event>
  <event>
  5     66 0.19826370E-05 0.12491646E+02 0.75467711E-02 0.93696662E-01
        1 -1    0    0  502    0 0.00000000E+00 0.00000000E+00 0.19866194E+04 0.19866194E+04 0.32000000E+00 0.0000E+00 0.9000E+01
        4 -1    0    0  501    0 0.00000000E+00 0.00000000E+00 -.21300659E+03 0.21301223E+03 0.15500000E+01 0.0000E+00 0.9000E+01
       25  1    1    2    0    0 -.44168842E+03 0.20004271E+03 0.10209436E+04 0.11371265E+04 0.12500000E+03 0.0000E+00 0.9000E+01
        3  1    1    2  501    0 0.44865463E+03 -.21043171E+03 0.24164930E+03 0.55133213E+03 0.50000000E+00 0.0000E+00 0.9000E+01
        2  1    1    2  502    0 -.69662144E+01 0.10388997E+02 0.51101989E+03 0.51117305E+03 0.32000000E+00 0.0000E+00 0.9000E+01
#aMCatNLO 1  0  0  1  1 0.14004729D+03 0.00000000D+00  -5  6  0 0.00000000D+00 0.00000000D+00 0.00000000D+00 0.00000000D+00 0.00000000D+00
  <mgrwgt>
 0.1559826492D-02    7    2    0
 0.650514611107497D+03 0.000000000000000D+00 0.000000000000000D+00 0.650514611107497D+03
 0.650514611107497D+03 0.000000000000000D+00 0.000000000000000D+00 -.650514611107497D+03
 0.530903125833956D+03 -.441801726284994D+03 0.200102376583785D+03 0.176077830965131D+03
 0.602759341534555D+03 0.448758625267543D+03 -.210477480633157D+03 -.342977769252578D+03
 0.167366754846481D+03 -.695689898254867D+01 0.103751040493714D+02 0.166899938287447D+03
 0.000000000000000D+00 0.000000000000000D+00 -.000000000000000D+00 0.000000000000000D+00
 0.741484160000242D+03 0.000000000000000D+00 0.000000000000000D+00 0.741484160000242D+03
 0.666090505981494D+03 0.000000000000000D+00 0.000000000000000D+00 -.666090505981494D+03
 0.558532010551986D+03 -.470666847352211D+03 0.209290045289756D+03 0.176077830965131D+03
 0.576340689776301D+03 0.417517788601440D+03 -.200533629827296D+03 -.342977769252578D+03
 0.168169817755882D+03 -.158471059046201D+02 0.132048263199733D+02 0.166899938287447D+03
 0.104532147897567D+03 0.689961646553910D+02 -.219612417824334D+02 0.753936540187474D+02
0.183974936334D-03 0.000000000000D+00 0.000000000000D+00 0.116980962388D-04 0.000000000000D+00  6 1 4 25 3 2 21 0 0.30563419D+00 0.32770681D-01 0.25452627D+06 0.25452627D+06 0.25452627D+06 0.10898734D+01  1  2  2  1  6  1        1 0.312803344174D-03 0.100000000000D+01
0.120653141001D-03 0.000000000000D+00 -.706512197236D-06 0.116980962388D-04 0.000000000000D+00  6 1 4 25 3 2 21 2 0.30563419D+00 0.32770681D-01 0.25452627D+06 0.25452627D+06 0.25452627D+06 0.10898734D+01  1  2  3  1  6  1        1 0.243670766956D-03 0.100000000000D+01
-.141822557591D-03 0.000000000000D+00 0.000000000000D+00 0.116980962388D-04 0.000000000000D+00  6 1 4 25 3 2 21 2 0.30563419D+00 0.32770681D-01 0.25452627D+06 0.25452627D+06 0.25452627D+06 0.10898734D+01  1  2 15  1  6  1        1 -.286424465149D-03 0.100000000000D+01
-.127838211934D-04 0.000000000000D+00 0.000000000000D+00 0.116980962388D-04 0.000000000000D+00  6 1 4 25 3 2 21 2 0.30563419D+00 0.32770681D-01 0.25452627D+06 0.25452627D+06 0.25452627D+06 0.10898734D+01  1  2  4  1  6  1        1 -.258181717357D-04 0.100000000000D+01
-.172909249707D-02 0.000000000000D+00 -.287947734864D-03 0.116980962388D-04 0.000000000000D+00  6 1 4 25 3 2 21 2 0.35127124D+00 0.32770681D-01 0.25452627D+06 0.25452627D+06 0.25452627D+06 0.10898734D+01  1  2  5  1  6  1        1 -.221025911226D-02 0.100000000000D+01
0.175491011167D-02 0.000000000000D+00 0.285181545096D-03 0.116980962388D-04 0.000000000000D+00  6 1 4 25 3 2 21 2 0.30563419D+00 0.32770681D-01 0.25452627D+06 0.25452627D+06 0.25452627D+06 0.10898734D+01  1  2  6  1  6  1        1 0.354421185642D-02 0.100000000000D+01
-.353597562760D-04 0.000000000000D+00 -.617922110709D-05 0.116980962388D-04 0.000000000000D+00  6 21 4 25 3 2 -1 2 0.35127124D+00 0.32770681D-01 0.25452627D+06 0.25452627D+06 0.25452627D+06 0.10898734D+01  1  2  5  5  6  1        1 -.183577260518D-04 0.100000000000D+01
  </mgrwgt>
  </event>
  <event>
  5     66 -.19826370E-05 0.22582735E+03 0.75467711E-02 0.94318382E-01
        1 -1    0    0  502    0 0.00000000E+00 0.00000000E+00 0.51518294E+03 0.51518304E+03 0.32000000E+00 0.0000E+00 0.9000E+01
        4 -1    0    0  501    0 -.00000000E+00 -.00000000E+00 -.12229834E+04 0.12229844E+04 0.15500000E+01 0.0000E+00 0.9000E+01
       25  1    1    2    0    0 0.11272802E+03 0.45576832E+03 -.44103048E+03 0.65617471E+03 0.12500000E+03 0.0000E+00 0.9000E+01
        3  1    1    2  501    0 -.18977880E+03 -.20419315E+03 -.59752352E+03 0.65935229E+03 0.50000000E+00 0.0000E+00 0.9000E+01
        2  1    1    2  502    0 0.77050788E+02 -.25157517E+03 0.33075356E+03 0.42264040E+03 0.32000000E+00 0.0000E+00 0.9000E+01
#aMCatNLO 1  0  0  4  2 0.19598587D+02 0.00000000D+00  -5  6  0 0.00000000D+00 0.00000000D+00 0.00000000D+00 0.00000000D+00 0.00000000D+00
  <mgrwgt>
 -.1886536796D-02    7    2    0
 0.793763892925810D+03 0.000000000000000D+00 0.000000000000000D+00 0.793763892925810D+03
 0.793763892925810D+03 -.000000000000000D+00 -.000000000000000D+00 -.793763892925810D+03
 0.521802715232750D+03 0.112753100479094D+03 0.455786148082984D+03 -.190259820173093D+03
 0.455555828371127D+03 -.189798596359080D+03 -.204228255532687D+03 -.360275485184744D+03
 0.610169242247744D+03 0.770454958799859D+02 -.251557892550297D+03 0.550535305357837D+03
 0.000000000000000D+00 0.000000000000000D+00 0.000000000000000D+00 -.000000000000000D+00
 0.793763892925810D+03 0.000000000000000D+00 0.000000000000000D+00 0.793763892925810D+03
 0.793763892925810D+03 -.000000000000000D+00 -.000000000000000D+00 -.793763892925810D+03
 0.521579850287671D+03 0.112269960899306D+03 0.455266277254370D+03 -.191176915187804D+03
 0.391755880672825D+03 -.166609544226390D+03 -.191292442578827D+03 -.298531625170000D+03
 0.609382276061362D+03 0.764807810500125D+02 -.252165540482428D+03 0.549463364293664D+03
 0.648097788297620D+02 -.221411977229287D+02 -.118082941931159D+02 -.597548239358604D+02
0.169491716579D-03 0.000000000000D+00 0.000000000000D+00 0.109373611640D-05 0.000000000000D+00  6 1 4 25 3 2 21 0 0.79258997D-01 0.18815137D+00 0.26408174D+06 0.26408174D+06 0.26408174D+06 0.10886733D+01  1  2  2  3  6  4        3 0.370869977395D-04 0.100000000000D+01
0.104372384917D-04 0.000000000000D+00 -.650892819857D-06 0.109373611640D-05 0.000000000000D+00  6 1 4 25 3 2 21 2 0.79258997D-01 0.18815137D+00 0.26408174D+06 0.26408174D+06 0.26408174D+06 0.10886733D+01  1  2  3  3  6  4        3 0.270678603007D-05 0.100000000000D+01
-.110733466677D-03 0.000000000000D+00 0.000000000000D+00 0.109373611640D-05 0.000000000000D+00  6 1 4 25 3 2 21 2 0.79258997D-01 0.18815137D+00 0.26408174D+06 0.26408174D+06 0.26408174D+06 0.10886733D+01  1  2 15  3  6  4        3 -.287175387341D-04 0.100000000000D+01
0.461793794679D-02 0.000000000000D+00 0.000000000000D+00 0.109373611640D-05 0.000000000000D+00  6 1 4 25 3 2 21 2 0.79258997D-01 0.18815137D+00 0.26396890D+06 0.26396890D+06 0.26396890D+06 0.10886872D+01  1  2 12  3  6  4        3 0.119766000239D-02 0.100000000000D+01
-.127024045542D-01 0.000000000000D+00 0.000000000000D+00 0.109373611640D-05 0.000000000000D+00  6 1 4 25 3 2 21 2 0.79258997D-01 0.18815137D+00 0.26408174D+06 0.26408174D+06 0.26408174D+06 0.10886733D+01  1  2  4  3  6  4        3 -.329423259063D-02 0.100000000000D+01
-.503837758299D-02 0.000000000000D+00 0.000000000000D+00 0.109373611640D-05 0.000000000000D+00  6 1 4 25 3 2 21 2 0.79258997D-01 0.18815137D+00 0.26408174D+06 0.26408174D+06 0.26408174D+06 0.10886733D+01  1  2  5  3  6  4        3 -.130664926999D-02 0.100000000000D+01
0.580555615427D-02 0.000000000000D+00 -.000000000000D+00 0.109373611640D-05 0.000000000000D+00  6 1 4 25 3 2 21 2 0.79258997D-01 0.18815137D+00 0.26408174D+06 0.26408174D+06 0.26408174D+06 0.10886733D+01  1  2  6  3  6  4        3 0.150560881671D-02 0.100000000000D+01
  </mgrwgt>
  </event>
  <event>
  5     66 0.19826370E-05 0.47124816E+02 0.75467711E-02 0.90382273E-01
        1 -1    0    0  502    0 0.00000000E+00 0.00000000E+00 0.13251034E+04 0.13251035E+04 0.32000000E+00 0.0000E+00 0.9000E+01
        4 -1    0    0  501    0 0.00000000E+00 0.00000000E+00 -.55607314E+03 0.55607530E+03 0.15500000E+01 0.0000E+00 0.9000E+01
       25  1    1    2    0    0 -.14525043E+03 -.69346155E+03 0.37310546E+03 0.81044389E+03 0.12500000E+03 0.0000E+00 0.9000E+01
        3  1    1    2  501    0 -.21479830E+02 0.41939779E+02 -.17953544E+03 0.18561668E+03 0.50000000E+00 0.0000E+00 0.9000E+01
        2  1    1    2  502    0 0.16673026E+03 0.65152177E+03 0.57546026E+03 0.88511819E+03 0.32000000E+00 0.0000E+00 0.9000E+01
#aMCatNLO 1  0  0  1  5 0.47088059D+02 0.00000000D+00  -5  6  0 0.00000000D+00 0.00000000D+00 0.00000000D+00 0.00000000D+00 0.00000000D+00
  <mgrwgt>
 0.5352683349D-03    9    2    0
 0.858403450458238D+03 0.000000000000000D+00 0.000000000000000D+00 0.858403450458238D+03
 0.858403450458238D+03 0.000000000000000D+00 0.000000000000000D+00 -.858403450458238D+03
 0.720893879244113D+03 -.145243510982662D+03 -.693444993504550D+03 0.458404693751066D+02
 0.283846847155960D+03 -.214814367306674D+02 0.419439647236823D+02 -.279907635372141D+03
 0.712066174516403D+03 0.166724947713329D+03 0.651501028780868D+03 0.234067165997035D+03
 0.000000000000000D+00 -.000000000000000D+00 0.000000000000000D+00 0.000000000000000D+00
 0.895658410380230D+03 0.000000000000000D+00 0.000000000000000D+00 0.895658410380230D+03
 0.873735453683548D+03 0.000000000000000D+00 0.000000000000000D+00 -.873735453683548D+03
 0.740183390661773D+03 -.145237515063149D+03 -.713478217885669D+03 0.458404693751066D+02
 0.282802990391915D+03 -.214791113322180D+02 0.341744760217929D+02 -.279907635372141D+03
 0.694466156967431D+03 0.166730719793168D+03 0.632215684756778D+03 0.234067165997035D+03
 0.519413260426593D+02 -.140933978009213D-01 0.470880571070985D+02 0.219229566966823D+02
0.149549314023D-03 0.000000000000D+00 0.000000000000D+00 0.150808179979D-05 0.000000000000D+00  6 1 4 25 3 2 21 0 0.20386223D+00 0.85549883D-01 0.51772033D+06 0.51772033D+06 0.51772033D+06 0.10674431D+01  1  2  2  1  6  1        1 0.752127094687D-04 0.100000000000D+01
0.543687032034D-04 0.000000000000D+00 -.574308743088D-06 0.150808179979D-05 0.000000000000D+00  6 1 4 25 3 2 21 2 0.20386223D+00 0.85549883D-01 0.51772033D+06 0.51772033D+06 0.51772033D+06 0.10674431D+01  1  2  3  1  6  1        1 0.311562532039D-04 0.100000000000D+01
-.105286162762D-03 0.000000000000D+00 0.000000000000D+00 0.150808179979D-05 0.000000000000D+00  6 1 4 25 3 2 21 2 0.20386223D+00 0.85549883D-01 0.51772033D+06 0.51772033D+06 0.51772033D+06 0.10674431D+01  1  2 15  1  6  1        1 -.603347542355D-04 0.100000000000D+01
0.607565119659D-03 0.000000000000D+00 0.000000000000D+00 0.150808179979D-05 0.000000000000D+00  6 1 4 25 3 2 21 2 0.21911147D+00 0.85549883D-01 0.54763417D+06 0.54763417D+06 0.54763417D+06 0.10657285D+01  1  2 12  1  6  1        1 0.295810114640D-03 0.100000000000D+01
-.147586860085D-03 0.000000000000D+00 0.000000000000D+00 0.150808179979D-05 0.000000000000D+00  6 1 4 25 3 2 21 2 0.20386223D+00 0.85549883D-01 0.51772033D+06 0.51772033D+06 0.51772033D+06 0.10674431D+01  1  2  4  1  6  1        1 -.845753772197D-04 0.100000000000D+01
-.445824677233D-02 0.000000000000D+00 -.679842889124D-03 0.150808179979D-05 0.000000000000D+00  6 1 4 25 3 2 21 2 0.21478702D+00 0.85549883D-01 0.51772033D+06 0.51772033D+06 0.51772033D+06 0.10674431D+01  1  2  5  1  6  1        1 -.228155676007D-02 0.100000000000D+01
0.448854428086D-02 0.000000000000D+00 0.678917619654D-03 0.150808179979D-05 0.000000000000D+00  6 1 4 25 3 2 21 2 0.20386223D+00 0.85549883D-01 0.51772033D+06 0.51772033D+06 0.51772033D+06 0.10674431D+01  1  2  6  1  6  1        1 0.257218241179D-02 0.100000000000D+01
0.111486193229D-04 0.000000000000D+00 0.000000000000D+00 0.150808179979D-05 0.000000000000D+00  6 21 4 25 3 2 -1 2 0.21911147D+00 0.85549883D-01 0.54763417D+06 0.54763417D+06 0.54763417D+06 0.10657285D+01  1  2 12  5  6  1        1 0.441010596835D-05 0.100000000000D+01
-.397657021199D-04 0.000000000000D+00 -.616307505800D-05 0.150808179979D-05 0.000000000000D+00  6 21 4 25 3 2 -1 2 0.21478702D+00 0.85549883D-01 0.51772033D+06 0.51772033D+06 0.51772033D+06 0.10674431D+01  1  2  5  5  6  1        1 -.170363686359D-04 0.100000000000D+01
  </mgrwgt>
  </event>
  <event>
  5     66 0.19826370E-05 0.56971998E+02 0.75467711E-02 0.90910205E-01
        1 -1    0    0  502    0 0.00000000E+00 0.00000000E+00 0.80238301E+03 0.80238307E+03 0.32000000E+00 0.0000E+00 0.9000E+01
        4 -1    0    0  501    0 -.00000000E+00 -.00000000E+00 -.13265840E+04 0.13265849E+04 0.15500000E+01 0.0000E+00 0.9000E+01
       25  1    1    2    0    0 -.35921441E+02 -.65534665E+03 -.30996726E+03 0.73652853E+03 0.12500000E+03 0.0000E+00 0.9000E+01
        3  1    1    2  501    0 -.14340799E+02 0.68219686E+03 -.65628176E+03 0.94673345E+03 0.50000000E+00 0.0000E+00 0.9000E+01
        2  1    1    2  502    0 0.50262240E+02 -.26850214E+02 0.44204805E+03 0.44570597E+03 0.32000000E+00 0.0000E+00 0.9000E+01
#aMCatNLO 1  0  0  4  2 0.19463250D+02 0.00000000D+00  -5  6  0 0.00000000D+00 0.00000000D+00 0.00000000D+00 0.00000000D+00 0.00000000D+00
  <mgrwgt>
 0.1477968987D-03    7    2    0
 0.103171191111332D+04 0.000000000000000D+00 0.000000000000000D+00 0.103171191111332D+04
 0.103171191111332D+04 -.000000000000000D+00 -.000000000000000D+00 -.103171191111332D+04
 0.681257911535089D+03 -.359157019777004D+02 -.655443076257678D+03 -.132634000793431D+03
 0.810127482348530D+03 -.143355611137059D+02 0.682287425934647D+03 -.436560302541810D+03
 0.572038428343019D+03 0.502512630914063D+02 -.268443496769694D+02 0.569194303335241D+03
 0.000000000000000D+00 0.000000000000000D+00 0.000000000000000D+00 0.000000000000000D+00
 0.103171191111332D+04 0.000000000000000D+00 0.000000000000000D+00 0.103171191111332D+04
 0.103171191111332D+04 -.000000000000000D+00 -.000000000000000D+00 -.103171191111332D+04
 0.680964901957046D+03 -.359230639764281D+02 -.655092688915195D+03 -.132858195463341D+03
 0.610724638041022D+03 -.182865776178882D+02 0.504295005044389D+03 -.344001064644635D+03
 0.571836826189101D+03 0.502450811305075D+02 -.265501251150270D+02 0.569006044312878D+03
 0.199897456039469D+03 0.396456046380883D+01 0.177347808985832D+03 -.921467842049026D+02
0.560096657288D-04 0.000000000000D+00 0.000000000000D+00 0.850299545687D-05 0.000000000000D+00  6 1 4 25 3 2 21 0 0.12344361D+00 0.20408992D+00 0.49535693D+06 0.49535693D+06 0.49535693D+06 0.10687969D+01  1  2  2  3  6  4        3 0.453282411228D-05 0.100000000000D+01
0.236869929390D-04 0.000000000000D+00 -.215091864082D-06 0.850299545687D-05 0.000000000000D+00  6 1 4 25 3 2 21 2 0.12344361D+00 0.20408992D+00 0.49535693D+06 0.49535693D+06 0.49535693D+06 0.10687969D+01  1  2  3  3  6  4        3 0.218980863605D-05 0.100000000000D+01
-.411006032249D-04 0.000000000000D+00 0.000000000000D+00 0.850299545687D-05 0.000000000000D+00  6 1 4 25 3 2 21 2 0.12344361D+00 0.20408992D+00 0.49535693D+06 0.49535693D+06 0.49535693D+06 0.10687969D+01  1  2 15  3  6  4        3 -.379965731067D-05 0.100000000000D+01
0.661812871542D-02 0.000000000000D+00 0.000000000000D+00 0.850299545687D-05 0.000000000000D+00  6 1 4 25 3 2 21 2 0.12344361D+00 0.20408992D+00 0.49471931D+06 0.49471931D+06 0.49471931D+06 0.10688364D+01  1  2 12  3  6  4        3 0.611911468614D-03 0.100000000000D+01
-.688138237631D-02 0.000000000000D+00 0.000000000000D+00 0.850299545687D-05 0.000000000000D+00  6 1 4 25 3 2 21 2 0.12344361D+00 0.20408992D+00 0.49535693D+06 0.49535693D+06 0.49535693D+06 0.10687969D+01  1  2  4  3  6  4        3 -.636168153313D-03 0.100000000000D+01
-.662833398337D-02 0.000000000000D+00 0.000000000000D+00 0.850299545687D-05 0.000000000000D+00  6 1 4 25 3 2 21 2 0.12344361D+00 0.20408992D+00 0.49535693D+06 0.49535693D+06 0.49535693D+06 0.10687969D+01  1  2  5  3  6  4        3 -.612774404786D-03 0.100000000000D+01
0.845780686531D-02 0.000000000000D+00 -.000000000000D+00 0.850299545687D-05 0.000000000000D+00  6 1 4 25 3 2 21 2 0.12344361D+00 0.20408992D+00 0.49535693D+06 0.49535693D+06 0.49535693D+06 0.10687969D+01  1  2  6  3  6  4        3 0.781905012736D-03 0.100000000000D+01
  </mgrwgt>
  </event>
  <event>
  6     66 -.19826370E-05 0.36132947E+02 0.75467711E-02 0.93421949E-01
        1 -1    0    0  502    0 0.00000000E+00 0.00000000E+00 0.18934810E+04 0.18934810E+04 0.32000000E+00 0.0000E+00 0.9000E+01
        4 -1    0    0  501    0 0.00000000E+00 0.00000000E+00 -.63742599E+03 0.63742787E+03 0.15500000E+01 0.0000E+00 0.9000E+01
       25  1    1    2    0    0 0.49967186E+03 0.16081617E+03 0.69821963E+03 0.88242250E+03 0.12500000E+03 0.0000E+00 0.9000E+01
        3  1    1    2  501    0 -.12212245E+02 0.43777797E+02 -.47950731E+03 0.48165667E+03 0.50000000E+00 0.0000E+00 0.9000E+01
        2  1    1    2  503    0 -.18387688E+03 -.68576955E+02 0.46702895E+03 0.50658627E+03 0.32000000E+00 0.0000E+00 0.9000E+01
       21  1    1    2  502  503 -.30358273E+03 -.13601702E+03 0.57031374E+03 0.66024346E+03 0.75000000E+00 0.0000E+00 0.9000E+01
#aMCatNLO 2  0  0  5  1 0.38002678D+02 0.00000000D+00  -5  6  0 0.00000000D+00 0.00000000D+00 0.00000000D+00 0.00000000D+00 0.00000000D+00
  <mgrwgt>
 -.5336823061D-03    2    2    0
 0.109861568108885D+04 0.000000000000000D+00 0.000000000000000D+00 0.109861568108885D+04
 0.109861568108885D+04 -.000000000000000D+00 -.000000000000000D+00 -.109861568108885D+04
 0.617624734543717D+03 0.500197521705872D+03 0.161014040713446D+03 0.299520000488498D+03
 0.830248581842111D+03 -.112414199383377D+02 0.442080270052599D+02 -.828994564805409D+03
 0.749358045791881D+03 -.488956101767534D+03 -.205222067718706D+03 0.529474564316910D+03
 0.000000000000000D+00 0.000000000000000D+00 -.000000000000000D+00 0.000000000000000D+00
 0.109861568108885D+04 0.000000000000000D+00 0.000000000000000D+00 0.109861568108885D+04
 0.109861568108885D+04 -.000000000000000D+00 -.000000000000000D+00 -.109861568108885D+04
 0.617339374898308D+03 0.499471157118663D+03 0.160709174812466D+03 0.300306556933867D+03
 0.829185343505737D+03 -.122174434753544D+02 0.437983755709397D+02 -.827937660851952D+03
 0.316041256763899D+03 -.183571141965137D+03 -.684562327037673D+02 0.247986806138004D+03
 0.434665387009764D+03 -.303682571678171D+03 -.136051317679639D+03 0.279644297780080D+03
-.163661527640D-01 0.000000000000D+00 0.000000000000D+00 0.633182128228D-04 0.000000000000D+00  6 1 4 25 3 2 21 2 0.29130492D+00 0.98065684D-01 0.30998714D+06 0.30998714D+06 0.30998714D+06 0.10835012D+01  1  2 13  4  6  5        2 -.282767922305D-02 0.100000000000D+01
0.132772853714D-01 0.000000000000D+00 0.000000000000D+00 0.633182128228D-04 0.549128743241D-07  6 1 4 25 3 2 21 2 0.29130492D+00 0.98065684D-01 0.30998714D+06 0.30998714D+06 0.30998714D+06 0.10835012D+01  1  2  1  4  6  5        2 0.229399691695D-02 0.100000000000D+01
  </mgrwgt>
  </event>
  <event>
  5     66 0.19826370E-05 0.16832357E+03 0.75467711E-02 0.93894370E-01
        1 -1    0    0  502    0 0.00000000E+00 0.00000000E+00 0.31350641E+04 0.31350641E+04 0.32000000E+00 0.0000E+00 0.9000E+01
        4 -1    0    0  501    0 0.00000000E+00 0.00000000E+00 -.28217067E+03 0.28217493E+03 0.15500000E+01 0.0000E+00 0.9000E+01
       25  1    1    2    0    0 -.30252228E+03 0.41748826E+03 0.12995411E+04 0.14036553E+04 0.12500000E+03 0.0000E+00 0.9000E+01
        3  1    1    2  501    0 0.15677358E+03 -.33319883E+03 -.75628825E+02 0.37592470E+03 0.50000000E+00 0.0000E+00 0.9000E+01
        2  1    1    2  502    0 0.14574870E+03 -.84289429E+02 0.16289812E+04 0.16376590E+04 0.32000000E+00 0.0000E+00 0.9000E+01
#aMCatNLO 1  0  0  2  4 0.32588344D+01 0.00000000D+00  -5  6  0 0.00000000D+00 0.00000000D+00 0.00000000D+00 0.00000000D+00 0.00000000D+00
  <mgrwgt>
 0.1389667661D-03    1    2    0
 0.940547947948937D+03 0.000000000000000D+00 0.000000000000000D+00 0.940547947948937D+03
 0.940547947948937D+03 0.000000000000000D+00 0.000000000000000D+00 -.940547947948937D+03
 0.579088657804819D+03 -.302514545507706D+03 0.417520581969093D+03 0.232121061057894D+03
 0.797663612306948D+03 0.156803299616473D+03 -.333252812072484D+03 -.707546837229690D+03
 0.504343625786107D+03 0.145711245891233D+03 -.842677698966087D+02 0.475425776171795D+03
 0.000000000000000D+00 -.000000000000000D+00 -.000000000000000D+00 0.000000000000000D+00
 0.953224571546129D+03 0.000000000000000D+00 0.000000000000000D+00 0.953224571546129D+03
 0.941338045000485D+03 0.000000000000000D+00 0.000000000000000D+00 -.941338045000485D+03
 0.579393655455139D+03 -.301164904994391D+03 0.418917081287866D+03 0.232121061057894D+03
 0.797230005438184D+03 0.158661362546135D+03 -.331330238179725D+03 -.707546837229690D+03
 0.504482808170981D+03 0.146886536191817D+03 -.830516741378247D+02 0.475425776171795D+03
 0.134561474823107D+02 -.438299374356037D+01 -.453516897031666D+01 0.118865265456434D+02
0.806758622173D-03 0.000000000000D+00 0.000000000000D+00 0.532923143079D-05 0.000000000000D+00  6 1 4 25 3 2 21 2 0.48231788D+00 0.43411202D-01 0.28470476D+06 0.28470476D+06 0.28470476D+06 0.10862373D+01  1  2 14  2  6  2        4 0.138966766069D-03 0.100000000000D+01
  </mgrwgt>
  </event>
  <event>
  5     66 0.19826370E-05 0.75163263E+02 0.75467711E-02 0.93858015E-01
        1 -1    0    0  502    0 0.00000000E+00 0.00000000E+00 0.23460825E+04 0.23460825E+04 0.32000000E+00 0.0000E+00 0.9000E+01
        4 -1    0    0  501    0 0.00000000E+00 0.00000000E+00 -.44586676E+03 0.44586945E+03 0.15500000E+01 0.0000E+00 0.9000E+01
       25  1    1    2    0    0 0.19443199E+03 0.41200623E+03 0.80876715E+03 0.93663346E+03 0.12500000E+03 0.0000E+00 0.9000E+01
        3  1    1    2  501    0 -.19025118E+03 -.48706975E+03 -.20135108E+03 0.56033468E+03 0.50000000E+00 0.0000E+00 0.9000E+01
        2  1    1    2  502    0 -.41808095E+01 0.75063513E+02 0.12927996E+04 0.12949838E+04 0.32000000E+00 0.0000E+00 0.9000E+01
#aMCatNLO 1  0  0  2  4 0.20221636D+02 0.00000000D+00  -5  6  0 0.00000000D+00 0.00000000D+00 0.00000000D+00 0.00000000D+00 0.00000000D+00
  <mgrwgt>
 0.7893504824D-03    4    2    0
 0.102276290822882D+04 0.000000000000000D+00 0.000000000000000D+00 0.102276290822882D+04
 0.102276290822882D+04 0.000000000000000D+00 0.000000000000000D+00 -.102276290822882D+04
 0.527216647084484D+03 0.194457865011584D+03 0.412086166851175D+03 0.233887842326289D+03
 0.951863900343418D+03 -.190277977950452D+03 -.487133116972862D+03 -.795324149157044D+03
 0.566445269029735D+03 -.417988706113228D+01 0.750469501216866D+02 0.561436306830755D+03
 0.000000000000000D+00 0.000000000000000D+00 0.000000000000000D+00 0.000000000000000D+00
 0.140075590732815D+04 0.000000000000000D+00 0.000000000000000D+00 0.140075590732815D+04
 0.111697323979031D+04 0.000000000000000D+00 0.000000000000000D+00 -.111697323979031D+04
 0.490379288600969D+03 0.111467047430964D+03 0.397137786212505D+03 0.233887842326289D+03
 0.101068942639514D+04 -.350335520851198D+03 -.515962825428818D+03 -.795324149157044D+03
 0.572745168757268D+03 -.970874375893132D+02 0.583123586332650D+02 0.561436306830755D+03
 0.443915263365079D+03 0.335955911009547D+03 0.605126805830487D+02 0.283782667537831D+03
0.954123161993D-02 0.000000000000D+00 0.000000000000D+00 0.360198282963D-04 0.000000000000D+00  6 1 4 25 3 2 21 0 0.36093597D+00 0.68595094D-01 0.28656601D+06 0.28656601D+06 0.28656601D+06 0.10860270D+01  1  2  2  2  6  2        4 0.177967969168D-02 0.100000000000D+01
0.247340493417D-02 0.000000000000D+00 -.366408416845D-04 0.360198282963D-04 0.000000000000D+00  6 1 4 25 3 2 21 2 0.36093597D+00 0.68595094D-01 0.28656601D+06 0.28656601D+06 0.28656601D+06 0.10860270D+01  1  2  3  2  6  2        4 0.544144014168D-03 0.100000000000D+01
-.695610564767D-02 0.000000000000D+00 0.000000000000D+00 0.360198282963D-04 0.000000000000D+00  6 1 4 25 3 2 21 2 0.36093597D+00 0.68595094D-01 0.28656601D+06 0.28656601D+06 0.28656601D+06 0.10860270D+01  1  2 15  2  6  2        4 -.153032898002D-02 0.100000000000D+01
-.188376455293D-04 0.000000000000D+00 0.000000000000D+00 0.360198282963D-04 0.000000000000D+00  6 1 4 25 3 2 21 2 0.36093597D+00 0.68595094D-01 0.28656601D+06 0.28656601D+06 0.28656601D+06 0.10860270D+01  1  2  4  2  6  2        4 -.414424339264D-05 0.100000000000D+01
  </mgrwgt>
  </event>
  <event>
  5     66 0.19826370E-05 0.18884285E+03 0.75467711E-02 0.95107132E-01
        1 -1    0    0  502    0 0.00000000E+00 0.00000000E+00 0.15525076E+04 0.15525077E+04 0.32000000E+00 0.0000E+00 0.9000E+01
        4 -1    0    0  501    0 0.00000000E+00 0.00000000E+00 -.39746785E+03 0.39747088E+03 0.15500000E+01 0.0000E+00 0.9000E+01
       25  1    1    2    0    0 -.36944180E+03 -.29197406E+03 0.15467935E+03 0.51116220E+03 0.12500000E+03 0.0000E+00 0.9000E+01
        3  1    1    2  501    0 0.13759990E+03 0.12930077E+03 -.15808075E+03 0.24625636E+03 0.50000000E+00 0.0000E+00 0.9000E+01
        2  1    1    2  502    0 0.23184190E+03 0.16267329E+03 0.11584412E+04 0.11925600E+04 0.32000000E+00 0.0000E+00 0.9000E+01
#aMCatNLO 1  0  0  4  2 0.19733703D+02 0.00000000D+00  -5  6  0 0.00000000D+00 0.00000000D+00 0.00000000D+00 0.00000000D+00 0.00000000D+00
  <mgrwgt>
 0.4678603730D-03    7    2    0
 0.785541121943514D+03 0.000000000000000D+00 0.000000000000000D+00 0.785541121943514D+03
 0.785541121943514D+03 -.000000000000000D+00 -.000000000000000D+00 -.785541121943514D+03
 0.520707856008723D+03 -.369448887099618D+03 -.291982411288312D+03 -.183753809833476D+03
 0.421907505468330D+03 0.137618129465995D+03 0.129316943041580D+03 -.377285464675185D+03
 0.628466882409975D+03 0.231830757633623D+03 0.162665468246732D+03 0.561039274508661D+03
 0.000000000000000D+00 0.000000000000000D+00 0.000000000000000D+00 0.000000000000000D+00
 0.785541121943514D+03 0.000000000000000D+00 0.000000000000000D+00 0.785541121943514D+03
 0.785541121943514D+03 -.000000000000000D+00 -.000000000000000D+00 -.785541121943514D+03
 0.520647359618603D+03 -.369222251082402D+03 -.291769446055874D+03 -.184375141306293D+03
 0.283404974823553D+03 0.794421414924671D+02 0.744800996631350D+02 -.261648697042426D+03
 0.627965388153580D+03 0.232104202085073D+03 0.162922418407953D+03 0.560289615889346D+03
 0.139064521291292D+03 0.576759075048618D+02 0.543669279847851D+02 -.114265777540627D+03
0.217363794118D-04 0.000000000000D+00 0.000000000000D+00 0.354858662854D-05 0.000000000000D+00  6 1 4 25 3 2 21 0 0.23884756D+00 0.61149136D-01 0.23004314D+06 0.23004314D+06 0.23004314D+06 0.10931877D+01  1  2  2  3  6  4        3 0.182972568148D-04 0.100000000000D+01
0.176909152093D-05 0.000000000000D+00 -.834734202613D-07 0.354858662854D-05 0.000000000000D+00  6 1 4 25 3 2 21 2 0.23884756D+00 0.61149136D-01 0.23004314D+06 0.23004314D+06 0.23004314D+06 0.10931877D+01  1  2  3  3  6  4        3 0.177966607542D-05 0.100000000000D+01
-.153116158585D-04 0.000000000000D+00 0.000000000000D+00 0.354858662854D-05 0.000000000000D+00  6 1 4 25 3 2 21 2 0.23884756D+00 0.61149136D-01 0.23004314D+06 0.23004314D+06 0.23004314D+06 0.10931877D+01  1  2 15  3  6  4        3 -.154031393971D-04 0.100000000000D+01
0.643314293732D-03 0.000000000000D+00 0.000000000000D+00 0.354858662854D-05 0.000000000000D+00  6 1 4 25 3 2 21 2 0.23884756D+00 0.61149136D-01 0.22974870D+06 0.22974870D+06 0.22974870D+06 0.10932298D+01  1  2 12  3  6  4        3 0.647238521889D-03 0.100000000000D+01
-.435376122014D-03 0.000000000000D+00 0.000000000000D+00 0.354858662854D-05 0.000000000000D+00  6 1 4 25 3 2 21 2 0.23884756D+00 0.61149136D-01 0.23004314D+06 0.23004314D+06 0.23004314D+06 0.10931877D+01  1  2  4  3  6  4        3 -.437978536004D-03 0.100000000000D+01
-.664504949787D-03 0.000000000000D+00 0.000000000000D+00 0.354858662854D-05 0.000000000000D+00  6 1 4 25 3 2 21 2 0.23884756D+00 0.61149136D-01 0.23004314D+06 0.23004314D+06 0.23004314D+06 0.10931877D+01  1  2  5  3  6  4        3 -.668476956726D-03 0.100000000000D+01
0.916922753097D-03 0.000000000000D+00 -.000000000000D+00 0.354858662854D-05 0.000000000000D+00  6 1 4 25 3 2 21 2 0.23884756D+00 0.61149136D-01 0.23004314D+06 0.23004314D+06 0.23004314D+06 0.10931877D+01  1  2  6  3  6  4        3 0.922403560334D-03 0.100000000000D+01
  </mgrwgt>
  </event>
  <event>
  5     66 0.19826370E-05 0.14330538E+02 0.75467711E-02 0.95035893E-01
        1 -1    0    0  502    0 0.00000000E+00 0.00000000E+00 0.27981853E+04 0.27981853E+04 0.32000000E+00 0.0000E+00 0.9000E+01
        4 -1    0    0  501    0 0.00000000E+00 0.00000000E+00 -.15541734E+03 0.15542507E+03 0.15500000E+01 0.0000E+00 0.9000E+01
       25  1    1    2    0    0 0.45034482E+03 -.14467609E+03 0.90397512E+03 0.10278802E+04 0.12500000E+03 0.0000E+00 0.9000E+01
        3  1    1    2  501    0 -.13831590E+02 -.37446310E+01 -.63654494E+02 0.65249366E+02 0.50000000E+00 0.0000E+00 0.9000E+01
        2  1    1    2  502    0 -.43651323E+03 0.14842072E+03 0.18024474E+04 0.18604809E+04 0.32000000E+00 0.0000E+00 0.9000E+01
#aMCatNLO 1  0  0  1  1 0.31778503D+03 0.00000000D+00  -5  6  0 0.00000000D+00 0.00000000D+00 0.00000000D+00 0.00000000D+00 0.00000000D+00
  <mgrwgt>
 0.6732310774D-02    7    2    0
 0.659467941205194D+03 0.000000000000000D+00 0.000000000000000D+00 0.659467941205194D+03
 0.659467941205194D+03 0.000000000000000D+00 0.000000000000000D+00 -.659467941205194D+03
 0.490510566224735D+03 0.450339565910658D+03 -.144673927649279D+03 -.352043408124821D+02
 0.273678992023953D+03 -.138326397732459D+02 -.374464771630022D+01 -.273303542541313D+03
 0.554746324161700D+03 -.436506926137412D+03 0.148418575365579D+03 0.308507883353795D+03
 0.000000000000000D+00 0.000000000000000D+00 -.000000000000000D+00 0.000000000000000D+00
 0.942116419640495D+03 0.000000000000000D+00 0.000000000000000D+00 0.942116419640495D+03
 0.745245197942678D+03 0.000000000000000D+00 0.000000000000000D+00 -.745245197942678D+03
 0.418929460409058D+03 0.392015952805975D+03 -.704346500822390D+02 -.352043408124821D+02
 0.280817418759723D+03 -.493932410040790D+02 0.415199236072938D+02 -.273303542541313D+03
 0.647925950732364D+03 -.513635918042774D+03 0.246594945684934D+03 0.308507883353795D+03
 0.339688787682027D+03 0.171013206240879D+03 -.217680219209989D+03 0.196871221697817D+03
0.289065068106D-02 0.000000000000D+00 0.000000000000D+00 0.189435450229D-04 0.000000000000D+00  6 1 4 25 3 2 21 0 0.43049065D+00 0.23910956D-01 0.23262552D+06 0.23262552D+06 0.23262552D+06 0.10928203D+01  1  2  2  1  6  1        1 0.255125347792D-02 0.100000000000D+01
0.212270311753D-02 0.000000000000D+00 -.111008597411D-04 0.189435450229D-04 0.000000000000D+00  6 1 4 25 3 2 21 2 0.43049065D+00 0.23910956D-01 0.23262552D+06 0.23262552D+06 0.23262552D+06 0.10928203D+01  1  2  3  1  6  1        1 0.223740590587D-02 0.100000000000D+01
-.182850811409D-02 0.000000000000D+00 0.000000000000D+00 0.189435450229D-04 0.000000000000D+00  6 1 4 25 3 2 21 2 0.43049065D+00 0.23910956D-01 0.23262552D+06 0.23262552D+06 0.23262552D+06 0.10928203D+01  1  2 15  1  6  1        1 -.192731372541D-02 0.100000000000D+01
-.452556778031D-03 0.000000000000D+00 0.000000000000D+00 0.189435450229D-04 0.000000000000D+00  6 1 4 25 3 2 21 2 0.43049065D+00 0.23910956D-01 0.23262552D+06 0.23262552D+06 0.23262552D+06 0.10928203D+01  1  2  4  1  6  1        1 -.477011221940D-03 0.100000000000D+01
-.408403856860D-02 0.000000000000D+00 -.162004882725D-02 0.189435450229D-04 0.000000000000D+00  6 1 4 25 3 2 21 2 0.62963637D+00 0.23910956D-01 0.23262552D+06 0.23262552D+06 0.23262552D+06 0.10928203D+01  1  2  5  1  6  1        1 -.375807896863D-03 0.100000000000D+01
0.448251811244D-02 0.000000000000D+00 0.150960965981D-02 0.189435450229D-04 0.000000000000D+00  6 1 4 25 3 2 21 2 0.43049065D+00 0.23910956D-01 0.23262552D+06 0.23262552D+06 0.23262552D+06 0.10928203D+01  1  2  6  1  6  1        1 0.472473631151D-02 0.100000000000D+01
-.135761636544D-03 0.000000000000D+00 -.743087326343D-04 0.189435450229D-04 0.000000000000D+00  6 21 4 25 3 2 -1 2 0.62963637D+00 0.23910956D-01 0.23262552D+06 0.23262552D+06 0.23262552D+06 0.10928203D+01  1  2  5  5  6  1        1 -.952077054992D-06 0.100000000000D+01
  </mgrwgt>
  </event>
  <event>
  5     66 0.19826370E-05 0.76159919E+02 0.75467711E-02 0.85888455E-01
        1 -1    0    0  502    0 0.00000000E+00 0.00000000E+00 0.20625816E+04 0.20625816E+04 0.32000000E+00 0.0000E+00 0.9000E+01
        4 -1    0    0  501    0 0.00000000E+00 0.00000000E+00 -.56278526E+03 0.56278739E+03 0.15500000E+01 0.0000E+00 0.9000E+01
       25  1    1    2    0    0 0.38175261E+03 0.41631830E+03 0.59650569E+03 0.83096331E+03 0.12500000E+03 0.0000E+00 0.9000E+01
        3  1    1    2  501    0 0.26274429E+02 0.71476713E+02 -.36646637E+03 0.37429549E+03 0.50000000E+00 0.0000E+00 0.9000E+01
        2  1    1    2  502    0 -.40802704E+03 -.48779502E+03 0.12697570E+04 0.14201102E+04 0.32000000E+00 0.0000E+00 0.9000E+01
#aMCatNLO 1  0  0  1  5 0.83730245D+02 0.00000000D+00  -5  6  0 0.00000000D+00 0.00000000D+00 0.00000000D+00 0.00000000D+00 0.00000000D+00
  <mgrwgt>
 0.1984277512D-02    6    2    0
 0.107740119545030D+04 0.000000000000000D+00 0.000000000000000D+00 0.107740119545030D+04
 0.107740119545030D+04 0.000000000000000D+00 0.000000000000000D+00 -.107740119545030D+04
 0.597230997267368D+03 0.381728808755250D+03 0.416285826114813D+03 0.148489365407696D+03
 0.711164444361088D+03 0.262766297493365D+02 0.714833683520441D+02 -.707074630927654D+03
 0.846406949272138D+03 -.408005438504586D+03 -.487769194466858D+03 0.558585265519958D+03
 0.000000000000000D+00 -.000000000000000D+00 -.000000000000000D+00 0.000000000000000D+00
 0.163253403476042D+04 0.000000000000000D+00 0.000000000000000D+00 0.163253403476042D+04
 0.146954286367969D+04 0.000000000000000D+00 0.000000000000000D+00 -.146954286367969D+04
 0.811596890435411D+03 0.622978607723505D+03 0.482610687038870D+03 0.148489365407696D+03
 0.773727829636571D+03 0.280551808228077D+03 0.141389191781399D+03 -.707074630927654D+03
 0.709829264179159D+03 -.141513216907216D+03 -.414504637935085D+03 0.558585265519958D+03
 0.806922914188976D+03 -.762017199044366D+03 -.209495240885184D+03 0.162991171080727D+03
0.932862573770D-02 0.000000000000D+00 0.000000000000D+00 0.132621284876D-04 0.000000000000D+00  6 1 4 25 3 2 21 0 0.31732041D+00 0.86582514D-01 0.41638080D+06 0.41638080D+06 0.41638080D+06 0.10741733D+01  1  2  2  1  6  1        1 0.146138612010D-02 0.100000000000D+01
0.322900052658D-02 0.000000000000D+00 -.358243791163D-04 0.132621284876D-04 0.000000000000D+00  6 1 4 25 3 2 21 2 0.31732041D+00 0.86582514D-01 0.41638080D+06 0.41638080D+06 0.41638080D+06 0.10741733D+01  1  2  3  1  6  1        1 0.583665656184D-03 0.100000000000D+01
-.584287461081D-02 0.000000000000D+00 0.000000000000D+00 0.132621284876D-04 0.000000000000D+00  6 1 4 25 3 2 21 2 0.31732041D+00 0.86582514D-01 0.41638080D+06 0.41638080D+06 0.41638080D+06 0.10741733D+01  1  2 15  1  6  1        1 -.105614267190D-02 0.100000000000D+01
-.330597282378D-02 0.000000000000D+00 -.519980924449D-02 0.132621284876D-04 0.000000000000D+00  6 1 4 25 3 2 21 2 0.53222986D+00 0.86582514D-01 0.41638080D+06 0.41638080D+06 0.41638080D+06 0.10741733D+01  1  2  5  1  6  1        1 -.575258042184D-04 0.100000000000D+01
0.582421916789D-02 0.000000000000D+00 0.457433204979D-02 0.132621284876D-04 0.000000000000D+00  6 1 4 25 3 2 21 2 0.31732041D+00 0.86582514D-01 0.41638080D+06 0.41638080D+06 0.41638080D+06 0.10741733D+01  1  2  6  1  6  1        1 0.105277056303D-02 0.100000000000D+01
0.519613418323D-04 0.000000000000D+00 -.301193555217D-03 0.132621284876D-04 0.000000000000D+00  6 21 4 25 3 2 -1 2 0.53222986D+00 0.86582514D-01 0.41638080D+06 0.41638080D+06 0.41638080D+06 0.10741733D+01  1  2  5  5  6  1        1 0.123649098602D-06 0.100000000000D+01
  </mgrwgt>
  </event>
  <event>
  5     66 0.19826370E-05 0.12156269E+03 0.75467711E-02 0.92600098E-01
        1 -1    0    0  502    0 0.00000000E+00 0.00000000E+00 0.28952121E+04 0.28952122E+04 0.32000000E+00 0.0000E+00 0.9000E+01
        4 -1    0    0  501    0 0.00000000E+00 0.00000000E+00 -.63147127E+03 0.63147317E+03 0.15500000E+01 0.0000E+00 0.9000E+01
       25  1    1    2    0    0 0.56108320E+03 -.12577109E+02 0.14539692E+04 0.15635294E+04 0.12500000E+03 0.0000E+00 0.9000E+01
        3  1    1    2  501    0 -.49106460E+03 0.11199077E+03 -.46326497E+03 0.68432526E+03 0.50000000E+00 0.0000E+00 0.9000E+01
        2  1    1    2  502    0 -.70018605E+02 -.99413658E+02 0.12730366E+04 0.12788307E+04 0.32000000E+00 0.0000E+00 0.9000E+01
#aMCatNLO 1  0  0  5  1 0.38837314D+01 0.00000000D+00  -5  6  0 0.00000000D+00 0.00000000D+00 0.00000000D+00 0.00000000D+00 0.00000000D+00
  <mgrwgt>
 0.1125981222D-02    8    2    0
 0.135212672135992D+04 0.000000000000000D+00 0.000000000000000D+00 0.135212672135992D+04
 0.135212672135992D+04 -.000000000000000D+00 -.000000000000000D+00 -.135212672135992D+04
 0.822058565626971D+03 0.561120749591411D+03 -.126145766591141D+02 0.587485882514939D+03
 0.128027011535181D+04 -.491121545549627D+03 0.112000687895630D+03 -.117700766423621D+04
 0.601924761741056D+03 -.699992040417839D+02 -.993861112365159D+02 0.589521781721275D+03
 0.000000000000000D+00 0.000000000000000D+00 -.000000000000000D+00 0.000000000000000D+00
 0.135212672135992D+04 0.000000000000000D+00 0.000000000000000D+00 0.135212672135992D+04
 0.135212672135992D+04 -.000000000000000D+00 -.000000000000000D+00 -.135212672135992D+04
 0.822089623278689D+03 0.561114953143720D+03 -.126228065583379D+02 0.587534699243891D+03
 0.128020256581581D+04 -.491130572501128D+03 0.111987871269809D+03 -.117693164073559D+04
 0.502564669113187D+02 -.426173343430740D+01 -.480345764499867D+01 0.498445271739645D+02
 0.551704786714013D+03 -.657226472082848D+02 -.945616070664725D+02 0.539552414317734D+03
0.679684420987D-03 0.000000000000D+00 0.000000000000D+00 0.202657378881D-04 0.000000000000D+00  6 1 4 25 3 2 21 0 0.44541740D+00 0.97149574D-01 0.36018415D+06 0.36018415D+06 0.36018415D+06 0.10787257D+01  1  2  2  4  6  5        2 0.206939016244D-04 0.100000000000D+01
0.924773395015D-04 0.000000000000D+00 -.261016714161D-05 0.202657378881D-04 0.000000000000D+00  6 1 4 25 3 2 21 2 0.44541740D+00 0.97149574D-01 0.36018415D+06 0.36018415D+06 0.36018415D+06 0.10787257D+01  1  2  3  4  6  5        2 0.327636618615D-05 0.100000000000D+01
-.469331689841D-03 0.000000000000D+00 0.000000000000D+00 0.202657378881D-04 0.000000000000D+00  6 1 4 25 3 2 21 2 0.44541740D+00 0.97149574D-01 0.36018415D+06 0.36018415D+06 0.36018415D+06 0.10787257D+01  1  2 15  4  6  5        2 -.166278840521D-04 0.100000000000D+01
0.263406344118D-02 0.000000000000D+00 0.000000000000D+00 0.202657378881D-04 0.000000000000D+00  6 1 4 25 3 2 21 2 0.44541740D+00 0.97149574D-01 0.36019452D+06 0.36019452D+06 0.36019452D+06 0.10787248D+01  1  2 12  4  6  5        2 0.933215019300D-04 0.100000000000D+01
-.339245959657D-01 0.000000000000D+00 0.000000000000D+00 0.202657378881D-04 0.000000000000D+00  6 1 4 25 3 2 21 2 0.44541740D+00 0.97149574D-01 0.36018415D+06 0.36018415D+06 0.36018415D+06 0.10787257D+01  1  2  4  4  6  5        2 -.120190956725D-02 0.100000000000D+01
-.308125234308D-01 0.000000000000D+00 0.000000000000D+00 0.202657378881D-04 0.000000000000D+00  6 1 4 25 3 2 21 2 0.44541740D+00 0.97149574D-01 0.36018415D+06 0.36018415D+06 0.36018415D+06 0.10787257D+01  1  2  5  4  6  5        2 -.109165240288D-02 0.100000000000D+01
0.677144965384D-01 0.000000000000D+00 -.000000000000D+00 0.202657378881D-04 0.000000000000D+00  6 1 4 25 3 2 21 2 0.44541740D+00 0.97149574D-01 0.36018415D+06 0.36018415D+06 0.36018415D+06 0.10787257D+01  1  2  6  4  6  5        2 0.239904703105D-02 0.100000000000D+01
0.259628972763D-01 0.000000000000D+00 0.000000000000D+00 0.202657378881D-04 0.322499730627D-06  6 1 4 25 3 2 21 2 0.44541740D+00 0.97149574D-01 0.36019452D+06 0.36019452D+06 0.36019452D+06 0.10787248D+01  1  2 11  4  6  5        2 0.919832275260D-03 0.100000000000D+01
  </mgrwgt>
  </event>
  <event>
  6     66 0.19826370E-05 0.65588104E+02 0.75467711E-02 0.90469713E-01
        1 -1    0    0  502    0 0.00000000E+00 0.00000000E+00 0.16116864E+04 0.16116864E+04 0.32000000E+00 0.0000E+00 0.9000E+01
        4 -1    0    0  501    0 0.00000000E+00 0.00000000E+00 -.15646179E+04 0.15646187E+04 0.15500000E+01 0.0000E+00 0.9000E+01
       25  1    1    2    0    0 0.47001329E+03 -.55264061E+03 0.48829158E+03 0.88338996E+03 0.12500000E+03 0.0000E+00 0.9000E+01
        3  1    1    2  501    0 -.94321400E+01 0.26691490E+02 -.12302553E+04 0.12305810E+04 0.50000000E+00 0.0000E+00 0.9000E+01
        2  1    1    2  503    0 -.97195634E+02 0.16414503E+03 0.28768885E+03 0.34518916E+03 0.32000000E+00 0.0000E+00 0.9000E+01
       21  1    1    2  502  503 -.36338552E+03 0.36180410E+03 0.50134326E+03 0.71714494E+03 0.75000000E+00 0.0000E+00 0.9000E+01
#aMCatNLO 2  0  0  5  2 0.47404079D-01 0.00000000D+00  -5  6  0 0.00000000D+00 0.00000000D+00 0.00000000D+00 0.00000000D+00 0.00000000D+00
  <mgrwgt>
 0.4914647160D-03    1    2    0
 0.158797817184631D+04 0.000000000000000D+00 0.000000000000000D+00 0.158797817184631D+04
 0.158797817184631D+04 -.000000000000000D+00 -.000000000000000D+00 -.158797817184631D+04
 0.876692640381254D+03 0.470866016478897D+03 -.553619564132573D+03 0.474083914970344D+03
 0.125156816042978D+04 -.800215792835127D+01 0.250637629614732D+02 -.125129158610465D+04
 0.104769554288158D+04 -.462863858550546D+03 0.528555801171100D+03 0.777207671134308D+03
 0.000000000000000D+00 -.000000000000000D+00 0.000000000000000D+00 0.000000000000000D+00
 0.158797817184631D+04 0.000000000000000D+00 0.000000000000000D+00 0.158797817184631D+04
 0.158797817184631D+04 -.000000000000000D+00 -.000000000000000D+00 -.158797817184631D+04
 0.876344166624567D+03 0.469862720616442D+03 -.552473875527608D+03 0.475768577158399D+03
 0.124920930376277D+04 -.943339980115088D+01 0.266981338045893D+02 -.124888834778254D+04
 0.340392641120582D+03 -.970024964995637D+02 0.163864459174525D+03 0.282145538368654D+03
 0.710010232184704D+03 -.363426824315728D+03 0.361911282548494D+03 0.490974232255489D+03
0.416058716971D-01 0.000000000000D+00 0.000000000000D+00 0.142046440309D-03 0.318934262405D-07  6 1 4 25 3 2 21 2 0.24795181D+00 0.24071051D+00 0.53844946D+06 0.53844946D+06 0.53844946D+06 0.10662438D+01  1  2  1  4  6  5        2 0.491464715959D-03 0.100000000000D+01
  </mgrwgt>
  </event>
  <event>
  5     66 0.19826370E-05 0.69299177E+02 0.75467711E-02 0.93081754E-01
        1 -1    0    0  502    0 0.00000000E+00 0.00000000E+00 0.33139183E+04 0.33139183E+04 0.32000000E+00 0.0000E+00 0.9000E+01
        4 -1    0    0  501    0 0.00000000E+00 0.00000000E+00 -.21055715E+03 0.21056285E+03 0.15500000E+01 0.0000E+00 0.9000E+01
       25  1    1    2    0    0 0.23541314E+03 0.41535395E+03 0.56440255E+03 0.74974229E+03 0.12500000E+03 0.0000E+00 0.9000E+01
        3  1    1    2  501    0 -.27432835E+03 -.47271123E+03 0.51936983E+03 0.75396102E+03 0.50000000E+00 0.0000E+00 0.9000E+01
        2  1    1    2  502    0 0.38915209E+02 0.57357272E+02 0.20195888E+04 0.20207779E+04 0.32000000E+00 0.0000E+00 0.9000E+01
#aMCatNLO 1  0  0  1  5 0.31629711D+02 0.00000000D+00  -5  6  0 0.00000000D+00 0.00000000D+00 0.00000000D+00 0.00000000D+00 0.00000000D+00
  <mgrwgt>
 0.4124038322D-02    9    2    0
 0.835331824034174D+03 0.000000000000000D+00 0.000000000000000D+00 0.835331824034174D+03
 0.835331824034174D+03 0.000000000000000D+00 0.000000000000000D+00 -.835331824034174D+03
 0.533332485370757D+03 0.235457649241533D+03 0.415430421331051D+03 -.201979702935978D+03
 0.625849828713389D+03 -.274365266798446D+03 -.472776504093235D+03 -.304785310755906D+03
 0.511481333984202D+03 0.389076175569136D+02 0.573460827621845D+02 0.506765013691885D+03
 0.000000000000000D+00 -.000000000000000D+00 -.000000000000000D+00 0.000000000000000D+00
 0.131272333887845D+04 0.000000000000000D+00 0.000000000000000D+00 0.131272333887845D+04
 0.836005590610528D+03 0.000000000000000D+00 0.000000000000000D+00 -.836005590610528D+03
 0.541458054654720D+03 0.243979361045381D+03 0.420987049606345D+03 -.201979702935978D+03
 0.616721949657595D+03 -.264513264760335D+03 -.466352452875204D+03 -.304785310755906D+03
 0.512783030469846D+03 0.470287215299936D+02 0.626414925345548D+02 0.506765013691885D+03
 0.477765894706814D+03 -.264948178150398D+02 -.172760892656963D+02 0.476717748267918D+03
0.244313134128D-03 0.000000000000D+00 0.000000000000D+00 0.592262581393D-05 0.000000000000D+00  6 1 4 25 3 2 21 0 0.50983402D+00 0.32393847D-01 0.30776226D+06 0.30776226D+06 0.30776226D+06 0.10837320D+01  1  2  2  1  6  1        1 0.477540504051D-04 0.100000000000D+01
0.737836945568D-04 0.000000000000D+00 -.938226764175D-06 0.592262581393D-05 0.000000000000D+00  6 1 4 25 3 2 21 2 0.50983402D+00 0.32393847D-01 0.30776226D+06 0.30776226D+06 0.30776226D+06 0.10837320D+01  1  2  3  1  6  1        1 0.169382139193D-04 0.100000000000D+01
-.174544705551D-03 0.000000000000D+00 0.000000000000D+00 0.592262581393D-05 0.000000000000D+00  6 1 4 25 3 2 21 2 0.50983402D+00 0.32393847D-01 0.30776226D+06 0.30776226D+06 0.30776226D+06 0.10837320D+01  1  2 15  1  6  1        1 -.400694974528D-04 0.100000000000D+01
0.229884833328D-01 0.000000000000D+00 0.000000000000D+00 0.592262581393D-05 0.000000000000D+00  6 1 4 25 3 2 21 2 0.88192600D+00 0.32393847D-01 0.32975210D+06 0.32975210D+06 0.32975210D+06 0.10815266D+01  1  2 12  1  6  1        1 0.475150404904D-05 0.100000000000D+01
-.100746699404D-01 0.000000000000D+00 0.000000000000D+00 0.592262581393D-05 0.000000000000D+00  6 1 4 25 3 2 21 2 0.50983402D+00 0.32393847D-01 0.30776226D+06 0.30776226D+06 0.30776226D+06 0.10837320D+01  1  2  4  1  6  1        1 -.231279980815D-02 0.100000000000D+01
-.306186879121D-01 0.000000000000D+00 -.105423736931D-03 0.592262581393D-05 0.000000000000D+00  6 1 4 25 3 2 21 2 0.80125378D+00 0.32393847D-01 0.30776226D+06 0.30776226D+06 0.30776226D+06 0.10837320D+01  1  2  5  1  6  1        1 -.653962457024D-04 0.100000000000D+01
0.281965349121D-01 0.000000000000D+00 0.969047092960D-04 0.592262581393D-05 0.000000000000D+00  6 1 4 25 3 2 21 2 0.50983402D+00 0.32393847D-01 0.30776226D+06 0.30776226D+06 0.30776226D+06 0.10837320D+01  1  2  6  1  6  1        1 0.647296049612D-02 0.100000000000D+01
0.139630015287D-02 0.000000000000D+00 0.000000000000D+00 0.592262581393D-05 0.000000000000D+00  6 21 4 25 3 2 -1 2 0.88192600D+00 0.32393847D-01 0.32975210D+06 0.32975210D+06 0.32975210D+06 0.10815266D+01  1  2 12  5  6  1        1 0.509468598418D-08 0.100000000000D+01
-.159249742085D-02 0.000000000000D+00 -.549768387368D-05 0.592262581393D-05 0.000000000000D+00  6 21 4 25 3 2 -1 2 0.80125378D+00 0.32393847D-01 0.30776226D+06 0.30776226D+06 0.30776226D+06 0.10837320D+01  1  2  5  5  6  1        1 -.105485432299D-06 0.100000000000D+01
  </mgrwgt>
  </event>
  <event>
  5     66 -.19826370E-05 0.38427019E+02 0.75467711E-02 0.94480052E-01
        1 -1    0    0  502    0 0.00000000E+00 0.00000000E+00 0.64934339E+03 0.64934347E+03 0.32000000E+00 0.0000E+00 0.9000E+01
        4 -1    0    0  501    0 -.00000000E+00 -.00000000E+00 -.11132147E+04 0.11132157E+04 0.15500000E+01 0.0000E+00 0.9000E+01
       25  1    1    2    0    0 -.43400083E+03 0.19722648E+03 0.37213491E+03 0.61754708E+03 0.12500000E+03 0.0000E+00 0.9000E+01
        3  1    1    2  501    0 0.12509490E+02 0.36327343E+02 -.61271322E+03 0.61391685E+03 0.50000000E+00 0.0000E+00 0.9000E+01
        2  1    1    2  502    0 0.42149134E+03 -.23355382E+03 -.22329296E+03 0.53109527E+03 0.32000000E+00 0.0000E+00 0.9000E+01
#aMCatNLO 1  0  0  4  2 0.84216225D+00 0.00000000D+00  -5  6  0 0.00000000D+00 0.00000000D+00 0.00000000D+00 0.00000000D+00 0.00000000D+00
  <mgrwgt>
 -.7483118248D-03    8    2    0
 0.850211503373061D+03 0.000000000000000D+00 0.000000000000000D+00 0.850211503373061D+03
 0.850211503373061D+03 -.000000000000000D+00 -.000000000000000D+00 -.850211503373061D+03
 0.741629760742191D+03 -.433905541070610D+03 0.197166686091231D+03 0.554293226859703D+03
 0.469318145743641D+03 0.125117965495868D+02 0.363330524567968D+02 -.467742328820605D+03
 0.489475100260291D+03 0.421393744521023D+03 -.233499738548028D+03 -.865508980390985D+02
 0.000000000000000D+00 0.000000000000000D+00 0.000000000000000D+00 -.000000000000000D+00
 0.850211503373061D+03 0.000000000000000D+00 0.000000000000000D+00 0.850211503373061D+03
 0.850211503373061D+03 -.000000000000000D+00 -.000000000000000D+00 -.850211503373061D+03
 0.741624635773078D+03 -.433905356412383D+03 0.197167222320944D+03 0.554286323576937D+03
 0.445808254229893D+03 0.118857013511053D+02 0.353525644133550D+02 -.444245344187530D+03
 0.489475842015017D+03 0.421393866395832D+03 -.233499384635318D+03 -.865554542198754D+02
 0.235142747281342D+02 0.625788665444806D+00 0.979597901018552D+00 -.234855251695314D+02
0.233451290475D-05 0.000000000000D+00 0.000000000000D+00 0.171842715758D-05 0.000000000000D+00  6 1 4 25 3 2 21 0 0.99899072D-01 0.17126388D+00 0.25649664D+06 0.25649664D+06 0.25649664D+06 0.10896219D+01  1  2  2  3  6  4        3 0.512540485014D-06 0.100000000000D+01
0.979482859878D-06 0.000000000000D+00 -.896514424559D-08 0.171842715758D-05 0.000000000000D+00  6 1 4 25 3 2 21 2 0.99899072D-01 0.17126388D+00 0.25649664D+06 0.25649664D+06 0.25649664D+06 0.10896219D+01  1  2  3  3  6  4        3 0.255317388674D-06 0.100000000000D+01
-.166435424193D-05 0.000000000000D+00 0.000000000000D+00 0.171842715758D-05 0.000000000000D+00  6 1 4 25 3 2 21 2 0.99899072D-01 0.17126388D+00 0.25649664D+06 0.25649664D+06 0.25649664D+06 0.10896219D+01  1  2 15  3  6  4        3 -.433839729396D-06 0.100000000000D+01
0.455925017687D-08 0.000000000000D+00 0.000000000000D+00 0.171842715758D-05 0.000000000000D+00  6 1 4 25 3 2 21 2 0.99899072D-01 0.17126388D+00 0.25651310D+06 0.25651310D+06 0.25651310D+06 0.10896198D+01  1  2 12  3  6  4        3 0.118843205539D-08 0.100000000000D+01
-.498434279625D-01 0.000000000000D+00 0.000000000000D+00 0.171842715758D-05 0.000000000000D+00  6 1 4 25 3 2 21 2 0.99899072D-01 0.17126388D+00 0.25649664D+06 0.25649664D+06 0.25649664D+06 0.10896219D+01  1  2  4  3  6  4        3 -.129924620340D-01 0.100000000000D+01
-.194160154131D-01 0.000000000000D+00 0.000000000000D+00 0.171842715758D-05 0.000000000000D+00  6 1 4 25 3 2 21 2 0.99899072D-01 0.17126388D+00 0.25649664D+06 0.25649664D+06 0.25649664D+06 0.10896219D+01  1  2  5  3  6  4        3 -.506108535104D-02 0.100000000000D+01
0.204131551909D-01 0.000000000000D+00 -.000000000000D+00 0.171842715758D-05 0.000000000000D+00  6 1 4 25 3 2 21 2 0.99899072D-01 0.17126388D+00 0.25649664D+06 0.25649664D+06 0.25649664D+06 0.10896219D+01  1  2  6  3  6  4        3 0.532100528904D-02 0.100000000000D+01
0.459745051855D-01 0.000000000000D+00 0.000000000000D+00 0.171842715758D-05 0.383381832330D-04  6 1 4 25 3 2 21 2 0.99899072D-01 0.17126388D+00 0.25651310D+06 0.25651310D+06 0.25651310D+06 0.10896198D+01  1  2 11  3  6  4        3 0.119838950647D-01 0.100000000000D+01
  </mgrwgt>
  </event>
  <event>
  5     66 0.19826370E-05 0.54803344E+02 0.75467711E-02 0.94181944E-01
        1 -1    0    0  502    0 0.00000000E+00 0.00000000E+00 0.13686113E+04 0.13686114E+04 0.32000000E+00 0.0000E+00 0.9000E+01
        4 -1    0    0  501    0 0.00000000E+00 0.00000000E+00 -.50823161E+03 0.50823397E+03 0.15500000E+01 0.0000E+00 0.9000E+01
       25  1    1    2    0    0 -.42059971E+03 -.23034234E+03 0.66862732E+03 0.83225549E+03 0.12500000E+03 0.0000E+00 0.9000E+01
        3  1    1    2  501    0 0.40059008E+03 0.28140100E+03 -.28381484E+03 0.56587105E+03 0.50000000E+00 0.0000E+00 0.9000E+01
        2  1    1    2  502    0 0.20009629E+02 -.51058656E+02 0.47556727E+03 0.47871881E+03 0.32000000E+00 0.0000E+00 0.9000E+01
#aMCatNLO 1  0  0  5  1 0.75726076D+01 0.00000000D+00  -5  6  0 0.00000000D+00 0.00000000D+00 0.00000000D+00 0.00000000D+00 0.00000000D+00
  <mgrwgt>
 0.1097717966D-03    1    2    0
 0.834010668315993D+03 0.000000000000000D+00 0.000000000000000D+00 0.834010668315993D+03
 0.834010668315993D+03 -.000000000000000D+00 -.000000000000000D+00 -.834010668315993D+03
 0.591726406676846D+03 -.420662194356745D+03 -.230420529462111D+03 0.323210207450291D+03
 0.783139349601557D+03 0.400665760714771D+03 0.281445514523192D+03 -.611197686055812D+03
 0.293155580353585D+03 0.199964336419747D+02 -.510249850610808D+02 0.287987478605521D+03
 0.000000000000000D+00 0.000000000000000D+00 0.000000000000000D+00 0.000000000000000D+00
 0.834010668315993D+03 0.000000000000000D+00 0.000000000000000D+00 0.834010668315993D+03
 0.834010668315993D+03 -.000000000000000D+00 -.000000000000000D+00 -.834010668315993D+03
 0.596209376537398D+03 -.420116638628982D+03 -.231812626340861D+03 0.331067269428966D+03
 0.774833371173393D+03 0.401381254728444D+03 0.279619785395056D+03 -.600893182730648D+03
 0.405482499146264D+02 0.333256164138710D+02 -.169659839090065D+02 0.156754346598063D+02
 0.256430339006569D+03 -.145902325133334D+02 -.308411751451888D+02 0.254150478641876D+03
0.152682184851D-03 0.000000000000D+00 0.000000000000D+00 0.147064575158D-04 0.000000000000D+00  6 1 4 25 3 2 21 2 0.21055578D+00 0.78189663D-01 0.27045045D+06 0.27045045D+06 0.27045045D+06 0.10878995D+01  1  2 14  4  6  5        2 0.109771796637D-03 0.100000000000D+01
  </mgrwgt>
  </event>
  <event>
  5     66 -.19826370E-05 0.29612270E+02 0.75467711E-02 0.90196113E-01
        1 -1    0    0  502    0 0.00000000E+00 0.00000000E+00 0.28139893E+04 0.28139894E+04 0.32000000E+00 0.0000E+00 0.9000E+01
        4 -1    0    0  501    0 0.00000000E+00 0.00000000E+00 -.38535057E+03 0.38535368E+03 0.15500000E+01 0.0000E+00 0.9000E+01
       25  1    1    2    0    0 -.28372922E+03 -.66078059E+03 0.39865506E+03 0.83167549E+03 0.12500000E+03 0.0000E+00 0.9000E+01
        3  1    1    2  501    0 0.30087277E+03 0.68493635E+03 0.66078351E+03 0.99814694E+03 0.50000000E+00 0.0000E+00 0.9000E+01
        2  1    1    2  502    0 -.17143544E+02 -.24155753E+02 0.13692002E+04 0.13695206E+04 0.32000000E+00 0.0000E+00 0.9000E+01
#aMCatNLO 1  0  0  4  2 0.32619959D+02 0.00000000D+00  -5  6  0 0.00000000D+00 0.00000000D+00 0.00000000D+00 0.00000000D+00 0.00000000D+00
  <mgrwgt>
 -.5044312694D-03    6    2    0
 0.104133443043670D+04 0.000000000000000D+00 0.000000000000000D+00 0.104133443043670D+04
 0.104133443043670D+04 -.000000000000000D+00 -.000000000000000D+00 -.104133443043670D+04
 0.812790385158751D+03 -.283772558403781D+03 -.660878577011590D+03 -.357373546517673D+03
 0.762854371728076D+03 0.300911070649569D+03 0.685027240268944D+03 -.148785080282537D+03
 0.507024103986577D+03 -.171385122457884D+02 -.241486632573534D+02 0.506158626800211D+03
 0.000000000000000D+00 0.000000000000000D+00 0.000000000000000D+00 0.000000000000000D+00
 0.104133443043670D+04 0.000000000000000D+00 0.000000000000000D+00 0.104133443043670D+04
 0.104133443043670D+04 -.000000000000000D+00 -.000000000000000D+00 -.104133443043670D+04
 0.811806805849804D+03 -.283276301283698D+03 -.659748842420237D+03 -.357618920193334D+03
 0.521263770452766D+03 0.175382691921514D+03 0.478996616896355D+03 -.107326934004675D+03
 0.506827758929434D+03 -.168288162740944D+02 -.234436370967870D+02 0.506005498037244D+03
 0.242770525641400D+03 0.124722425636279D+03 0.204195862620670D+03 -.410596438392347D+02
0.111356684842D-03 0.000000000000D+00 0.000000000000D+00 0.466430254861D-05 0.000000000000D+00  6 1 4 25 3 2 21 0 0.43292168D+00 0.59284944D-01 0.56838414D+06 0.56838414D+06 0.56838414D+06 0.10645979D+01  1  2  2  3  6  4        3 0.133193176026D-04 0.100000000000D+01
0.726018063803D-04 0.000000000000D+00 -.427638990681D-06 0.466430254861D-05 0.000000000000D+00  6 1 4 25 3 2 21 2 0.43292168D+00 0.59284944D-01 0.56838414D+06 0.56838414D+06 0.56838414D+06 0.10645979D+01  1  2  3  3  6  4        3 0.984202182663D-05 0.100000000000D+01
-.791094738248D-04 0.000000000000D+00 0.000000000000D+00 0.466430254861D-05 0.000000000000D+00  6 1 4 25 3 2 21 2 0.43292168D+00 0.59284944D-01 0.56838414D+06 0.56838414D+06 0.56838414D+06 0.10645979D+01  1  2 15  3  6  4        3 -.107242120671D-04 0.100000000000D+01
-.531482078271D-02 0.000000000000D+00 0.000000000000D+00 0.466430254861D-05 0.000000000000D+00  6 1 4 25 3 2 21 2 0.43292168D+00 0.59284944D-01 0.56838414D+06 0.56838414D+06 0.56838414D+06 0.10645979D+01  1  2  4  3  6  4        3 -.720485959731D-03 0.100000000000D+01
-.411090461281D-02 0.000000000000D+00 0.000000000000D+00 0.466430254861D-05 0.000000000000D+00  6 1 4 25 3 2 21 2 0.43292168D+00 0.59284944D-01 0.56838414D+06 0.56838414D+06 0.56838414D+06 0.10645979D+01  1  2  5  3  6  4        3 -.557281078029D-03 0.100000000000D+01
0.561293368206D-02 0.000000000000D+00 -.000000000000D+00 0.466430254861D-05 0.000000000000D+00  6 1 4 25 3 2 21 2 0.43292168D+00 0.59284944D-01 0.56838414D+06 0.56838414D+06 0.56838414D+06 0.10645979D+01  1  2  6  3  6  4        3 0.760898641018D-03 0.100000000000D+01
  </mgrwgt>
  </event>
  <event>
  5     66 0.19826370E-05 0.21294354E+02 0.75467711E-02 0.94981675E-01
        1 -1    0    0  502    0 0.00000000E+00 0.00000000E+00 0.98020928E+03 0.98020933E+03 0.32000000E+00 0.0000E+00 0.9000E+01
        4 -1    0    0  501    0 0.00000000E+00 0.00000000E+00 -.88963897E+03 0.88964032E+03 0.15500000E+01 0.0000E+00 0.9000E+01
       25  1    1    2    0    0 -.18363023E+03 0.42538074E+03 -.19247441E+03 0.51704954E+03 0.12500000E+03 0.0000E+00 0.9000E+01
        3  1    1    2  501    0 0.20444635E+03 -.42088416E+03 -.43235612E+03 0.63708229E+03 0.50000000E+00 0.0000E+00 0.9000E+01
        2  1    1    2  502    0 -.20816122E+02 -.44965835E+01 0.71540084E+03 0.71571781E+03 0.32000000E+00 0.0000E+00 0.9000E+01
#aMCatNLO 1  0  0  4  2 0.99840424D+01 0.00000000D+00  -5  6  0 0.00000000D+00 0.00000000D+00 0.00000000D+00 0.00000000D+00 0.00000000D+00
  <mgrwgt>
 0.1154064130D-01    4    2    0
 0.933827436458355D+03 0.000000000000000D+00 0.000000000000000D+00 0.933827436458355D+03
 0.933827436458355D+03 -.000000000000000D+00 -.000000000000000D+00 -.933827436458355D+03
 0.527026595395600D+03 -.183655905613557D+03 0.425433237519609D+03 -.217736310708906D+03
 0.658822872202576D+03 0.204470175745135D+03 -.420937054088479D+03 -.463736477606969D+03
 0.681805405318534D+03 -.208142701315780D+02 -.449618343113039D+01 0.681472788315875D+03
 0.000000000000000D+00 0.000000000000000D+00 0.000000000000000D+00 0.000000000000000D+00
 0.933827436458355D+03 0.000000000000000D+00 0.000000000000000D+00 0.933827436458355D+03
 0.933827436458355D+03 -.000000000000000D+00 -.000000000000000D+00 -.933827436458355D+03
 0.506744780094026D+03 -.159977930614387D+03 0.376688050077921D+03 -.271437740186171D+03
 0.321343876274251D+03 0.248555394157509D+03 0.706853467083372D+02 -.191012262996093D+03
 0.617551814142107D+03 0.894680517659537D+01 -.657644799984646D+02 0.613974943298072D+03
 0.422014402406326D+03 -.975242687197174D+02 -.381608916787794D+03 -.151524940115808D+03
0.426411645949D-01 0.000000000000D+00 0.000000000000D+00 0.973075922473D-04 0.000000000000D+00  6 1 4 25 3 2 21 0 0.15080154D+00 0.13686764D+00 0.23484213D+06 0.23484213D+06 0.23484213D+06 0.10925085D+01  1  2  2  3  6  4        3 0.101867928230D-01 0.100000000000D+01
0.329518430698D-01 0.000000000000D+00 -.163753299721D-03 0.973075922473D-04 0.000000000000D+00  6 1 4 25 3 2 21 2 0.15080154D+00 0.13686764D+00 0.23484213D+06 0.23484213D+06 0.23484213D+06 0.10925085D+01  1  2  3  3  6  4        3 0.939588762666D-02 0.100000000000D+01
-.275167531780D-01 0.000000000000D+00 0.000000000000D+00 0.973075922473D-04 0.000000000000D+00  6 1 4 25 3 2 21 2 0.15080154D+00 0.13686764D+00 0.23484213D+06 0.23484213D+06 0.23484213D+06 0.10925085D+01  1  2 15  3  6  4        3 -.784612624440D-02 0.100000000000D+01
-.687076256954D-03 0.000000000000D+00 0.000000000000D+00 0.973075922473D-04 0.000000000000D+00  6 1 4 25 3 2 21 2 0.15080154D+00 0.13686764D+00 0.23484213D+06 0.23484213D+06 0.23484213D+06 0.10925085D+01  1  2  4  3  6  4        3 -.195912905012D-03 0.100000000000D+01
  </mgrwgt>
  </event>
  <event>
  5     66 0.19826370E-05 0.25848560E+02 0.75467711E-02 0.80991939E-01
        1 -1    0    0  502    0 0.00000000E+00 0.00000000E+00 0.83160651E+03 0.83160657E+03 0.32000000E+00 0.0000E+00 0.9000E+01
        4 -1    0    0  501    0 0.00000000E+00 0.00000000E+00 -.67814597E+03 0.67814774E+03 0.15500000E+01 0.0000E+00 0.9000E+01
       25  1    1    2    0    0 0.12275438E+03 -.44699136E+03 0.28510599E+02 0.48094466E+03 0.12500000E+03 0.0000E+00 0.9000E+01
        3  1    1    2  501    0 -.13529337E+03 0.42437971E+03 -.34173194E+03 0.56141197E+03 0.50000000E+00 0.0000E+00 0.9000E+01
        2  1    1    2  502    0 0.12538984E+02 0.22611652E+02 0.46668188E+03 0.46739768E+03 0.32000000E+00 0.0000E+00 0.9000E+01
#aMCatNLO 1  0  0  1  4 0.46784236D+03 0.00000000D+00  -5  6  0 0.00000000D+00 0.00000000D+00 0.00000000D+00 0.00000000D+00 0.00000000D+00
  <mgrwgt>
 0.4301950669D-02    3    2    0
 0.750967367495028D+03 0.000000000000000D+00 0.000000000000000D+00 0.750967367495028D+03
 0.750967367495028D+03 0.000000000000000D+00 0.000000000000000D+00 -.750967367495028D+03
 0.480607129599058D+03 0.122780623855112D+03 -.447065148043370D+03 -.203932545748596D+02
 0.599295159151057D+03 -.135316185369645D+03 0.424459667413765D+03 -.400846864148760D+03
 0.422032446239941D+03 0.125355615145330D+02 0.226054806296041D+02 0.421240118723619D+03
 0.000000000000000D+00 -.000000000000000D+00 0.000000000000000D+00 -.000000000000000D+00
 0.197552021705605D+04 0.000000000000000D+00 0.000000000000000D+00 0.197552021705605D+04
 0.254699123059173D+04 0.000000000000000D+00 0.000000000000000D+00 -.254699123059173D+04
 0.129483291309850D+04 0.789503680175606D+03 -.101844750822031D+04 -.203932545748596D+02
 0.491183118969013D+03 0.274186243861741D+03 0.735156550621904D+02 -.400846864148760D+03
 0.688531449133974D+03 0.429580652734785D+03 -.334802600975853D+03 0.421240118723619D+03
 0.204796396644630D+04 -.149327057677213D+04 0.127973445413397D+04 -.571471013535680D+03
0.895670521875D-02 0.000000000000D+00 0.000000000000D+00 0.431201938381D-04 0.000000000000D+00  6 1 4 25 3 2 21 0 0.12793960D+00 0.10433029D+00 0.22635225D+06 0.22635225D+06 0.22635225D+06 0.10937206D+01  1  2  2  1  6  1        1 0.631055478657D-02 0.100000000000D+01
0.523668675985D-02 0.000000000000D+00 -.343961063946D-04 0.431201938381D-04 0.000000000000D+00  6 1 4 25 3 2 21 2 0.12793960D+00 0.10433029D+00 0.22635225D+06 0.22635225D+06 0.22635225D+06 0.10937206D+01  1  2  3  1  6  1        1 0.441355587485D-02 0.100000000000D+01
-.761989678058D-02 0.000000000000D+00 0.000000000000D+00 0.431201938381D-04 0.000000000000D+00  6 1 4 25 3 2 21 2 0.12793960D+00 0.10433029D+00 0.22635225D+06 0.22635225D+06 0.22635225D+06 0.10937206D+01  1  2 15  1  6  1        1 -.642215999238D-02 0.100000000000D+01
  </mgrwgt>
  </event>
  <event>
  5     66 0.19826370E-05 0.67778608E+02 0.75467711E-02 0.94405245E-01
        1 -1    0    0  502    0 0.00000000E+00 0.00000000E+00 0.24881201E+04 0.24881201E+04 0.32000000E+00 0.0000E+00 0.9000E+01
        4 -1    0    0  501    0 0.00000000E+00 0.00000000E+00 -.81190022E+03 0.81190170E+03 0.15500000E+01 0.0000E+00 0.9000E+01
       25  1    1    2    0    0 0.45760560E+03 0.19937044E+03 0.21764020E+02 0.51502440E+03 0.12500000E+03 0.0000E+00 0.9000E+01
        3  1    1    2  501    0 -.67766641E+02 -.11666561E+01 -.54159709E+03 0.54582171E+03 0.50000000E+00 0.0000E+00 0.9000E+01
        2  1    1    2  502    0 -.38983896E+03 -.19820378E+03 0.21960530E+04 0.22391757E+04 0.32000000E+00 0.0000E+00 0.9000E+01
#aMCatNLO 1  0  0  2  1 0.35063134D+02 0.00000000D+00  -5  6  0 0.00000000D+00 0.00000000D+00 0.00000000D+00 0.00000000D+00 0.00000000D+00
  <mgrwgt>
 0.7847131972D-02    4    2    0
 0.142130494220003D+04 0.000000000000000D+00 0.000000000000000D+00 0.142130494220003D+04
 0.142130494220003D+04 0.000000000000000D+00 0.000000000000000D+00 -.142130494220003D+04
 0.585054963235371D+03 0.457605900500878D+03 0.199369758452265D+03 -.278411295115352D+03
 0.953033494367843D+03 -.677685641615711D+02 -.116680429832584D+01 -.950620272067764D+03
 0.130452142679684D+04 -.389837336339307D+03 -.198202954153939D+03 0.122903156718312D+04
 0.000000000000000D+00 0.000000000000000D+00 0.000000000000000D+00 0.000000000000000D+00
 0.225112661719661D+04 0.000000000000000D+00 0.000000000000000D+00 0.225112661719661D+04
 0.166511720961050D+04 0.000000000000000D+00 0.000000000000000D+00 -.166511720961050D+04
 0.515972692361889D+03 0.411749776274987D+03 0.595994274541922D+02 -.278411295115352D+03
 0.993723711548293D+03 -.148848035524817D+03 -.248298561307808D+03 -.950620272067764D+03
 0.143623733522147D+04 -.503985762698440D+03 -.546129509318774D+03 0.122903156718312D+04
 0.970310087675454D+03 0.241084021948271D+03 0.734828643172390D+03 0.586009407586105D+03
0.463095631721D+00 0.000000000000D+00 0.000000000000D+00 0.557789925252D-03 0.000000000000D+00  6 1 4 25 3 2 21 0 0.38278783D+00 0.12490784D+00 0.25993325D+06 0.25993325D+06 0.25993325D+06 0.10891884D+01  1  2  2  2  6  2        4 0.135984017974D-01 0.100000000000D+01
0.154211769446D+00 0.000000000000D+00 -.177840916169D-02 0.557789925252D-03 0.000000000000D+00  6 1 4 25 3 2 21 2 0.38278783D+00 0.12490784D+00 0.25993325D+06 0.25993325D+06 0.25993325D+06 0.10891884D+01  1  2  3  2  6  2        4 0.537205798297D-02 0.100000000000D+01
-.317127421834D+00 0.000000000000D+00 0.000000000000D+00 0.557789925252D-03 0.000000000000D+00  6 1 4 25 3 2 21 2 0.38278783D+00 0.12490784D+00 0.25993325D+06 0.25993325D+06 0.25993325D+06 0.10891884D+01  1  2 15  2  6  2        4 -.110473208640D-01 0.100000000000D+01
-.218187618267D-02 0.000000000000D+00 0.000000000000D+00 0.557789925252D-03 0.000000000000D+00  6 1 4 25 3 2 21 2 0.38278783D+00 0.12490784D+00 0.25993325D+06 0.25993325D+06 0.25993325D+06 0.10891884D+01  1  2  4  2  6  2        4 -.760069442627D-04 0.100000000000D+01
  </mgrwgt>
  </event>
  <event>
  6     66 0.19826370E-05 0.16219235E+03 0.75467711E-02 0.94267137E-01
        1 -1    0    0  502    0 0.00000000E+00 0.00000000E+00 0.28336176E+04 0.28336176E+04 0.32000000E+00 0.0000E+00 0.9000E+01
        4 -1    0    0  501    0 0.00000000E+00 0.00000000E+00 -.24922358E+03 0.24922840E+03 0.15500000E+01 0.0000E+00 0.9000E+01
       25  1    1    2    0    0 -.44210585E+03 0.14575506E+03 0.42767623E+03 0.64438659E+03 0.12500000E+03 0.0000E+00 0.9000E+01
        3  1    1    2  503    0 0.96989923E+02 -.20857348E+01 -.98188442E+02 0.13803121E+03 0.50000000E+00 0.0000E+00 0.9000E+01
        2  1    1    2  502    0 0.14263581E+03 -.19761287E+03 0.11011133E+04 0.11277617E+04 0.32000000E+00 0.0000E+00 0.9000E+01
       21  1    1    2  501  503 0.20248011E+03 0.53943546E+02 0.11537929E+04 0.11726665E+04 0.75000000E+00 0.0000E+00 0.9000E+01
#aMCatNLO 2  0  0  4  5 0.35628566D+03 0.00000000D+00  -5  6  0 0.00000000D+00 0.00000000D+00 0.00000000D+00 0.00000000D+00 0.00000000D+00
  <mgrwgt>
 0.1525325208D-02    1    2    0
 0.840364078636409D+03 0.000000000000000D+00 0.000000000000000D+00 0.840364078636409D+03
 0.840364078636409D+03 -.000000000000000D+00 -.000000000000000D+00 -.840364078636409D+03
 0.666817537653962D+03 -.625377281678823D+03 0.113995400268152D+03 -.157888988851671D+03
 0.628938212535959D+03 0.599718509696563D+03 0.103799108803610D+03 -.158514129738763D+03
 0.384972407082897D+03 0.256587719822599D+02 -.217794509071762D+03 0.316403118590434D+03
 0.000000000000000D+00 0.000000000000000D+00 0.000000000000000D+00 0.000000000000000D+00
 0.840364078636409D+03 0.000000000000000D+00 0.000000000000000D+00 0.840364078636409D+03
 0.840364078636409D+03 -.000000000000000D+00 -.000000000000000D+00 -.840364078636409D+03
 0.524307816777042D+03 -.442120746051293D+03 0.145713389246346D+03 -.206326297012521D+03
 0.403903613143822D+03 0.962342827394524D+02 -.223169939130181D+01 -.392265357958212D+03
 0.375328350186357D+03 0.142632256170000D+03 -.197548771753293D+03 0.285485363429080D+03
 0.377188377165597D+03 0.203254207141841D+03 0.540670818982484D+02 0.313106291541653D+03
0.402246315395D-02 0.000000000000D+00 0.000000000000D+00 0.225816046658D-07 0.125852400455D-08  6 1 4 25 3 2 21 2 0.43594154D+00 0.38342461D-01 0.26638265D+06 0.26638265D+06 0.26638265D+06 0.10883914D+01  1  2  1  3  6  4        3 0.152532520827D-02 0.100000000000D+01
  </mgrwgt>
  </event>
  <event>
  6     66 0.19826370E-05 0.32459126E+03 0.75467711E-02 0.91032162E-01
        1 -1    0    0  502    0 0.00000000E+00 0.00000000E+00 0.22749558E+04 0.22749558E+04 0.32000000E+00 0.0000E+00 0.9000E+01
        4 -1    0    0  501    0 0.00000000E+00 0.00000000E+00 -.41362640E+03 0.41362931E+03 0.15500000E+01 0.0000E+00 0.9000E+01
       25  1    1    2    0    0 -.17092833E+03 0.66768264E+03 0.10930215E+04 0.12982056E+04 0.12500000E+03 0.0000E+00 0.9000E+01
        3  1    1    2  501    0 0.71679548E+02 -.35031095E+03 -.16905778E+03 0.39552055E+03 0.50000000E+00 0.0000E+00 0.9000E+01
        2  1    1    2  503    0 0.64705918E+02 -.22055292E+03 0.61819673E+03 0.65954359E+03 0.32000000E+00 0.0000E+00 0.9000E+01
       21  1    1    2  502  503 0.34542861E+02 -.96818767E+02 0.31916895E+03 0.33531547E+03 0.75000000E+00 0.0000E+00 0.9000E+01
#aMCatNLO 2  0  0  5  1 0.10653421D+02 0.00000000D+00  -5  6  0 0.00000000D+00 0.00000000D+00 0.00000000D+00 0.00000000D+00 0.00000000D+00
  <mgrwgt>
 0.8695431016D-05    2    2    0
 0.970044189949637D+03 0.000000000000000D+00 0.000000000000000D+00 0.970044189949637D+03
 0.970044189949637D+03 -.000000000000000D+00 -.000000000000000D+00 -.970044189949637D+03
 0.750623690432680D+03 -.170915789352209D+03 0.667708208515695D+03 0.269748894102735D+03
 0.710752677261442D+03 0.716916464112064D+02 -.350415297823750D+03 -.614197684072686D+03
 0.478712012205153D+03 0.992241429410030D+02 -.317292910691944D+03 0.344448789969951D+03
 0.000000000000000D+00 0.000000000000000D+00 0.000000000000000D+00 0.000000000000000D+00
 0.970044189949637D+03 0.000000000000000D+00 0.000000000000000D+00 0.970044189949637D+03
 0.970044189949637D+03 -.000000000000000D+00 -.000000000000000D+00 -.970044189949637D+03
 0.750545337307934D+03 -.170872835553386D+03 0.667570853478403D+03 0.269898004829123D+03
 0.710698915966383D+03 0.717323192099679D+02 -.350545358818207D+03 -.614056491658190D+03
 0.320312219959943D+03 0.645846459325794D+02 -.220163125094636D+03 0.223510492178766D+03
 0.158531906665015D+03 0.345558704108390D+02 -.968623695655604D+02 0.120647994650301D+03
-.180883773031D-03 0.000000000000D+00 0.000000000000D+00 0.153180148908D-06 0.000000000000D+00  6 1 4 25 3 2 21 2 0.34999343D+00 0.63635056D-01 0.48332375D+06 0.48332375D+06 0.48332375D+06 0.10695531D+01  1  2 13  4  6  5        2 -.504196831863D-04 0.100000000000D+01
0.212079176710D-03 0.000000000000D+00 0.000000000000D+00 0.153180148908D-06 0.466785455534D-08  6 1 4 25 3 2 21 2 0.34999343D+00 0.63635056D-01 0.48332375D+06 0.48332375D+06 0.48332375D+06 0.10695531D+01  1  2  1  4  6  5        2 0.591151142027D-04 0.100000000000D+01
  </mgrwgt>
  </event>
  <event>
  6     66 0.19826370E-05 0.84159667E+02 0.75467711E-02 0.92615908E-01
        1 -1    0    0  502    0 0.00000000E+00 0.00000000E+00 0.51925569E+03 0.51925579E+03 0.32000000E+00 0.0000E+00 0.9000E+01
       21 -1    0    0  501  503 0.00000000E+00 0.00000000E+00 -.12222037E+04 0.12222039E+04 0.75000000E+00 0.0000E+00 0.9000E+01
       25  1    1    2    0    0 -.27502082E+03 -.36653511E+03 -.11547307E+03 0.48881844E+03 0.12500000E+03 0.0000E+00 0.9000E+01
        3  1    1    2  501    0 0.29407541E+03 0.35118069E+03 -.61452098E+03 0.76644928E+03 0.50000000E+00 0.0000E+00 0.9000E+01
        2  1    1    2  502    0 -.91020053E+02 0.11238987E+03 0.21717426E+03 0.26092316E+03 0.32000000E+00 0.0000E+00 0.9000E+01
       -4  1    1    2    0  503 0.71965462E+02 -.97035443E+02 -.19012818E+03 0.22526880E+03 0.15500000E+01 0.0000E+00 0.9000E+01
#aMCatNLO 2  0  0  2  4 0.18352872D+02 0.00000000D+00  -5  6  0 0.00000000D+00 0.00000000D+00 0.00000000D+00 0.00000000D+00 0.00000000D+00
  <mgrwgt>
 0.1100815963D-03    1    2    0
 0.710854371211674D+03 0.000000000000000D+00 0.000000000000000D+00 0.710854371211674D+03
 0.710854371211674D+03 0.000000000000000D+00 0.000000000000000D+00 -.710854371211674D+03
 0.490834948664252D+03 -.250630984450335D+03 -.399573727412798D+03 0.530932465115636D+02
 0.586694970759493D+03 0.323945052141098D+03 0.311053653994123D+03 -.377513200093305D+03
 0.344178822999604D+03 -.733140676907626D+02 0.885200734186743D+02 0.324419953581741D+03
 0.000000000000000D+00 0.000000000000000D+00 -.000000000000000D+00 -.000000000000000D+00
 0.738398421761365D+03 0.000000000000000D+00 0.000000000000000D+00 0.738398421761365D+03
 0.859469059604404D+03 0.000000000000000D+00 0.000000000000000D+00 -.859469059604404D+03
 0.478018556728709D+03 -.275108072011708D+03 -.366569770256442D+03 0.530932465115636D+02
 0.593641814652631D+03 0.294125056974002D+03 0.351261780897697D+03 -.377513200093305D+03
 0.355172013067712D+03 -.909824474357438D+02 0.112343432577049D+03 0.324419953581741D+03
 0.171035096916716D+03 0.719654624734500D+02 -.970354432183039D+02 -.121070637843039D+03
0.169495106917D-04 0.000000000000D+00 0.000000000000D+00 0.147647371018D-05 0.673048619508D-11  6 1 21 25 3 2 -4 2 0.79885145D-01 0.18803048D+00 0.35914667D+06 0.35914667D+06 0.35914667D+06 0.10788169D+01  1  2  1  6  6  2        4 0.110081596317D-03 0.100000000000D+01
  </mgrwgt>
  </event>
  <event>
  5     66 -.19826370E-05 0.20167000E+02 0.75467711E-02 0.94316059E-01
        1 -1    0    0  502    0 0.00000000E+00 0.00000000E+00 0.21263538E+04 0.21263538E+04 0.32000000E+00 0.0000E+00 0.9000E+01
        4 -1    0    0  501    0 0.00000000E+00 0.00000000E+00 -.37715011E+03 0.37715329E+03 0.15500000E+01 0.0000E+00 0.9000E+01
       25  1    1    2    0    0 0.31532581E+03 -.39130194E+03 -.44693948E+01 0.51787310E+03 0.12500000E+03 0.0000E+00 0.9000E+01
        3  1    1    2  501    0 0.37605913E+01 0.19822889E+02 -.82679282E+02 0.85107007E+02 0.50000000E+00 0.0000E+00 0.9000E+01
        2  1    1    2  502    0 -.31908640E+03 0.37147905E+03 0.18363524E+04 0.19005270E+04 0.32000000E+00 0.0000E+00 0.9000E+01
#aMCatNLO 1  0  0  4  2 0.49052405D+00 0.00000000D+00  -5  6  0 0.00000000D+00 0.00000000D+00 0.00000000D+00 0.00000000D+00 0.00000000D+00
  <mgrwgt>
 -.8281836550D-02    7    2    0
 0.895521401279859D+03 0.000000000000000D+00 0.000000000000000D+00 0.895521401279859D+03
 0.895521401279859D+03 -.000000000000000D+00 -.000000000000000D+00 -.895521401279859D+03
 0.728362721902714D+03 0.315336612345351D+03 -.391302954519559D+03 -.512183632456517D+03
 0.199567750402702D+03 0.375859406149705D+01 0.198136534808709D+02 -.198546163667839D+03
 0.863112330254301D+03 -.319095206406848D+03 0.371489301038688D+03 0.710729796124356D+03
 0.000000000000000D+00 0.000000000000000D+00 0.000000000000000D+00 -.000000000000000D+00
 0.895521401279859D+03 0.000000000000000D+00 0.000000000000000D+00 0.895521401279859D+03
 0.895521401279859D+03 -.000000000000000D+00 -.000000000000000D+00 -.895521401279859D+03
 0.728363717197785D+03 0.315336640989352D+03 -.391302803520994D+03 -.512185145563924D+03
 0.403130178777429D+02 0.435469503856353D+00 0.436936810476699D+01 -.400731630781434D+02
 0.863110918245934D+03 -.319095172463660D+03 0.371489479972238D+03 0.710728003089566D+03
 0.159255149238256D+03 0.332306197045092D+01 0.154439554439883D+02 -.158469694447499D+03
0.177774857395D-04 0.000000000000D+00 0.000000000000D+00 0.460575258450D-04 0.000000000000D+00  6 1 4 25 3 2 21 0 0.32713160D+00 0.58023341D-01 0.26406677D+06 0.26406677D+06 0.26406677D+06 0.10886751D+01  1  2  2  3  6  4        3 0.700276095280D-05 0.100000000000D+01
0.772816951111D-05 0.000000000000D+00 -.682702261591D-07 0.460575258450D-04 0.000000000000D+00  6 1 4 25 3 2 21 2 0.32713160D+00 0.58023341D-01 0.26406677D+06 0.26406677D+06 0.26406677D+06 0.10886751D+01  1  2  3  3  6  4        3 0.360804705109D-05 0.100000000000D+01
-.127084801542D-04 0.000000000000D+00 0.000000000000D+00 0.460575258450D-04 0.000000000000D+00  6 1 4 25 3 2 21 2 0.32713160D+00 0.58023341D-01 0.26406677D+06 0.26406677D+06 0.26406677D+06 0.10886751D+01  1  2 15  3  6  4        3 -.593320245865D-05 0.100000000000D+01
-.117216478571D+00 0.000000000000D+00 0.000000000000D+00 0.460575258450D-04 0.000000000000D+00  6 1 4 25 3 2 21 2 0.32713160D+00 0.58023341D-01 0.26406677D+06 0.26406677D+06 0.26406677D+06 0.10886751D+01  1  2  4  3  6  4        3 -.547248050448D-01 0.100000000000D+01
-.310635012969D-01 0.000000000000D+00 0.000000000000D+00 0.460575258450D-04 0.000000000000D+00  6 1 4 25 3 2 21 2 0.32713160D+00 0.58023341D-01 0.26406677D+06 0.26406677D+06 0.26406677D+06 0.10886751D+01  1  2  5  3  6  4        3 -.145026029889D-01 0.100000000000D+01
0.981844337517D-01 0.000000000000D+00 -.000000000000D+00 0.460575258450D-04 0.000000000000D+00  6 1 4 25 3 2 21 2 0.32713160D+00 0.58023341D-01 0.26406677D+06 0.26406677D+06 0.26406677D+06 0.10886751D+01  1  2  6  3  6  4        3 0.458393227726D-01 0.100000000000D+01
0.323465900968D-01 0.000000000000D+00 0.000000000000D+00 0.460575258450D-04 0.132448154361D-03  6 1 4 25 3 2 21 2 0.32713160D+00 0.58023341D-01 0.26407779D+06 0.26407779D+06 0.26407779D+06 0.10886738D+01  1  2 11  3  6  4        3 0.151015711053D-01 0.100000000000D+01
  </mgrwgt>
  </event>
  <event>
  5     66 -.19826370E-05 0.19813551E+02 0.75467711E-02 0.95384362E-01
        1 -1    0    0  502    0 0.00000000E+00 0.00000000E+00 0.14001200E+04 0.14001200E+04 0.32000000E+00 0.0000E+00 0.9000E+01
        4 -1    0    0  501    0 0.00000000E+00 0.00000000E+00 -.30090959E+03 0.30091358E+03 0.15500000E+01 0.0000E+00 0.9000E+01
       25  1    1    2    0    0 -.11604567E+03 0.44008842E+03 0.23244504E+03 0.52611796E+03 0.12500000E+03 0.0000E+00 0.9000E+01
        3  1    1    2  501    0 0.57445255E+01 -.18963237E+02 -.10671005E+03 0.10853520E+03 0.50000000E+00 0.0000E+00 0.9000E+01
        2  1    1    2  502    0 0.11030115E+03 -.42112518E+03 0.97347541E+03 0.10663804E+04 0.32000000E+00 0.0000E+00 0.9000E+01
#aMCatNLO 1  0  0  1  5 0.11394661D+02 0.00000000D+00  -5  6  0 0.00000000D+00 0.00000000D+00 0.00000000D+00 0.00000000D+00 0.00000000D+00
  <mgrwgt>
 -.7062185694D-02    9    2    0
 0.649086242071735D+03 0.000000000000000D+00 0.000000000000000D+00 0.649086242071735D+03
 0.649086242071735D+03 0.000000000000000D+00 0.000000000000000D+00 -.649086242071735D+03
 0.492580422827053D+03 -.116047032070926D+03 0.440093789583789D+03 -.140929115763165D+03
 0.232551738183963D+03 0.574430797317159D+01 -.189625878498310D+02 -.231706137424819D+03
 0.573040323132453D+03 0.110302724097755D+03 -.421131201733958D+03 0.372635253187984D+03
 0.000000000000000D+00 0.000000000000000D+00 -.000000000000000D+00 0.000000000000000D+00
 0.682716589256562D+03 0.000000000000000D+00 0.000000000000000D+00 0.682716589256562D+03
 0.650077150771692D+03 0.000000000000000D+00 0.000000000000000D+00 -.650077150771692D+03
 0.496462382158219D+03 -.116047362973065D+03 0.444434349229922D+03 -.140929115763165D+03
 0.232394249098070D+03 0.574415241709176D+01 -.169221040812265D+02 -.231706137424819D+03
 0.569365860030232D+03 0.110302341885127D+03 -.416117584372674D+03 0.372635253187984D+03
 0.345712487417337D+02 0.868670845904422D-03 -.113946607760215D+02 0.326394384848703D+02
0.950809086916D-04 0.000000000000D+00 0.000000000000D+00 0.219473418060D-04 0.000000000000D+00  6 1 4 25 3 2 21 0 0.21540338D+00 0.46294092D-01 0.21489728D+06 0.21489728D+06 0.21489728D+06 0.10954371D+01  1  2  2  1  6  1        1 0.191995043270D-03 0.100000000000D+01
0.512348013624D-04 0.000000000000D+00 -.365135724754D-06 0.219473418060D-04 0.000000000000D+00  6 1 4 25 3 2 21 2 0.21540338D+00 0.46294092D-01 0.21489728D+06 0.21489728D+06 0.21489728D+06 0.10954371D+01  1  2  3  1  6  1        1 0.124147113263D-03 0.100000000000D+01
-.581467000838D-04 0.000000000000D+00 0.000000000000D+00 0.219473418060D-04 0.000000000000D+00  6 1 4 25 3 2 21 2 0.21540338D+00 0.46294092D-01 0.21489728D+06 0.21489728D+06 0.21489728D+06 0.10954371D+01  1  2 15  1  6  1        1 -.140895343969D-03 0.100000000000D+01
0.356497370113D-02 0.000000000000D+00 0.000000000000D+00 0.219473418060D-04 0.000000000000D+00  6 1 4 25 3 2 21 2 0.22764187D+00 0.46294092D-01 0.21892738D+06 0.21892738D+06 0.21892738D+06 0.10948220D+01  1  2 12  1  6  1        1 0.762091916404D-02 0.100000000000D+01
-.701688648130D-02 0.000000000000D+00 0.000000000000D+00 0.219473418060D-04 0.000000000000D+00  6 1 4 25 3 2 21 2 0.21540338D+00 0.46294092D-01 0.21489728D+06 0.21489728D+06 0.21489728D+06 0.10954371D+01  1  2  4  1  6  1        1 -.170026266830D-01 0.100000000000D+01
-.821108613663D-02 0.000000000000D+00 -.434816506199D-03 0.219473418060D-04 0.000000000000D+00  6 1 4 25 3 2 21 2 0.22669872D+00 0.46294092D-01 0.21489728D+06 0.21489728D+06 0.21489728D+06 0.10954371D+01  1  2  5  1  6  1        1 -.177495452513D-01 0.100000000000D+01
0.822313418524D-02 0.000000000000D+00 0.434249215365D-03 0.219473418060D-04 0.000000000000D+00  6 1 4 25 3 2 21 2 0.21540338D+00 0.46294092D-01 0.21489728D+06 0.21489728D+06 0.21489728D+06 0.10954371D+01  1  2  6  1  6  1        1 0.199254870502D-01 0.100000000000D+01
0.662461955299D-04 0.000000000000D+00 0.000000000000D+00 0.219473418060D-04 0.000000000000D+00  6 21 4 25 3 2 -1 2 0.22764187D+00 0.46294092D-01 0.21892738D+06 0.21892738D+06 0.21892738D+06 0.10948220D+01  1  2 12  5  6  1        1 0.113389857297D-03 0.100000000000D+01
-.832611923133D-04 0.000000000000D+00 -.386532857638D-05 0.219473418060D-04 0.000000000000D+00  6 21 4 25 3 2 -1 2 0.22669872D+00 0.46294092D-01 0.21489728D+06 0.21489728D+06 0.21489728D+06 0.10954371D+01  1  2  5  5  6  1        1 -.145056643880D-03 0.100000000000D+01
  </mgrwgt>
  </event>
</LesHouchesEvents>
