<event>
 5    0  0.1856407E+000  0.4873048E+03  0.7546771E-02  0.1017147E+00
         21   -1    0    0  502  501  0.00000000000E+00  0.00000000000E+00  0.22389611226E+03  0.22389611226E+03  0.00000000000E+00 0.  1.
         21   -1    0    0  503  502 -0.00000000000E+00 -0.00000000000E+00 -0.39158020136E+04  0.39158020136E+04  0.00000000000E+00 0.  1.
         25    1    1    2    0    0 -0.39163485258E+02 -0.47085706321E+03 -0.80449257080E+02  0.49531528900E+03  0.12500000000E+03 0.  0.
         21    1    1    2  503  504  0.48438819966E+02  0.45015156491E+03 -0.35521067751E+04  0.35808442151E+04  0.00000000000E+00 0.  1.
         21    1    1    2  504  501 -0.92753347076E+01  0.20705498302E+02 -0.59349869126E+02  0.63538621791E+02  0.00000000000E+00 0.  1.
<mgrwt>
<rscale>  4 0.48730476E+03</rscale>
<asrwt>0</asrwt>
<pdfrwt beam="1">  1       21 0.34445557E-01 0.48730476E+03</pdfrwt>
<pdfrwt beam="2">  1       21 0.60243105E+00 0.48730476E+03</pdfrwt>
<totfact> 0.18313461E+00</totfact>
</mgrwt>
</event>
<event>
 5    0  0.1856407E+000  0.2674827E+03  0.7546771E-02  0.1102729E+00
         21   -1    0    0  502  501  0.00000000000E+00  0.00000000000E+00  0.42264034048E+03  0.42264034048E+03  0.00000000000E+00 0.  1.
         21   -1    0    0  503  502 -0.00000000000E+00 -0.00000000000E+00 -0.68778399036E+03  0.68778399036E+03  0.00000000000E+00 0.  1.
         25    1    1    2    0    0 -0.17271301800E+03  0.16753826595E+03  0.34427681407E+03  0.43823553239E+03  0.12500000000E+03 0.  0.
         21    1    1    2  503  504  0.20146733748E+02 -0.29465209675E+02 -0.29026146621E+03  0.29244795815E+03  0.00000000000E+00 0.  1.
         21    1    1    2  504  501  0.15256628425E+03 -0.13807305627E+03 -0.31915899774E+03  0.37974084030E+03  0.00000000000E+00 0.  1.
<mgrwt>
<rscale>  4 0.26748274E+03</rscale>
<asrwt>0</asrwt>
<pdfrwt beam="1">  1       21 0.65021591E-01 0.26748274E+03</pdfrwt>
<pdfrwt beam="2">  1       21 0.10581292E+00 0.26748274E+03</pdfrwt>
<totfact> 0.14687467E+03</totfact>
</mgrwt>
</event>
<event>
 5    0  0.1856407E+000  0.2401319E+03  0.7546771E-02  0.1119705E+00
         21   -1    0    0  502  501  0.00000000000E+00  0.00000000000E+00  0.13660561946E+03  0.13660561946E+03  0.00000000000E+00 0. -1.
         21   -1    0    0  503  502 -0.00000000000E+00 -0.00000000000E+00 -0.63757223052E+03  0.63757223052E+03  0.00000000000E+00 0. -1.
         25    1    1    2    0    0  0.14534784580E+02  0.20451662899E+03 -0.10462504266E+02  0.24035967942E+03  0.12500000000E+03 0.  0.
         21    1    1    2  503  504 -0.46242473416E+01 -0.74548205303E+02 -0.12321613797E+03  0.14408690167E+03  0.00000000000E+00 0. -1.
         21    1    1    2  504  501 -0.99105372381E+01 -0.12996842368E+03 -0.36728796883E+03  0.38973126889E+03  0.00000000000E+00 0.  1.
<mgrwt>
<rscale>  4 0.24013186E+03</rscale>
<asrwt>0</asrwt>
<pdfrwt beam="1">  1       21 0.21016249E-01 0.24013186E+03</pdfrwt>
<pdfrwt beam="2">  1       21 0.98088036E-01 0.24013186E+03</pdfrwt>
<totfact> 0.17578377E+04</totfact>
</mgrwt>
</event>
<event>
 5    0  0.1856407E+000  0.2302238E+03  0.7546771E-02  0.1126482E+00
         21   -1    0    0  502  501  0.00000000000E+00  0.00000000000E+00  0.93837406054E+03  0.93837406054E+03  0.00000000000E+00 0. -1.
         21   -1    0    0  503  502 -0.00000000000E+00 -0.00000000000E+00 -0.18167438352E+03  0.18167438352E+03  0.00000000000E+00 0.  1.
         25    1    1    2    0    0 -0.56919368294E+02  0.21922794512E+03  0.80629221302E+03  0.84677791609E+03  0.12500000000E+03 0.  0.
         21    1    1    2  503  504  0.55671602940E+02 -0.11017796490E+03  0.42474965429E+02  0.13054743970E+03  0.00000000000E+00 0. -1.
         21    1    1    2  504  501  0.12477653544E+01 -0.10904998022E+03 -0.92067501432E+02  0.14272308827E+03  0.00000000000E+00 0.  1.
<mgrwt>
<rscale>  4 0.23022378E+03</rscale>
<asrwt>0</asrwt>
<pdfrwt beam="1">  1       21 0.14436524E+00 0.23022378E+03</pdfrwt>
<pdfrwt beam="2">  1       21 0.27949906E-01 0.23022378E+03</pdfrwt>
<totfact> 0.39179418E+03</totfact>
</mgrwt>
</event>
<event>
 5    0  0.1856407E+000  0.2435710E+03  0.7546771E-02  0.1117437E+00
         21   -1    0    0  502  501  0.00000000000E+00  0.00000000000E+00  0.28836118192E+03  0.28836118192E+03  0.00000000000E+00 0.  1.
         21   -1    0    0  503  502 -0.00000000000E+00 -0.00000000000E+00 -0.70493942219E+03  0.70493942219E+03  0.00000000000E+00 0.  1.
         25    1    1    2    0    0  0.12384568798E+03 -0.20027857883E+03  0.17752555153E+03  0.32029608960E+03  0.12500000000E+03 0.  0.
         21    1    1    2  503  504 -0.99213215236E+02  0.49823695311E+02 -0.44903646605E+03  0.46255746728E+03  0.00000000000E+00 0.  1.
         21    1    1    2  504  501 -0.24632472744E+02  0.15045488352E+03 -0.14506732574E+03  0.21044704723E+03  0.00000000000E+00 0.  1.
<mgrwt>
<rscale>  4 0.24357096E+03</rscale>
<asrwt>0</asrwt>
<pdfrwt beam="1">  1       21 0.44363259E-01 0.24357096E+03</pdfrwt>
<pdfrwt beam="2">  1       21 0.10845222E+00 0.24357096E+03</pdfrwt>
<totfact> 0.31691960E+03</totfact>
</mgrwt>
</event>
<event>
 5    0  0.1856407E+000  0.3787161E+03  0.7546771E-02  0.1051409E+00
         21   -1    0    0  502  501  0.00000000000E+00  0.00000000000E+00  0.91924970405E+03  0.91924970405E+03  0.00000000000E+00 0.  1.
         21   -1    0    0  503  502 -0.00000000000E+00 -0.00000000000E+00 -0.33154179129E+03  0.33154179129E+03  0.00000000000E+00 0.  1.
         25    1    1    2    0    0  0.33530076740E+03 -0.12847818928E+03  0.75465687838E+03  0.84502381850E+03  0.12500000000E+03 0.  0.
         21    1    1    2  503  504 -0.33070469836E+03  0.10895009385E+03 -0.16586374785E+03  0.38567668236E+03  0.00000000000E+00 0.  1.
         21    1    1    2  504  501 -0.45960690375E+01  0.19528095425E+02 -0.10852177779E+01  0.20090994479E+02  0.00000000000E+00 0.  1.
<mgrwt>
<rscale>  4 0.37871614E+03</rscale>
<asrwt>0</asrwt>
<pdfrwt beam="1">  1       21 0.14142303E+00 0.37871614E+03</pdfrwt>
<pdfrwt beam="2">  1       21 0.51006430E-01 0.37871614E+03</pdfrwt>
<totfact> 0.11157261E+03</totfact>
</mgrwt>
</event>
<event>
 5    0  0.2329693E+000  0.2276494E+03  0.7546771E-02  0.1128305E+00
         21   -1    0    0  502  501  0.00000000000E+00  0.00000000000E+00  0.64285948828E+03  0.64285948828E+03  0.00000000000E+00 0. -1.
         21   -1    0    0  503  502 -0.00000000000E+00 -0.00000000000E+00 -0.15260840346E+03  0.15260840346E+03  0.00000000000E+00 0. -1.
         25    1    1    2    0    0  0.68588772149E+02 -0.21167597648E+03  0.47081226462E+03  0.53553741905E+03  0.12500000000E+03 0.  0.
         21    1    1    2  503  504  0.31081006509E+02  0.10894375165E+03 -0.10230627994E+02  0.11375164059E+03  0.00000000000E+00 0. -1.
         21    1    1    2  504  501 -0.99669778659E+02  0.10273222484E+03  0.29669448187E+02  0.14617883210E+03  0.00000000000E+00 0. -1.
<mgrwt>
<rscale>  4 0.22764936E+03</rscale>
<asrwt>0</asrwt>
<pdfrwt beam="1">  1       21 0.98901458E-01 0.22764936E+03</pdfrwt>
<pdfrwt beam="2">  1       21 0.23478216E-01 0.22764936E+03</pdfrwt>
<totfact> 0.14069934E+04</totfact>
</mgrwt>
</event>
