<event>
 5    0  0.1911311E+001  0.3606002E+03  0.7546771E-02  0.1058346E+00
         21   -1    0    0  504  501  0.00000000000E+00  0.00000000000E+00  0.40940239748E+03  0.40940239748E+03  0.00000000000E+00 0.  1.
         21   -1    0    0  503  502 -0.00000000000E+00 -0.00000000000E+00 -0.62804208952E+03  0.62804208952E+03  0.00000000000E+00 0.  1.
         25    1    1    2    0    0  0.96780169297E+02 -0.34867679877E+03 -0.30973664952E+03  0.49244665014E+03  0.12500000000E+03 0.  0.
         21    1    1    2  503  501  0.15732910762E+01  0.30421947840E+02 -0.13760612245E+03  0.14093762837E+03  0.00000000000E+00 0.  1.
         21    1    1    2  504  502 -0.98353460373E+02  0.31825485093E+03  0.22870307994E+03  0.40406020849E+03  0.00000000000E+00 0.  1.
<mgrwt>
<rscale>  4 0.36060020E+03</rscale>
<asrwt>0</asrwt>
<pdfrwt beam="1">  1       21 0.62984984E-01 0.36060020E+03</pdfrwt>
<pdfrwt beam="2">  1       21 0.96621860E-01 0.36060020E+03</pdfrwt>
<totfact> 0.18583791E+03</totfact>
</mgrwt>
</event>
<event>
 5    0  0.1911311E+001  0.2416212E+03  0.7546771E-02  0.1118718E+00
         21   -1    0    0  504  501  0.00000000000E+00  0.00000000000E+00  0.23833615061E+03  0.23833615061E+03  0.00000000000E+00 0.  1.
         21   -1    0    0  503  502 -0.00000000000E+00 -0.00000000000E+00 -0.13292579071E+04  0.13292579071E+04  0.00000000000E+00 0.  1.
         25    1    1    2    0    0 -0.35045261184E+02 -0.29066506258E+03 -0.27913920740E-01  0.31833842010E+03  0.12500000000E+03 0.  0.
         21    1    1    2  503  501  0.30035009296E+02  0.19970500376E+03 -0.11315981416E+04  0.11494775093E+04  0.00000000000E+00 0.  1.
         21    1    1    2  504  502  0.50102518886E+01  0.90960058817E+02  0.40704299051E+02  0.99778128291E+02  0.00000000000E+00 0.  1.
<mgrwt>
<rscale>  4 0.24162120E+03</rscale>
<asrwt>0</asrwt>
<pdfrwt beam="1">  1       21 0.36667100E-01 0.24162120E+03</pdfrwt>
<pdfrwt beam="2">  1       21 0.20450121E+00 0.24162120E+03</pdfrwt>
<totfact> 0.85648386E+02</totfact>
</mgrwt>
</event>
<event>
 5    0  0.1911311E+001  0.2458939E+03  0.7546771E-02  0.1115928E+00
         21   -1    0    0  503  501  0.00000000000E+00  0.00000000000E+00  0.35213526833E+03  0.35213526833E+03  0.00000000000E+00 0.  1.
         21   -1    0    0  501  502 -0.00000000000E+00 -0.00000000000E+00 -0.37514170463E+03  0.37514170463E+03  0.00000000000E+00 0.  1.
         25    1    1    2    0    0 -0.19544822490E+03  0.88559117009E+02 -0.28226156266E+03  0.37595121436E+03  0.12500000000E+03 0.  0.
         21    1    1    2  503  504  0.93651418646E+01 -0.28581162232E+02  0.48366224208E+01  0.30462790960E+02  0.00000000000E+00 0. -1.
         21    1    1    2  504  502  0.18608308304E+03 -0.59977954777E+02  0.25441850394E+03  0.32086296763E+03  0.00000000000E+00 0.  1.
<mgrwt>
<rscale>  4 0.24589389E+03</rscale>
<asrwt>0</asrwt>
<pdfrwt beam="1">  1       21 0.54174657E-01 0.24589389E+03</pdfrwt>
<pdfrwt beam="2">  1       21 0.57714108E-01 0.24589389E+03</pdfrwt>
<totfact> 0.87628884E+03</totfact>
</mgrwt>
</event>
<event>
 5    0  0.1911311E+001  0.3420366E+03  0.7546771E-02  0.1065932E+00
         21   -1    0    0  504  501  0.00000000000E+00  0.00000000000E+00  0.11393957917E+03  0.11393957917E+03  0.00000000000E+00 0.  1.
         21   -1    0    0  503  502 -0.00000000000E+00 -0.00000000000E+00 -0.25724179615E+04  0.25724179615E+04  0.00000000000E+00 0.  1.
         25    1    1    2    0    0 -0.25811713137E+03 -0.19629873755E+03 -0.33626739012E+03  0.48358908748E+03  0.12500000000E+03 0.  0.
         21    1    1    2  503  501  0.23900937044E+03  0.20906750254E+03 -0.21461902977E+04  0.21695546763E+04  0.00000000000E+00 0.  1.
         21    1    1    2  504  502  0.19107760931E+02 -0.12768764996E+02  0.23979305425E+02  0.33213776900E+02  0.00000000000E+00 0. -1.
<mgrwt>
<rscale>  4 0.34203662E+03</rscale>
<asrwt>0</asrwt>
<pdfrwt beam="1">  1       21 0.17529166E-01 0.34203662E+03</pdfrwt>
<pdfrwt beam="2">  1       21 0.39575661E+00 0.34203662E+03</pdfrwt>
<totfact> 0.22674536E+02</totfact>
</mgrwt>
</event>
<event>
 5    0  0.1911311E+001  0.2777308E+03  0.7546771E-02  0.1096935E+00
         21   -1    0    0  503  501  0.00000000000E+00  0.00000000000E+00  0.42744840954E+03  0.42744840954E+03  0.00000000000E+00 0. -1.
         21   -1    0    0  504  502 -0.00000000000E+00 -0.00000000000E+00 -0.36965797577E+03  0.36965797577E+03  0.00000000000E+00 0. -1.
         25    1    1    2    0    0  0.21893253084E+03  0.18694373469E+03 -0.93518120880E+02  0.32749053717E+03  0.12500000000E+03 0.  0.
         21    1    1    2  503  502 -0.27862842808E+02 -0.43022263508E+02 -0.10633634870E+03  0.11804521261E+03  0.00000000000E+00 0. -1.
         21    1    1    2  504  501 -0.19106968804E+03 -0.14392147118E+03  0.25764490335E+03  0.35157063554E+03  0.00000000000E+00 0. -1.
<mgrwt>
<rscale>  4 0.27773078E+03</rscale>
<asrwt>0</asrwt>
<pdfrwt beam="1">  1       21 0.65761294E-01 0.27773078E+03</pdfrwt>
<pdfrwt beam="2">  1       21 0.56870457E-01 0.27773078E+03</pdfrwt>
<totfact> 0.58442180E+03</totfact>
</mgrwt>
</event>
