<event>
 5    0  0.4930573E+000  0.2075601E+03  0.7546771E-02  0.1143513E+00
         21   -1    0    0  503  502  0.00000000000E+00  0.00000000000E+00  0.25330270820E+03  0.25330270820E+03  0.00000000000E+00 0. -1.
          2   -1    0    0  502    0 -0.00000000000E+00 -0.00000000000E+00 -0.38507429116E+03  0.38507429116E+03  0.00000000000E+00 0. -1.
         25    1    1    2    0    0 -0.48854922733E+02  0.19768106331E+03  0.66820426734E+02  0.24810194618E+03  0.12500000000E+03 0.  0.
         21    1    1    2  503  501 -0.18380256332E+02 -0.14416430477E+03  0.27938896608E+02  0.14799244081E+03  0.00000000000E+00 0. -1.
          2    1    1    2  501    0  0.67235179065E+02 -0.53516758546E+02 -0.22653090630E+03  0.24228261237E+03  0.00000000000E+00 0. -1.
<mgrwt>
<rscale>  4 0.20756006E+03</rscale>
<asrwt>0</asrwt>
<pdfrwt beam="1">  1       21 0.38969647E-01 0.20756006E+03</pdfrwt>
<pdfrwt beam="2">  1        2 0.59242199E-01 0.20756006E+03</pdfrwt>
<totfact> 0.65567737E+03</totfact>
</mgrwt>
</event>
<event>
 5    0  0.4930573E+000  0.1983089E+03  0.7546771E-02  0.1151174E+00
          2   -1    0    0  502    0 -0.00000000000E+00  0.00000000000E+00  0.11034773416E+04  0.11034773416E+04  0.00000000000E+00 0. -1.
         21   -1    0    0  503  502  0.00000000000E+00 -0.00000000000E+00 -0.42955043711E+03  0.42955043711E+03  0.00000000000E+00 0. -1.
         25    1    1    2    0    0 -0.85485800029E+02  0.21768963921E+03 -0.31817177127E+03  0.41419183606E+03  0.12500000000E+03 0.  0.
         21    1    1    2  503  501  0.72641262948E+02 -0.65384569316E+02 -0.16157438881E+02  0.99060374613E+02  0.00000000000E+00 0. -1.
          2    1    1    2  501    0  0.12844537081E+02 -0.15230506989E+03  0.10082561146E+04  0.10197755680E+04  0.00000000000E+00 0. -1.
<mgrwt>
<rscale>  4 0.19830892E+03</rscale>
<asrwt>0</asrwt>
<pdfrwt beam="1">  1       21 0.66084683E-01 0.19830892E+03</pdfrwt>
<pdfrwt beam="2">  1        2 0.16976574E+00 0.19830892E+03</pdfrwt>
<totfact> 0.60715977E+02</totfact>
</mgrwt>
</event>
<event>
 5    0  0.4999679E+000  0.2164472E+03  0.7546771E-02  0.1136560E+00
          2   -1    0    0  502    0 -0.00000000000E+00  0.00000000000E+00  0.23824648487E+04  0.23824648487E+04  0.00000000000E+00 0. -1.
         21   -1    0    0  503  502  0.00000000000E+00 -0.00000000000E+00 -0.20685902862E+03  0.20685902862E+03  0.00000000000E+00 0. -1.
         25    1    1    2    0    0  0.10088130584E+03 -0.17455508931E+03 -0.12350271967E+03  0.26744053328E+03  0.12500000000E+03 0.  0.
         21    1    1    2  503  501 -0.25666538937E+02  0.15124008597E+02  0.19806005711E+02  0.35774078873E+02  0.00000000000E+00 0.  1.
          2    1    1    2  501    0 -0.75214766900E+02  0.15943108072E+03  0.22793025340E+04  0.22861092651E+04  0.00000000000E+00 0. -1.
<mgrwt>
<rscale>  4 0.21644720E+03</rscale>
<asrwt>0</asrwt>
<pdfrwt beam="1">  1       21 0.31824468E-01 0.21644720E+03</pdfrwt>
<pdfrwt beam="2">  1        2 0.36653303E+00 0.21644720E+03</pdfrwt>
<totfact> 0.56530627E+02</totfact>
</mgrwt>
</event>
<event>
 5    0  0.4930573E+000  0.2716925E+03  0.7546771E-02  0.1100315E+00
          2   -1    0    0  502    0 -0.00000000000E+00  0.00000000000E+00  0.55374355664E+03  0.55374355664E+03  0.00000000000E+00 0. -1.
         21   -1    0    0  503  502  0.00000000000E+00 -0.00000000000E+00 -0.30626812992E+03  0.30626812992E+03  0.00000000000E+00 0.  1.
         25    1    1    2    0    0 -0.19875037869E+03 -0.17038876682E+03 -0.18333133472E+03  0.34317549909E+03  0.12500000000E+03 0.  0.
         21    1    1    2  503  501  0.14655110370E+02  0.18246969489E+02 -0.95519516273E+00  0.23422991980E+02  0.00000000000E+00 0.  1.
          2    1    1    2  501    0  0.18409526832E+03  0.15214179733E+03  0.43176195660E+03  0.49341319549E+03  0.00000000000E+00 0. -1.
<mgrwt>
<rscale>  4 0.27169248E+03</rscale>
<asrwt>0</asrwt>
<pdfrwt beam="1">  1       21 0.47118174E-01 0.27169248E+03</pdfrwt>
<pdfrwt beam="2">  1        2 0.85191316E-01 0.27169248E+03</pdfrwt>
<totfact> 0.29138696E+03</totfact>
</mgrwt>
</event>
<event>
 5    0  0.4930573E+000  0.2670751E+03  0.7546771E-02  0.1102965E+00
         21   -1    0    0  503  502  0.00000000000E+00  0.00000000000E+00  0.41472123085E+03  0.41472123085E+03  0.00000000000E+00 0. -1.
          3   -1    0    0  502    0 -0.00000000000E+00 -0.00000000000E+00 -0.31210381585E+03  0.31210381585E+03  0.00000000000E+00 0.  1.
         25    1    1    2    0    0  0.23978684060E+02 -0.21746937993E+03  0.28950685637E+03  0.38380610779E+03  0.12500000000E+03 0.  0.
         21    1    1    2  503  501  0.42341764396E+01 -0.19676673786E+02  0.19017648260E+02  0.27690624528E+02  0.00000000000E+00 0. -1.
          3    1    1    2  501    0 -0.28212860500E+02  0.23714605371E+03 -0.20590708963E+03  0.31532831438E+03  0.00000000000E+00 0.  1.
<mgrwt>
<rscale>  4 0.26707510E+03</rscale>
<asrwt>0</asrwt>
<pdfrwt beam="1">  1       21 0.63803266E-01 0.26707510E+03</pdfrwt>
<pdfrwt beam="2">  1        3 0.48015972E-01 0.26707510E+03</pdfrwt>
<totfact> 0.47875892E+02</totfact>
</mgrwt>
</event>
<event>
 5    0  0.4930573E+000  0.2372973E+03  0.7546771E-02  0.1121607E+00
          3   -1    0    0  502    0 -0.00000000000E+00  0.00000000000E+00  0.16104146558E+03  0.16104146558E+03  0.00000000000E+00 0. -1.
         21   -1    0    0  503  502  0.00000000000E+00 -0.00000000000E+00 -0.76795052739E+03  0.76795052739E+03  0.00000000000E+00 0.  1.
         25    1    1    2    0    0 -0.21663650245E+03  0.13519711502E+02 -0.55571498099E+03  0.60955581934E+03  0.12500000000E+03 0.  0.
         21    1    1    2  503  501  0.18625150376E+02  0.13076246078E+02 -0.10908102174E+03  0.11142959096E+03  0.00000000000E+00 0.  1.
          3    1    1    2  501    0  0.19801135207E+03 -0.26595957579E+02  0.57886940920E+02  0.20800658268E+03  0.00000000000E+00 0. -1.
<mgrwt>
<rscale>  4 0.23729727E+03</rscale>
<asrwt>0</asrwt>
<pdfrwt beam="1">  1       21 0.11814623E+00 0.23729727E+03</pdfrwt>
<pdfrwt beam="2">  1        3 0.24775610E-01 0.23729727E+03</pdfrwt>
<totfact> 0.40828566E+02</totfact>
</mgrwt>
</event>
<event>
 5    0  0.4930573E+000  0.3195160E+03  0.7546771E-02  0.1075872E+00
         21   -1    0    0  503  502  0.00000000000E+00  0.00000000000E+00  0.29791529621E+03  0.29791529621E+03  0.00000000000E+00 0.  1.
          2   -1    0    0  502    0 -0.00000000000E+00 -0.00000000000E+00 -0.17548834694E+04  0.17548834694E+04  0.00000000000E+00 0. -1.
         25    1    1    2    0    0  0.27194873846E+03  0.73249517522E+02 -0.81708520538E+03  0.87325531262E+03  0.12500000000E+03 0.  0.
         21    1    1    2  503  501  0.17688044221E+02  0.24475158108E+02  0.24319170616E+03  0.24505939325E+03  0.00000000000E+00 0.  1.
          2    1    1    2  501    0 -0.28963678268E+03 -0.97724675631E+02 -0.88307467396E+03  0.93448405973E+03  0.00000000000E+00 0. -1.
<mgrwt>
<rscale>  4 0.31951596E+03</rscale>
<asrwt>0</asrwt>
<pdfrwt beam="1">  1       21 0.45833123E-01 0.31951596E+03</pdfrwt>
<pdfrwt beam="2">  1        2 0.26998207E+00 0.31951596E+03</pdfrwt>
<totfact> 0.54707076E+02</totfact>
</mgrwt>
</event>
<event>
 5    0  0.4930573E+000  0.2520207E+03  0.7546771E-02  0.1112034E+00
          2   -1    0    0  502    0 -0.00000000000E+00  0.00000000000E+00  0.73393665206E+03  0.73393665206E+03  0.00000000000E+00 0. -1.
         21   -1    0    0  503  502  0.00000000000E+00 -0.00000000000E+00 -0.88488714618E+02  0.88488714618E+02  0.00000000000E+00 0. -1.
         25    1    1    2    0    0 -0.15028598777E+03 -0.14975751520E+03  0.26410425131E+03  0.36109451261E+03  0.12500000000E+03 0.  0.
         21    1    1    2  503  501  0.11069842353E+02 -0.25365211152E+02  0.13485794477E+02  0.30786393085E+02  0.00000000000E+00 0. -1.
          2    1    1    2  501    0  0.13921614542E+03  0.17512272635E+03  0.36785789166E+03  0.43054446099E+03  0.00000000000E+00 0. -1.
<mgrwt>
<rscale>  4 0.25202071E+03</rscale>
<asrwt>0</asrwt>
<pdfrwt beam="1">  1       21 0.13613649E-01 0.25202071E+03</pdfrwt>
<pdfrwt beam="2">  1        2 0.11291333E+00 0.25202071E+03</pdfrwt>
<totfact> 0.23131741E+04</totfact>
</mgrwt>
</event>
<event>
 5    0  0.4930573E+000  0.1906265E+03  0.7546771E-02  0.1157898E+00
         21   -1    0    0  503  502  0.00000000000E+00  0.00000000000E+00  0.15688393553E+03  0.15688393553E+03  0.00000000000E+00 0.  1.
          4   -1    0    0  502    0 -0.00000000000E+00 -0.00000000000E+00 -0.88683126295E+03  0.88683126295E+03  0.00000000000E+00 0.  1.
         25    1    1    2    0    0  0.69604846205E+02  0.21487029657E+03 -0.10453083280E+03  0.27850632662E+03  0.12500000000E+03 0.  0.
         21    1    1    2  503  501 -0.65708704973E+02 -0.77164583368E+02  0.21652293103E+02  0.10363796907E+03  0.00000000000E+00 0.  1.
          4    1    1    2  501    0 -0.38961412315E+01 -0.13770571320E+03 -0.64706878774E+03  0.66157090280E+03  0.00000000000E+00 0.  1.
<mgrwt>
<rscale>  4 0.19062648E+03</rscale>
<asrwt>0</asrwt>
<pdfrwt beam="1">  1       21 0.24135990E-01 0.19062648E+03</pdfrwt>
<pdfrwt beam="2">  1        4 0.13643558E+00 0.19062648E+03</pdfrwt>
<totfact> 0.27527836E+02</totfact>
</mgrwt>
</event>
<event>
 5    0  0.4930573E+000  0.2941756E+03  0.7546771E-02  0.1088189E+00
         21   -1    0    0  503  502  0.00000000000E+00  0.00000000000E+00  0.26567697345E+02  0.26567697345E+02  0.00000000000E+00 0. -1.
          2   -1    0    0  502    0 -0.00000000000E+00 -0.00000000000E+00 -0.32157857601E+04  0.32157857601E+04  0.00000000000E+00 0. -1.
         25    1    1    2    0    0 -0.39754610901E+02  0.26331317301E+03 -0.19438369481E+04  0.19659708383E+04  0.12500000000E+03 0.  0.
         21    1    1    2  503  501  0.16383729031E+02 -0.48461663941E+02 -0.12018509175E+03  0.13061935434E+03  0.00000000000E+00 0.  1.
          2    1    1    2  501    0  0.23370881870E+02 -0.21485150906E+03 -0.11251960229E+04  0.11457632648E+04  0.00000000000E+00 0. -1.
<mgrwt>
<rscale>  4 0.29417555E+03</rscale>
<asrwt>0</asrwt>
<pdfrwt beam="1">  1       21 0.40873380E-02 0.29417555E+03</pdfrwt>
<pdfrwt beam="2">  1        2 0.49473627E+00 0.29417555E+03</pdfrwt>
<totfact> 0.73459421E+03</totfact>
</mgrwt>
</event>
<event>
 5    0  0.4930573E+000  0.3390853E+03  0.7546771E-02  0.1067186E+00
          2   -1    0    0  502    0 -0.00000000000E+00  0.00000000000E+00  0.15472157658E+04  0.15472157658E+04  0.00000000000E+00 0.  1.
         21   -1    0    0  503  502  0.00000000000E+00 -0.00000000000E+00 -0.12565445776E+04  0.12565445776E+04  0.00000000000E+00 0. -1.
         25    1    1    2    0    0 -0.46007566187E+02 -0.29347292401E+03 -0.93366086066E+03  0.98771992791E+03  0.12500000000E+03 0.  0.
         21    1    1    2  503  501 -0.55395601659E+02 -0.53798985617E+01 -0.27667420318E+03  0.28221663788E+03  0.00000000000E+00 0.  1.
          2    1    1    2  501    0  0.10140316785E+03  0.29885282257E+03  0.15010062520E+04  0.15338237776E+04  0.00000000000E+00 0.  1.
<mgrwt>
<rscale>  4 0.33908527E+03</rscale>
<asrwt>0</asrwt>
<pdfrwt beam="1">  1       21 0.19331455E+00 0.33908527E+03</pdfrwt>
<pdfrwt beam="2">  1        2 0.23803319E+00 0.33908527E+03</pdfrwt>
<totfact> 0.21419024E+01</totfact>
</mgrwt>
</event>
<event>
 5    0  0.4930573E+000  0.2304523E+03  0.7546771E-02  0.1126322E+00
          2   -1    0    0  502    0 -0.00000000000E+00  0.00000000000E+00  0.17569716297E+04  0.17569716297E+04  0.00000000000E+00 0. -1.
         21   -1    0    0  503  502  0.00000000000E+00 -0.00000000000E+00 -0.16267486756E+03  0.16267486756E+03  0.00000000000E+00 0. -1.
         25    1    1    2    0    0  0.14374023876E+03 -0.24017888704E+03  0.16741754656E+03  0.34928611326E+03  0.12500000000E+03 0.  0.
         21    1    1    2  503  501 -0.12446108513E+03  0.51852342813E+02  0.39448470143E+01  0.13488806094E+03  0.00000000000E+00 0. -1.
          2    1    1    2  501    0 -0.19279153633E+02  0.18832654422E+03  0.14229343685E+04  0.14354723230E+04  0.00000000000E+00 0. -1.
<mgrwt>
<rscale>  4 0.23045232E+03</rscale>
<asrwt>0</asrwt>
<pdfrwt beam="1">  1       21 0.25026904E-01 0.23045232E+03</pdfrwt>
<pdfrwt beam="2">  1        2 0.27030331E+00 0.23045232E+03</pdfrwt>
<totfact> 0.19058876E+03</totfact>
</mgrwt>
</event>
<event>
 5    0  0.4930573E+000  0.2340476E+03  0.7546771E-02  0.1123823E+00
         -1   -1    0    0    0  501 -0.00000000000E+00  0.00000000000E+00  0.59596184244E+03  0.59596184244E+03  0.00000000000E+00 0. -1.
         21   -1    0    0  501  502  0.00000000000E+00 -0.00000000000E+00 -0.16479537032E+03  0.16479537032E+03  0.00000000000E+00 0. -1.
         25    1    1    2    0    0 -0.20155327542E+03 -0.14473939307E+03  0.19110007680E+03  0.33722018637E+03  0.12500000000E+03 0.  0.
         21    1    1    2  503  502  0.12266631145E+03  0.13282707089E+03  0.11185140774E+02  0.18114955727E+03  0.00000000000E+00 0. -1.
         -1    1    1    2    0  503  0.78886963975E+02  0.11912322182E+02  0.22888125454E+03  0.24238746912E+03  0.00000000000E+00 0. -1.
<mgrwt>
<rscale>  4 0.23404757E+03</rscale>
<asrwt>0</asrwt>
<pdfrwt beam="1">  1       21 0.25353134E-01 0.23404757E+03</pdfrwt>
<pdfrwt beam="2">  1       -1 0.91686436E-01 0.23404757E+03</pdfrwt>
<totfact> 0.16638031E+03</totfact>
</mgrwt>
</event>
<event>
 5    0  0.4930573E+000  0.3902019E+03  0.7546771E-02  0.1047226E+00
         21   -1    0    0  503  502  0.00000000000E+00  0.00000000000E+00  0.22700294924E+03  0.22700294924E+03  0.00000000000E+00 0. -1.
          2   -1    0    0  502    0 -0.00000000000E+00 -0.00000000000E+00 -0.15321895075E+04  0.15321895075E+04  0.00000000000E+00 0. -1.
         25    1    1    2    0    0  0.20271991007E+03 -0.34432675248E+03 -0.64098953241E+02  0.42354450795E+03  0.12500000000E+03 0.  0.
         21    1    1    2  503  501 -0.83569798978E+02 -0.17863305115E+01 -0.71107331441E+02  0.10974222006E+03  0.00000000000E+00 0. -1.
          2    1    1    2  501    0 -0.11915011109E+03  0.34611308299E+03 -0.11699802736E+04  0.12259057287E+04  0.00000000000E+00 0. -1.
<mgrwt>
<rscale>  4 0.39020187E+03</rscale>
<asrwt>0</asrwt>
<pdfrwt beam="1">  1       21 0.34923533E-01 0.39020187E+03</pdfrwt>
<pdfrwt beam="2">  1        2 0.23572145E+00 0.39020187E+03</pdfrwt>
<totfact> 0.12236972E+03</totfact>
</mgrwt>
</event>
<event>
 5    0  0.4930573E+000  0.2759428E+03  0.7546771E-02  0.1097926E+00
         -1   -1    0    0    0  501 -0.00000000000E+00  0.00000000000E+00  0.61354700658E+03  0.61354700658E+03  0.00000000000E+00 0.  1.
         21   -1    0    0  501  502  0.00000000000E+00 -0.00000000000E+00 -0.23819590600E+03  0.23819590600E+03  0.00000000000E+00 0. -1.
         25    1    1    2    0    0 -0.16729081228E+03  0.15175369811E+03 -0.86422847354E+02  0.27223025054E+03  0.12500000000E+03 0.  0.
         21    1    1    2  503  502 -0.25845026686E+02  0.61139468405E+01 -0.22475057759E+02  0.34791866458E+02  0.00000000000E+00 0. -1.
         -1    1    1    2    0  503  0.19313583897E+03 -0.15786764495E+03  0.48424900569E+03  0.54472079557E+03  0.00000000000E+00 0.  1.
<mgrwt>
<rscale>  4 0.27594279E+03</rscale>
<asrwt>0</asrwt>
<pdfrwt beam="1">  1       21 0.36645524E-01 0.27594279E+03</pdfrwt>
<pdfrwt beam="2">  1       -1 0.94391846E-01 0.27594279E+03</pdfrwt>
<totfact> 0.74725125E+02</totfact>
</mgrwt>
</event>
<event>
 5    0  0.4930573E+000  0.3243139E+03  0.7546771E-02  0.1073681E+00
         21   -1    0    0  503  502  0.00000000000E+00  0.00000000000E+00  0.53808668391E+03  0.53808668391E+03  0.00000000000E+00 0.  1.
          2   -1    0    0  502    0 -0.00000000000E+00 -0.00000000000E+00 -0.53878295646E+03  0.53878295646E+03  0.00000000000E+00 0.  1.
         25    1    1    2    0    0 -0.28909206860E+03 -0.66059429717E+02  0.25308880267E+03  0.40941056950E+03  0.12500000000E+03 0.  0.
         21    1    1    2  503  501 -0.11414919872E+02  0.62219986050E+02  0.15076295673E+03  0.16349647147E+03  0.00000000000E+00 0.  1.
          2    1    1    2  501    0  0.30050698847E+03  0.38394436671E+01 -0.40454803195E+03  0.50396259941E+03  0.00000000000E+00 0.  1.
<mgrwt>
<rscale>  4 0.32431389E+03</rscale>
<asrwt>0</asrwt>
<pdfrwt beam="1">  1       21 0.82782567E-01 0.32431389E+03</pdfrwt>
<pdfrwt beam="2">  1        2 0.82889686E-01 0.32431389E+03</pdfrwt>
<totfact> 0.86132499E+02</totfact>
</mgrwt>
</event>
<event>
 5    0  0.4930573E+000  0.6057420E+03  0.7546771E-02  0.9915302E-01
         21   -1    0    0  501  502  0.00000000000E+00  0.00000000000E+00  0.81364992309E+03  0.81364992309E+03  0.00000000000E+00 0.  1.
         -1   -1    0    0    0  501 -0.00000000000E+00 -0.00000000000E+00 -0.50513123317E+03  0.50513123317E+03  0.00000000000E+00 0.  1.
         25    1    1    2    0    0 -0.30919592657E+03 -0.45590258188E+03  0.41866846339E+03  0.70310565878E+03  0.12500000000E+03 0.  0.
         21    1    1    2  503  502  0.15876491474E+03  0.18111113165E+03  0.74409068358E+02  0.25207984770E+03  0.00000000000E+00 0.  1.
         -1    1    1    2    0  503  0.15043101183E+03  0.27479145024E+03 -0.18455884183E+03  0.36359564978E+03  0.00000000000E+00 0.  1.
<mgrwt>
<rscale>  4 0.59525387E+03</rscale>
<asrwt>0</asrwt>
<pdfrwt beam="1">  1       21 0.12517691E+00 0.60574198E+03</pdfrwt>
<pdfrwt beam="2">  1       -1 0.77712497E-01 0.60574198E+03</pdfrwt>
<totfact> 0.64847068E+01</totfact>
</mgrwt>
</event>
<event>
 5    0  0.4930573E+000  0.2349569E+03  0.7546771E-02  0.1123199E+00
          2   -1    0    0  502    0 -0.00000000000E+00  0.00000000000E+00  0.70872226653E+03  0.70872226653E+03  0.00000000000E+00 0. -1.
         21   -1    0    0  503  502  0.00000000000E+00 -0.00000000000E+00 -0.16133901469E+03  0.16133901469E+03  0.00000000000E+00 0. -1.
         25    1    1    2    0    0 -0.21722560550E+03  0.80689330688E+02  0.25285939966E+03  0.36504877450E+03  0.12500000000E+03 0.  0.
         21    1    1    2  503  501  0.48023810757E+02 -0.29119926863E+01 -0.76215893202E+02  0.90131173728E+02  0.00000000000E+00 0. -1.
          2    1    1    2  501    0  0.16920179475E+03 -0.77777338001E+02  0.37073974538E+03  0.41488133298E+03  0.00000000000E+00 0. -1.
<mgrwt>
<rscale>  4 0.23495694E+03</rscale>
<asrwt>0</asrwt>
<pdfrwt beam="1">  1       21 0.24821387E-01 0.23495694E+03</pdfrwt>
<pdfrwt beam="2">  1        2 0.10903419E+00 0.23495694E+03</pdfrwt>
<totfact> 0.79060065E+03</totfact>
</mgrwt>
</event>
<event>
 5    0  0.4930573E+000  0.4303120E+03  0.7546771E-02  0.1034543E+00
          2   -1    0    0  502    0 -0.00000000000E+00  0.00000000000E+00  0.20254270223E+03  0.20254270223E+03  0.00000000000E+00 0. -1.
         21   -1    0    0  503  502  0.00000000000E+00 -0.00000000000E+00 -0.14558659450E+04  0.14558659450E+04  0.00000000000E+00 0. -1.
         25    1    1    2    0    0 -0.39254786990E+03  0.84396334825E+02 -0.11375556153E+04  0.12127960874E+04  0.12500000000E+03 0.  0.
         21    1    1    2  503  501  0.45319900740E+02 -0.53814865686E+02 -0.60287947709E+02  0.92652953600E+02  0.00000000000E+00 0.  1.
          2    1    1    2  501    0  0.34722796916E+03 -0.30581469140E+02 -0.55479679763E+02  0.35295960631E+03  0.00000000000E+00 0. -1.
<mgrwt>
<rscale>  4 0.42784418E+03</rscale>
<asrwt>0</asrwt>
<pdfrwt beam="1">  1       21 0.22397938E+00 0.43031199E+03</pdfrwt>
<pdfrwt beam="2">  1        2 0.31160415E-01 0.43031199E+03</pdfrwt>
<totfact> 0.17142379E+02</totfact>
</mgrwt>
</event>
<event>
 5    0  0.4930573E+000  0.2456404E+03  0.7546771E-02  0.1116091E+00
         21   -1    0    0  503  502  0.00000000000E+00  0.00000000000E+00  0.49207725515E+02  0.49207725515E+02  0.00000000000E+00 0.  1.
          2   -1    0    0  502    0 -0.00000000000E+00 -0.00000000000E+00 -0.13691645659E+04  0.13691645659E+04  0.00000000000E+00 0.  1.
         25    1    1    2    0    0  0.57042403915E+02  0.19686864598E+03 -0.85925326696E+03  0.89216157528E+03  0.12500000000E+03 0.  0.
         21    1    1    2  503  501  0.20484018486E+02  0.11272179873E+02 -0.13783675545E+02  0.27141237333E+02  0.00000000000E+00 0.  1.
          2    1    1    2  501    0 -0.77526422402E+02 -0.20814082586E+03 -0.44691989792E+03  0.49906947885E+03  0.00000000000E+00 0.  1.
<mgrwt>
<rscale>  4 0.24564039E+03</rscale>
<asrwt>0</asrwt>
<pdfrwt beam="1">  1       21 0.75704198E-02 0.24564039E+03</pdfrwt>
<pdfrwt beam="2">  1        2 0.21064069E+00 0.24564039E+03</pdfrwt>
<totfact> 0.26903903E+04</totfact>
</mgrwt>
</event>
<event>
 5    0  0.4930573E+000  0.2291101E+03  0.7546771E-02  0.1127268E+00
         -3   -1    0    0    0  501 -0.00000000000E+00  0.00000000000E+00  0.42552535739E+03  0.42552535739E+03  0.00000000000E+00 0.  1.
         21   -1    0    0  501  502  0.00000000000E+00 -0.00000000000E+00 -0.41588221307E+03  0.41588221307E+03  0.00000000000E+00 0.  1.
         25    1    1    2    0    0  0.31381213688E+02 -0.20770119026E+03 -0.33716861868E+03  0.41645196894E+03  0.12500000000E+03 0.  0.
         21    1    1    2  503  502 -0.16155849772E+02  0.17431513410E+02 -0.53763627685E+01  0.24367486909E+02  0.00000000000E+00 0.  1.
         -3    1    1    2    0  503 -0.15225363916E+02  0.19026967685E+03  0.35218812577E+03  0.40058811461E+03  0.00000000000E+00 0.  1.
<mgrwt>
<rscale>  4 0.22911005E+03</rscale>
<asrwt>0</asrwt>
<pdfrwt beam="1">  1       21 0.63981879E-01 0.22911005E+03</pdfrwt>
<pdfrwt beam="2">  1       -3 0.65465440E-01 0.22911005E+03</pdfrwt>
<totfact> 0.25308006E+02</totfact>
</mgrwt>
</event>
<event>
 5    0  0.4930573E+000  0.2833402E+03  0.7546771E-02  0.1093878E+00
         21   -1    0    0  503  502  0.00000000000E+00  0.00000000000E+00  0.70471708953E+02  0.70471708953E+02  0.00000000000E+00 0. -1.
          2   -1    0    0  502    0 -0.00000000000E+00 -0.00000000000E+00 -0.23588451444E+04  0.23588451444E+04  0.00000000000E+00 0. -1.
         25    1    1    2    0    0  0.21780577039E+03 -0.11632878808E+03 -0.40169187296E+03  0.48780436791E+03  0.12500000000E+03 0.  0.
         21    1    1    2  503  501 -0.12824400204E+02 -0.37436920707E+02 -0.21407447487E+01  0.39630430993E+02  0.00000000000E+00 0. -1.
          2    1    1    2  501    0 -0.20498137018E+03  0.15376570878E+03 -0.18845408177E+04  0.19018820544E+04  0.00000000000E+00 0. -1.
<mgrwt>
<rscale>  4 0.28334024E+03</rscale>
<asrwt>0</asrwt>
<pdfrwt beam="1">  1       21 0.10841800E-01 0.28334024E+03</pdfrwt>
<pdfrwt beam="2">  1        2 0.36289930E+00 0.28334024E+03</pdfrwt>
<totfact> 0.42061119E+03</totfact>
</mgrwt>
</event>
<event>
 5    0  0.4930573E+000  0.2420996E+03  0.7546771E-02  0.1118402E+00
          2   -1    0    0  502    0 -0.00000000000E+00  0.00000000000E+00  0.25231822289E+04  0.25231822289E+04  0.00000000000E+00 0.  1.
         21   -1    0    0  503  502  0.00000000000E+00 -0.00000000000E+00 -0.25554107997E+02  0.25554107997E+02  0.00000000000E+00 0.  1.
         25    1    1    2    0    0 -0.20536154076E+03  0.28528330516E+02  0.18642410813E+04  0.18798954858E+04  0.12500000000E+03 0.  0.
         21    1    1    2  503  501  0.10689646226E+03 -0.16662754483E+02  0.24197412818E+03  0.26505844589E+03  0.00000000000E+00 0.  1.
          2    1    1    2  501    0  0.98465078502E+02 -0.11865576033E+02  0.39141291138E+03  0.40378240523E+03  0.00000000000E+00 0.  1.
<mgrwt>
<rscale>  4 0.24209962E+03</rscale>
<asrwt>0</asrwt>
<pdfrwt beam="1">  1       21 0.39314032E-02 0.24209962E+03</pdfrwt>
<pdfrwt beam="2">  1        2 0.38818168E+00 0.24209962E+03</pdfrwt>
<totfact> 0.20178686E+04</totfact>
</mgrwt>
</event>
<event>
 5    0  0.4930573E+000  0.2052583E+03  0.7546771E-02  0.1145377E+00
         21   -1    0    0  503  502  0.00000000000E+00  0.00000000000E+00  0.15651803836E+03  0.15651803836E+03  0.00000000000E+00 0.  1.
          2   -1    0    0  502    0 -0.00000000000E+00 -0.00000000000E+00 -0.42244900194E+03  0.42244900194E+03  0.00000000000E+00 0.  1.
         25    1    1    2    0    0  0.12348748946E+03  0.16084094291E+03 -0.35573177684E+02  0.24085144786E+03  0.12500000000E+03 0.  0.
         21    1    1    2  503  501 -0.26279829258E+02 -0.41265049282E+02  0.12497335921E+02  0.50493733505E+02  0.00000000000E+00 0. -1.
          2    1    1    2  501    0 -0.97207660199E+02 -0.11957589363E+03 -0.24285512182E+03  0.28762185893E+03  0.00000000000E+00 0.  1.
<mgrwt>
<rscale>  4 0.20525835E+03</rscale>
<asrwt>0</asrwt>
<pdfrwt beam="1">  1       21 0.24079699E-01 0.20525835E+03</pdfrwt>
<pdfrwt beam="2">  1        2 0.64992153E-01 0.20525835E+03</pdfrwt>
<totfact> 0.15226455E+04</totfact>
</mgrwt>
</event>
<event>
 5    0  0.4930573E+000  0.3439687E+03  0.7546771E-02  0.1065118E+00
         21   -1    0    0  503  502  0.00000000000E+00  0.00000000000E+00  0.11060375606E+03  0.11060375606E+03  0.00000000000E+00 0. -1.
          1   -1    0    0  502    0 -0.00000000000E+00 -0.00000000000E+00 -0.11234765714E+04  0.11234765714E+04  0.00000000000E+00 0. -1.
         25    1    1    2    0    0  0.24309339573E+03  0.19718025058E+03 -0.51949206179E+03  0.61925071864E+03  0.12500000000E+03 0.  0.
         21    1    1    2  503  501 -0.65931914154E+00  0.23966711201E+02 -0.21424104066E+01  0.24071308021E+02  0.00000000000E+00 0. -1.
          1    1    1    2  501    0 -0.24243407659E+03 -0.22114696178E+03 -0.49123834320E+03  0.59075830085E+03  0.00000000000E+00 0. -1.
<mgrwt>
<rscale>  4 0.34396869E+03</rscale>
<asrwt>0</asrwt>
<pdfrwt beam="1">  1       21 0.17015962E-01 0.34396869E+03</pdfrwt>
<pdfrwt beam="2">  1        1 0.17284255E+00 0.34396869E+03</pdfrwt>
<totfact> 0.43464382E+03</totfact>
</mgrwt>
</event>
<event>
 5    0  0.4930573E+000  0.3116728E+03  0.7546771E-02  0.1079547E+00
         21   -1    0    0  503  502  0.00000000000E+00  0.00000000000E+00  0.22832310540E+03  0.22832310540E+03  0.00000000000E+00 0. -1.
          2   -1    0    0  502    0 -0.00000000000E+00 -0.00000000000E+00 -0.97675961560E+03  0.97675961560E+03  0.00000000000E+00 0. -1.
         25    1    1    2    0    0 -0.27765516226E+03 -0.80540501966E+02  0.24954209304E+02  0.31595391143E+03  0.12500000000E+03 0.  0.
         21    1    1    2  503  501 -0.28223857753E+01  0.29003490587E+02  0.26831414835E+02  0.39611780441E+02  0.00000000000E+00 0. -1.
          2    1    1    2  501    0  0.28047754804E+03  0.51537011379E+02 -0.80022213433E+03  0.84951702912E+03  0.00000000000E+00 0. -1.
<mgrwt>
<rscale>  4 0.31167279E+03</rscale>
<asrwt>0</asrwt>
<pdfrwt beam="1">  1       21 0.35126632E-01 0.31167279E+03</pdfrwt>
<pdfrwt beam="2">  1        2 0.15027071E+00 0.31167279E+03</pdfrwt>
<totfact> 0.25767037E+03</totfact>
</mgrwt>
</event>
<event>
 5    0  0.4930573E+000  0.2471214E+03  0.7546771E-02  0.1115138E+00
         21   -1    0    0  503  502  0.00000000000E+00  0.00000000000E+00  0.44137265443E+03  0.44137265443E+03  0.00000000000E+00 0. -1.
          2   -1    0    0  502    0 -0.00000000000E+00 -0.00000000000E+00 -0.10583273733E+04  0.10583273733E+04  0.00000000000E+00 0. -1.
         25    1    1    2    0    0  0.94225553222E+02 -0.22693601229E+03 -0.44601551975E+03  0.52434077890E+03  0.12500000000E+03 0.  0.
         21    1    1    2  503  501 -0.70131009993E+02  0.19935528218E+03  0.37379298535E+03  0.42939734861E+03  0.00000000000E+00 0. -1.
          2    1    1    2  501    0 -0.24094543229E+02  0.27580730113E+02 -0.54473218447E+03  0.54596190022E+03  0.00000000000E+00 0. -1.
<mgrwt>
<rscale>  4 0.24712139E+03</rscale>
<asrwt>0</asrwt>
<pdfrwt beam="1">  1       21 0.67903486E-01 0.24712139E+03</pdfrwt>
<pdfrwt beam="2">  1        2 0.16281959E+00 0.24712139E+03</pdfrwt>
<totfact> 0.59057496E+02</totfact>
</mgrwt>
</event>
<event>
 5    0  0.4930573E+000  0.3007636E+03  0.7546771E-02  0.1084860E+00
         21   -1    0    0  501  502  0.00000000000E+00  0.00000000000E+00  0.82377595837E+03  0.82377595837E+03  0.00000000000E+00 0. -1.
         -4   -1    0    0    0  501 -0.00000000000E+00 -0.00000000000E+00 -0.19354593462E+03  0.19354593462E+03  0.00000000000E+00 0. -1.
         25    1    1    2    0    0 -0.26003896614E+03 -0.14230529102E+03  0.60662946198E+03  0.68665520016E+03  0.12500000000E+03 0.  0.
         21    1    1    2  503  502  0.89017174507E+01  0.44591262612E+02  0.40180067385E+02  0.60679972725E+02  0.00000000000E+00 0. -1.
         -4    1    1    2    0  503  0.25113724869E+03  0.97714028409E+02 -0.16579505615E+02  0.26998672011E+03  0.00000000000E+00 0. -1.
<mgrwt>
<rscale>  4 0.30076359E+03</rscale>
<asrwt>0</asrwt>
<pdfrwt beam="1">  1       21 0.12673476E+00 0.30076359E+03</pdfrwt>
<pdfrwt beam="2">  1       -4 0.29776298E-01 0.30076359E+03</pdfrwt>
<totfact> 0.20405850E+02</totfact>
</mgrwt>
</event>
<event>
 5    0  0.4930573E+000  0.2771900E+03  0.7546771E-02  0.1097234E+00
          2   -1    0    0  502    0 -0.00000000000E+00  0.00000000000E+00  0.10223487912E+04  0.10223487912E+04  0.00000000000E+00 0. -1.
         21   -1    0    0  503  502  0.00000000000E+00 -0.00000000000E+00 -0.58640819062E+03  0.58640819062E+03  0.00000000000E+00 0. -1.
         25    1    1    2    0    0 -0.26460033741E+03  0.12103353375E+02 -0.94772904536E+01  0.29304376593E+03  0.12500000000E+03 0.  0.
         21    1    1    2  503  501  0.22257803215E+02  0.27825811779E+02 -0.41724694847E+03  0.41876568820E+03  0.00000000000E+00 0. -1.
          2    1    1    2  501    0  0.24234253419E+03 -0.39929165154E+02  0.86266483948E+03  0.89694752767E+03  0.00000000000E+00 0. -1.
<mgrwt>
<rscale>  4 0.27719002E+03</rscale>
<asrwt>0</asrwt>
<pdfrwt beam="1">  1       21 0.90216645E-01 0.27719002E+03</pdfrwt>
<pdfrwt beam="2">  1        2 0.15728443E+00 0.27719002E+03</pdfrwt>
<totfact> 0.32050105E+02</totfact>
</mgrwt>
</event>
<event>
 5    0  0.4930573E+000  0.2780434E+03  0.7546771E-02  0.1096762E+00
         21   -1    0    0  503  502  0.00000000000E+00  0.00000000000E+00  0.48390835420E+03  0.48390835420E+03  0.00000000000E+00 0.  1.
          1   -1    0    0  502    0 -0.00000000000E+00 -0.00000000000E+00 -0.18508706837E+03  0.18508706837E+03  0.00000000000E+00 0. -1.
         25    1    1    2    0    0 -0.13879844417E+02 -0.24761953129E+03  0.16864530952E+03  0.32492202570E+03  0.12500000000E+03 0.  0.
         21    1    1    2  503  501 -0.20619650604E+02  0.11331464908E+01  0.89537984863E+02  0.91888545234E+02  0.00000000000E+00 0.  1.
          1    1    1    2  501    0  0.34499495021E+02  0.24648638480E+03  0.40637991444E+02  0.25218485164E+03  0.00000000000E+00 0. -1.
<mgrwt>
<rscale>  4 0.27804337E+03</rscale>
<asrwt>0</asrwt>
<pdfrwt beam="1">  1       21 0.74447438E-01 0.27804337E+03</pdfrwt>
<pdfrwt beam="2">  1        1 0.28474934E-01 0.27804337E+03</pdfrwt>
<totfact> 0.27592518E+03</totfact>
</mgrwt>
</event>
<event>
 5    0  0.4930573E+000  0.2717304E+03  0.7546771E-02  0.1100293E+00
         21   -1    0    0  503  502  0.00000000000E+00  0.00000000000E+00  0.28912620600E+03  0.28912620600E+03  0.00000000000E+00 0. -1.
          4   -1    0    0  502    0 -0.00000000000E+00 -0.00000000000E+00 -0.77728120163E+03  0.77728120163E+03  0.00000000000E+00 0. -1.
         25    1    1    2    0    0  0.14273109505E+03 -0.24472943949E+03 -0.41346081475E+03  0.51656510663E+03  0.12500000000E+03 0.  0.
         21    1    1    2  503  501 -0.10059766694E+02  0.79080872762E+02  0.19265500864E+03  0.20849684817E+03  0.00000000000E+00 0. -1.
          4    1    1    2  501    0 -0.13267132835E+03  0.16564856673E+03 -0.26734918953E+03  0.34134545283E+03  0.00000000000E+00 0. -1.
<mgrwt>
<rscale>  4 0.27173042E+03</rscale>
<asrwt>0</asrwt>
<pdfrwt beam="1">  1       21 0.44480956E-01 0.27173042E+03</pdfrwt>
<pdfrwt beam="2">  1        4 0.11958172E+00 0.27173042E+03</pdfrwt>
<totfact> 0.11222293E+02</totfact>
</mgrwt>
</event>
<event>
 5    0  0.4930573E+000  0.2608291E+03  0.7546771E-02  0.1106646E+00
         -2   -1    0    0    0  501 -0.00000000000E+00  0.00000000000E+00  0.69200915647E+03  0.69200915647E+03  0.00000000000E+00 0. -1.
         21   -1    0    0  501  502  0.00000000000E+00 -0.00000000000E+00 -0.95321860700E+02  0.95321860700E+02  0.00000000000E+00 0. -1.
         25    1    1    2    0    0  0.19974771376E+02 -0.22805226640E+03  0.21718627825E+03  0.33941376985E+03  0.12500000000E+03 0.  0.
         21    1    1    2  503  502  0.88301770463E+01  0.21899203161E+02  0.14430284876E+02  0.27672734729E+02  0.00000000000E+00 0.  1.
         -2    1    1    2    0  503 -0.28804948422E+02  0.20615306324E+03  0.36507073264E+03  0.42024451259E+03  0.00000000000E+00 0. -1.
<mgrwt>
<rscale>  4 0.26082912E+03</rscale>
<asrwt>0</asrwt>
<pdfrwt beam="1">  1       21 0.14664902E-01 0.26082912E+03</pdfrwt>
<pdfrwt beam="2">  1       -2 0.10646294E+00 0.26082912E+03</pdfrwt>
<totfact> 0.24565273E+03</totfact>
</mgrwt>
</event>
<event>
 5    0  0.4930573E+000  0.2659991E+03  0.7546771E-02  0.1103591E+00
         21   -1    0    0  503  502  0.00000000000E+00  0.00000000000E+00  0.14695669039E+03  0.14695669039E+03  0.00000000000E+00 0. -1.
          1   -1    0    0  502    0 -0.00000000000E+00 -0.00000000000E+00 -0.19009103802E+04  0.19009103802E+04  0.00000000000E+00 0. -1.
         25    1    1    2    0    0  0.13629869015E+03 -0.29235593492E+03 -0.17053464610E+03  0.38568950094E+03  0.12500000000E+03 0.  0.
         21    1    1    2  503  501 -0.63217908381E+02  0.76318771280E+02 -0.48363450692E+02  0.11027276251E+03  0.00000000000E+00 0. -1.
          1    1    1    2  501    0 -0.73080781767E+02  0.21603716364E+03 -0.15350555930E+04  0.15519048072E+04  0.00000000000E+00 0. -1.
<mgrwt>
<rscale>  4 0.26599913E+03</rscale>
<asrwt>0</asrwt>
<pdfrwt beam="1">  1       21 0.22608723E-01 0.26599913E+03</pdfrwt>
<pdfrwt beam="2">  1        1 0.29244774E+00 0.26599913E+03</pdfrwt>
<totfact> 0.78541381E+02</totfact>
</mgrwt>
</event>
<event>
 5    0  0.4930573E+000  0.2607831E+03  0.7546771E-02  0.1106674E+00
          2   -1    0    0  502    0 -0.00000000000E+00  0.00000000000E+00  0.52402949252E+03  0.52402949252E+03  0.00000000000E+00 0. -1.
         21   -1    0    0  503  502  0.00000000000E+00 -0.00000000000E+00 -0.37373671887E+03  0.37373671887E+03  0.00000000000E+00 0.  1.
         25    1    1    2    0    0  0.90088528596E+02 -0.21389680792E+03 -0.26088985422E+03  0.37088583615E+03  0.12500000000E+03 0.  0.
         21    1    1    2  503  501 -0.23961448967E+02 -0.50247922251E+01 -0.24618418235E+02  0.34719822723E+02  0.00000000000E+00 0.  1.
          2    1    1    2  501    0 -0.66127079629E+02  0.21892160014E+03  0.43580104611E+03  0.49216055252E+03  0.00000000000E+00 0. -1.
<mgrwt>
<rscale>  4 0.26078312E+03</rscale>
<asrwt>0</asrwt>
<pdfrwt beam="1">  1       21 0.57497957E-01 0.26078312E+03</pdfrwt>
<pdfrwt beam="2">  1        2 0.80619922E-01 0.26078312E+03</pdfrwt>
<totfact> 0.20437424E+03</totfact>
</mgrwt>
</event>
<event>
 5    0  0.4930573E+000  0.2726137E+03  0.7546771E-02  0.1099793E+00
          2   -1    0    0  502    0 -0.00000000000E+00  0.00000000000E+00  0.66637381856E+03  0.66637381856E+03  0.00000000000E+00 0. -1.
         21   -1    0    0  503  502  0.00000000000E+00 -0.00000000000E+00 -0.36741163892E+03  0.36741163892E+03  0.00000000000E+00 0.  1.
         25    1    1    2    0    0  0.18454669529E+03  0.19379144326E+03 -0.12559662753E+03  0.32095501097E+03  0.12500000000E+03 0.  0.
         21    1    1    2  503  501 -0.21218698704E+02 -0.18758382991E+02 -0.11717904643E+03  0.12055305483E+03  0.00000000000E+00 0.  1.
          2    1    1    2  501    0 -0.16332799659E+03 -0.17503306027E+03  0.54173785360E+03  0.59227739167E+03  0.00000000000E+00 0. -1.
<mgrwt>
<rscale>  4 0.27261371E+03</rscale>
<asrwt>0</asrwt>
<pdfrwt beam="1">  1       21 0.56524868E-01 0.27261371E+03</pdfrwt>
<pdfrwt beam="2">  1        2 0.10251905E+00 0.27261371E+03</pdfrwt>
<totfact> 0.15958538E+03</totfact>
</mgrwt>
</event>
<event>
 5    0  0.4930573E+000  0.3735113E+03  0.7546771E-02  0.1053358E+00
          1   -1    0    0  502    0 -0.00000000000E+00  0.00000000000E+00  0.13850030480E+04  0.13850030480E+04  0.00000000000E+00 0. -1.
         21   -1    0    0  503  502  0.00000000000E+00 -0.00000000000E+00 -0.16272447426E+03  0.16272447426E+03  0.00000000000E+00 0.  1.
         25    1    1    2    0    0 -0.30556364958E+03  0.14532085719E+03  0.13669594077E+03  0.38574353618E+03  0.12500000000E+03 0.  0.
         21    1    1    2  503  501 -0.21100739749E+02 -0.60145922847E+01  0.24006840262E+01  0.22072150373E+02  0.00000000000E+00 0.  1.
          1    1    1    2  501    0  0.32666438933E+03 -0.13930626491E+03  0.10831819489E+04  0.11399118357E+04  0.00000000000E+00 0. -1.
<mgrwt>
<rscale>  4 0.37351132E+03</rscale>
<asrwt>0</asrwt>
<pdfrwt beam="1">  1       21 0.25034535E-01 0.37351132E+03</pdfrwt>
<pdfrwt beam="2">  1        1 0.21307738E+00 0.37351132E+03</pdfrwt>
<totfact> 0.13584786E+03</totfact>
</mgrwt>
</event>
<event>
 5    0  0.4930573E+000  0.2416533E+03  0.7546771E-02  0.1118696E+00
          2   -1    0    0  502    0 -0.00000000000E+00  0.00000000000E+00  0.35764176259E+04  0.35764176259E+04  0.00000000000E+00 0.  1.
         21   -1    0    0  503  502  0.00000000000E+00 -0.00000000000E+00 -0.48930099310E+02  0.48930099310E+02  0.00000000000E+00 0.  1.
         25    1    1    2    0    0  0.57017506654E+02  0.20708744044E+03  0.52431498363E+03  0.58023047672E+03  0.12500000000E+03 0.  0.
         21    1    1    2  503  501  0.54572687229E+01 -0.20380098349E+03  0.48423400473E+03  0.52540193566E+03  0.00000000000E+00 0.  1.
          2    1    1    2  501    0 -0.62474775377E+02 -0.32864569501E+01  0.25189385383E+04  0.25197153129E+04  0.00000000000E+00 0.  1.
<mgrwt>
<rscale>  4 0.24165326E+03</rscale>
<asrwt>0</asrwt>
<pdfrwt beam="1">  1       21 0.75277104E-02 0.24165326E+03</pdfrwt>
<pdfrwt beam="2">  1        2 0.55021789E+00 0.24165326E+03</pdfrwt>
<totfact> 0.15456296E+03</totfact>
</mgrwt>
</event>
<event>
 5    0  0.4930573E+000  0.2778772E+03  0.7546771E-02  0.1096854E+00
         21   -1    0    0  503  502  0.00000000000E+00  0.00000000000E+00  0.50458483066E+03  0.50458483066E+03  0.00000000000E+00 0. -1.
          3   -1    0    0  502    0 -0.00000000000E+00 -0.00000000000E+00 -0.28083391086E+03  0.28083391086E+03  0.00000000000E+00 0. -1.
         25    1    1    2    0    0 -0.19397074887E+03 -0.12775816254E+03  0.38007547047E+03  0.46263285958E+03  0.12500000000E+03 0.  0.
         21    1    1    2  503  501 -0.20305900895E+02 -0.24658666307E+01  0.91014915964E+01  0.22388551956E+02  0.00000000000E+00 0.  1.
          3    1    1    2  501    0  0.21427664976E+03  0.13022402917E+03 -0.16542604227E+03  0.30039732999E+03  0.00000000000E+00 0. -1.
<mgrwt>
<rscale>  4 0.27787720E+03</rscale>
<asrwt>0</asrwt>
<pdfrwt beam="1">  1       21 0.77628435E-01 0.27787720E+03</pdfrwt>
<pdfrwt beam="2">  1        3 0.43205217E-01 0.27787720E+03</pdfrwt>
<totfact> 0.38099758E+02</totfact>
</mgrwt>
</event>
<event>
 5    0  0.4930573E+000  0.6577718E+03  0.7546771E-02  0.9792304E-01
          2   -1    0    0  502    0 -0.00000000000E+00  0.00000000000E+00  0.14927622126E+04  0.14927622126E+04  0.00000000000E+00 0.  1.
         21   -1    0    0  503  502  0.00000000000E+00 -0.00000000000E+00 -0.46336205637E+03  0.46336205637E+03  0.00000000000E+00 0.  1.
         25    1    1    2    0    0 -0.86570793526E+02  0.64507657148E+03  0.34479526148E+03  0.74707901704E+03  0.12500000000E+03 0.  0.
         21    1    1    2  503  501 -0.19869421185E+02 -0.10794677813E+02 -0.15206920902E+03  0.15374122186E+03  0.00000000000E+00 0.  1.
          2    1    1    2  501    0  0.10644021471E+03 -0.63428189367E+03  0.83667410374E+03  0.10553040300E+04  0.00000000000E+00 0.  1.
<mgrwt>
<rscale>  4 0.65777183E+03</rscale>
<asrwt>0</asrwt>
<pdfrwt beam="1">  1       21 0.71286471E-01 0.65777183E+03</pdfrwt>
<pdfrwt beam="2">  1        2 0.22965572E+00 0.65777183E+03</pdfrwt>
<totfact> 0.26094661E+02</totfact>
</mgrwt>
</event>
<event>
 5    0  0.4930573E+000  0.2370812E+03  0.7546771E-02  0.1121753E+00
         21   -1    0    0  503  502  0.00000000000E+00  0.00000000000E+00  0.23578757152E+03  0.23578757152E+03  0.00000000000E+00 0. -1.
          1   -1    0    0  502    0 -0.00000000000E+00 -0.00000000000E+00 -0.82732897580E+03  0.82732897580E+03  0.00000000000E+00 0. -1.
         25    1    1    2    0    0 -0.14832514802E+02 -0.26732229521E+03 -0.61575172500E+03  0.68297613417E+03  0.12500000000E+03 0.  0.
         21    1    1    2  503  501  0.65933191533E+02  0.18549256626E+03  0.13081537719E+03  0.23636273139E+03  0.00000000000E+00 0. -1.
          1    1    1    2  501    0 -0.51100676731E+02  0.81829728953E+02 -0.10660505647E+03  0.14377768175E+03  0.00000000000E+00 0. -1.
<mgrwt>
<rscale>  4 0.23708122E+03</rscale>
<asrwt>0</asrwt>
<pdfrwt beam="1">  1       21 0.36275011E-01 0.23708122E+03</pdfrwt>
<pdfrwt beam="2">  1        1 0.12728138E+00 0.23708122E+03</pdfrwt>
<totfact> 0.17565029E+03</totfact>
</mgrwt>
</event>
<event>
 5    0  0.4930573E+000  0.3334362E+03  0.7546771E-02  0.1069626E+00
         21   -1    0    0  503  502  0.00000000000E+00  0.00000000000E+00  0.14103775833E+04  0.14103775833E+04  0.00000000000E+00 0. -1.
          2   -1    0    0  502    0 -0.00000000000E+00 -0.00000000000E+00 -0.15310484485E+03  0.15310484485E+03  0.00000000000E+00 0. -1.
         25    1    1    2    0    0 -0.29097538478E+03  0.93363866698E+02  0.56353947981E+03  0.65313492592E+03  0.12500000000E+03 0.  0.
         21    1    1    2  503  501 -0.11091849604E+02 -0.20860608894E+02  0.57855302366E+03  0.57903522805E+03  0.00000000000E+00 0. -1.
          2    1    1    2  501    0  0.30206723438E+03 -0.72503257804E+02  0.11518023495E+03  0.33131227415E+03  0.00000000000E+00 0. -1.
<mgrwt>
<rscale>  4 0.33343620E+03</rscale>
<asrwt>0</asrwt>
<pdfrwt beam="1">  1       21 0.21698116E+00 0.33343620E+03</pdfrwt>
<pdfrwt beam="2">  1        2 0.23554592E-01 0.33343620E+03</pdfrwt>
<totfact> 0.27117905E+02</totfact>
</mgrwt>
</event>
<event>
 5    0  0.4930573E+000  0.4380789E+03  0.7546771E-02  0.1031338E+00
         21   -1    0    0  503  502  0.00000000000E+00  0.00000000000E+00  0.45294912755E+03  0.45294912755E+03  0.00000000000E+00 0. -1.
          2   -1    0    0  502    0 -0.00000000000E+00 -0.00000000000E+00 -0.74223123675E+03  0.74223123675E+03  0.00000000000E+00 0. -1.
         25    1    1    2    0    0 -0.41078997698E+03 -0.81182244048E+02 -0.41022486730E+03  0.59937334249E+03  0.12500000000E+03 0.  0.
         21    1    1    2  503  501 -0.13623136858E+02  0.58263514384E+02  0.15820812141E+03  0.16914501662E+03  0.00000000000E+00 0. -1.
          2    1    1    2  501    0  0.42441311384E+03  0.22918729665E+02 -0.37265363312E+02  0.42666200519E+03  0.00000000000E+00 0. -1.
<mgrwt>
<rscale>  4 0.43807886E+03</rscale>
<asrwt>0</asrwt>
<pdfrwt beam="1">  1       21 0.69684482E-01 0.43807886E+03</pdfrwt>
<pdfrwt beam="2">  1        2 0.11418942E+00 0.43807886E+03</pdfrwt>
<totfact> 0.83956646E+02</totfact>
</mgrwt>
</event>
<event>
 5    0  0.4930573E+000  0.2647346E+03  0.7546771E-02  0.1104332E+00
         21   -1    0    0  503  502  0.00000000000E+00  0.00000000000E+00  0.25362288124E+04  0.25362288124E+04  0.00000000000E+00 0. -1.
          3   -1    0    0  502    0 -0.00000000000E+00 -0.00000000000E+00 -0.25553822715E+02  0.25553822715E+02  0.00000000000E+00 0. -1.
         25    1    1    2    0    0 -0.20934839111E+03  0.10311479568E+03  0.11631431061E+04  0.11928898923E+04  0.12500000000E+03 0.  0.
         21    1    1    2  503  501  0.60825297391E+02 -0.37884262485E+02  0.57972804448E+03  0.58414000009E+03  0.00000000000E+00 0. -1.
          3    1    1    2  501    0  0.14852309372E+03 -0.65230533192E+02  0.76780383910E+03  0.78475274270E+03  0.00000000000E+00 0. -1.
<mgrwt>
<rscale>  4 0.26473460E+03</rscale>
<asrwt>0</asrwt>
<pdfrwt beam="1">  1       21 0.39018885E+00 0.26473460E+03</pdfrwt>
<pdfrwt beam="2">  1        3 0.39313593E-02 0.26473460E+03</pdfrwt>
<totfact> 0.15502008E+02</totfact>
</mgrwt>
</event>
<event>
 5    0  0.4930573E+000  0.2821199E+03  0.7546771E-02  0.1094537E+00
          2   -1    0    0  502    0 -0.00000000000E+00  0.00000000000E+00  0.68958974640E+03  0.68958974640E+03  0.00000000000E+00 0. -1.
         21   -1    0    0  503  502  0.00000000000E+00 -0.00000000000E+00 -0.15984480639E+03  0.15984480639E+03  0.00000000000E+00 0.  1.
         25    1    1    2    0    0  0.24459741470E+03  0.64333007179E+02  0.50693855289E+03  0.58015371023E+03  0.12500000000E+03 0.  0.
         21    1    1    2  503  501 -0.20514632945E+03 -0.40563637328E+02  0.51041035334E+02  0.21525708455E+03  0.00000000000E+00 0.  1.
          2    1    1    2  501    0 -0.39451085245E+02 -0.23769369852E+02 -0.28234648213E+02  0.54023758013E+02  0.00000000000E+00 0. -1.
<mgrwt>
<rscale>  4 0.28211989E+03</rscale>
<asrwt>0</asrwt>
<pdfrwt beam="1">  1       21 0.24591509E-01 0.28211989E+03</pdfrwt>
<pdfrwt beam="2">  1        2 0.10609073E+00 0.28211989E+03</pdfrwt>
<totfact> 0.82288232E+03</totfact>
</mgrwt>
</event>
<event>
 5    0  0.4930573E+000  0.4954624E+03  0.7546771E-02  0.1014970E+00
          2   -1    0    0  502    0 -0.00000000000E+00  0.00000000000E+00  0.23261946240E+04  0.23261946240E+04  0.00000000000E+00 0.  1.
         21   -1    0    0  503  502  0.00000000000E+00 -0.00000000000E+00 -0.29033422097E+03  0.29033422097E+03  0.00000000000E+00 0. -1.
         25    1    1    2    0    0  0.65649067001E+02 -0.46829009807E+03  0.11856029497E+03  0.50327622584E+03  0.12500000000E+03 0.  0.
         21    1    1    2  503  501  0.48920489589E+02  0.14073217660E+01 -0.60528120831E+02  0.77838603967E+02  0.00000000000E+00 0.  1.
          2    1    1    2  501    0 -0.11456955659E+03  0.46688277631E+03  0.19778282289E+04  0.20354140152E+04  0.00000000000E+00 0.  1.
<mgrwt>
<rscale>  4 0.49546237E+03</rscale>
<asrwt>0</asrwt>
<pdfrwt beam="1">  1       21 0.44666805E-01 0.49546237E+03</pdfrwt>
<pdfrwt beam="2">  1        2 0.35787608E+00 0.49546237E+03</pdfrwt>
<totfact> 0.26635182E+02</totfact>
</mgrwt>
</event>
<event>
 5    0  0.4930573E+000  0.2910178E+03  0.7546771E-02  0.1089819E+00
          2   -1    0    0  502    0 -0.00000000000E+00  0.00000000000E+00  0.80781804568E+03  0.80781804568E+03  0.00000000000E+00 0.  1.
         21   -1    0    0  503  502  0.00000000000E+00 -0.00000000000E+00 -0.27603503611E+03  0.27603503611E+03  0.00000000000E+00 0.  1.
         25    1    1    2    0    0  0.26079451542E+03 -0.80323108928E+02 -0.13858872080E+03  0.33060159503E+03  0.12500000000E+03 0.  0.
         21    1    1    2  503  501 -0.47670004329E+01  0.25394135461E+02 -0.72165485823E+01  0.26826572319E+02  0.00000000000E+00 0.  1.
          2    1    1    2  501    0 -0.25602751499E+03  0.54928973467E+02  0.67758827895E+03  0.72642491444E+03  0.00000000000E+00 0.  1.
<mgrwt>
<rscale>  4 0.29101776E+03</rscale>
<asrwt>0</asrwt>
<pdfrwt beam="1">  1       21 0.42466929E-01 0.29101776E+03</pdfrwt>
<pdfrwt beam="2">  1        2 0.12427970E+00 0.29101776E+03</pdfrwt>
<totfact> 0.22758734E+03</totfact>
</mgrwt>
</event>
<event>
 5    0  0.4930573E+000  0.2477355E+03  0.7546771E-02  0.1114744E+00
         21   -1    0    0  503  502  0.00000000000E+00  0.00000000000E+00  0.14500097232E+04  0.14500097232E+04  0.00000000000E+00 0.  1.
          1   -1    0    0  502    0 -0.00000000000E+00 -0.00000000000E+00 -0.15191259678E+03  0.15191259678E+03  0.00000000000E+00 0. -1.
         25    1    1    2    0    0  0.15690494940E+03 -0.24418238053E+03  0.10762683332E+04  0.11217052747E+04  0.12500000000E+03 0.  0.
         21    1    1    2  503  501 -0.14944189713E+02  0.92142415799E+02  0.25319434678E+03  0.26985353590E+03  0.00000000000E+00 0.  1.
          1    1    1    2  501    0 -0.14196075969E+03  0.15203996473E+03 -0.31365553535E+02  0.21036350946E+03  0.00000000000E+00 0. -1.
<mgrwt>
<rscale>  4 0.24773552E+03</rscale>
<asrwt>0</asrwt>
<pdfrwt beam="1">  1       21 0.22307841E+00 0.24773552E+03</pdfrwt>
<pdfrwt beam="2">  1        1 0.23371170E-01 0.24773552E+03</pdfrwt>
<totfact> 0.20778521E+02</totfact>
</mgrwt>
</event>
<event>
 5    0  0.4930573E+000  0.2676261E+03  0.7546771E-02  0.1102646E+00
         21   -1    0    0  503  502  0.00000000000E+00  0.00000000000E+00  0.17357714575E+03  0.17357714575E+03  0.00000000000E+00 0.  1.
          1   -1    0    0  502    0 -0.00000000000E+00 -0.00000000000E+00 -0.67740129475E+03  0.67740129475E+03  0.00000000000E+00 0. -1.
         25    1    1    2    0    0  0.18340943091E+03  0.13465011987E+03 -0.54828099141E+02  0.26533148057E+03  0.12500000000E+03 0.  0.
         21    1    1    2  503  501 -0.41781142461E+01  0.23832305066E+02  0.36852140043E+02  0.44085322151E+02  0.00000000000E+00 0. -1.
          1    1    1    2  501    0 -0.17923131667E+03 -0.15848242493E+03 -0.48584818990E+03  0.54156163778E+03  0.00000000000E+00 0. -1.
<mgrwt>
<rscale>  4 0.26762610E+03</rscale>
<asrwt>0</asrwt>
<pdfrwt beam="1">  1       21 0.26704176E-01 0.26762610E+03</pdfrwt>
<pdfrwt beam="2">  1        1 0.10421558E+00 0.26762610E+03</pdfrwt>
<totfact> 0.42916107E+03</totfact>
</mgrwt>
</event>
<event>
 5    0  0.4930573E+000  0.2479045E+03  0.7546771E-02  0.1114636E+00
         21   -1    0    0  501  502  0.00000000000E+00  0.00000000000E+00  0.65891770744E+02  0.65891770744E+02  0.00000000000E+00 0. -1.
         -2   -1    0    0    0  501 -0.00000000000E+00 -0.00000000000E+00 -0.21809560797E+04  0.21809560797E+04  0.00000000000E+00 0. -1.
         25    1    1    2    0    0 -0.52227821924E+02 -0.19672642257E+03 -0.26919274553E+03  0.35988715588E+03  0.12500000000E+03 0.  0.
         21    1    1    2  503  502  0.81370750701E+02 -0.19042465218E+02 -0.11342807982E+03  0.14088911897E+03  0.00000000000E+00 0. -1.
         -2    1    1    2    0  503 -0.29142928776E+02  0.21576888779E+03 -0.17324434836E+04  0.17460715756E+04  0.00000000000E+00 0. -1.
<mgrwt>
<rscale>  4 0.24790451E+03</rscale>
<asrwt>0</asrwt>
<pdfrwt beam="1">  1       21 0.10137195E-01 0.24790451E+03</pdfrwt>
<pdfrwt beam="2">  1       -2 0.33553172E+00 0.24790451E+03</pdfrwt>
<totfact> 0.14696683E+02</totfact>
</mgrwt>
</event>
<event>
 5    0  0.4930573E+000  0.3525843E+03  0.7546771E-02  0.1061559E+00
         21   -1    0    0  503  502  0.00000000000E+00  0.00000000000E+00  0.44798036251E+03  0.44798036251E+03  0.00000000000E+00 0. -1.
          2   -1    0    0  502    0 -0.00000000000E+00 -0.00000000000E+00 -0.12164448187E+04  0.12164448187E+04  0.00000000000E+00 0.  1.
         25    1    1    2    0    0 -0.17400078461E+03 -0.33512348954E+03 -0.27861870947E+03  0.48563094172E+03  0.12500000000E+03 0.  0.
         21    1    1    2  503  501  0.19963520625E+02  0.59403337430E+02  0.31135051040E+03  0.31759477165E+03  0.00000000000E+00 0. -1.
          2    1    1    2  501    0  0.15403726398E+03  0.27572015211E+03 -0.80119625712E+03  0.86119946783E+03  0.00000000000E+00 0.  1.
<mgrwt>
<rscale>  4 0.35258425E+03</rscale>
<asrwt>0</asrwt>
<pdfrwt beam="1">  1       21 0.68920056E-01 0.35258425E+03</pdfrwt>
<pdfrwt beam="2">  1        2 0.18714535E+00 0.35258425E+03</pdfrwt>
<totfact> 0.44026562E+02</totfact>
</mgrwt>
</event>
<event>
 5    0  0.4930573E+000  0.4848174E+03  0.7546771E-02  0.1017820E+00
          2   -1    0    0  502    0 -0.00000000000E+00  0.00000000000E+00  0.21342363406E+04  0.21342363406E+04  0.00000000000E+00 0.  1.
         21   -1    0    0  503  502  0.00000000000E+00 -0.00000000000E+00 -0.42193799655E+03  0.42193799655E+03  0.00000000000E+00 0.  1.
         25    1    1    2    0    0  0.42079271126E+03 -0.31579410814E+02  0.27301901121E+03  0.51790746811E+03  0.12500000000E+03 0.  0.
         21    1    1    2  503  501  0.58573156500E+02 -0.89658488725E+01 -0.26285675213E+03  0.26945291472E+03  0.00000000000E+00 0.  1.
          2    1    1    2  501    0 -0.47936586776E+03  0.40545259687E+02  0.17021360850E+04  0.17688139543E+04  0.00000000000E+00 0.  1.
<mgrwt>
<rscale>  4 0.48481741E+03</rscale>
<asrwt>0</asrwt>
<pdfrwt beam="1">  1       21 0.64913539E-01 0.48481741E+03</pdfrwt>
<pdfrwt beam="2">  1        2 0.32834405E+00 0.48481741E+03</pdfrwt>
<totfact> 0.15182383E+02</totfact>
</mgrwt>
</event>
<event>
 5    0  0.4930573E+000  0.4180476E+03  0.7546771E-02  0.1037704E+00
         21   -1    0    0  503  502  0.00000000000E+00  0.00000000000E+00  0.59042240238E+03  0.59042240238E+03  0.00000000000E+00 0.  1.
          2   -1    0    0  502    0 -0.00000000000E+00 -0.00000000000E+00 -0.74324407453E+03  0.74324407453E+03  0.00000000000E+00 0.  1.
         25    1    1    2    0    0 -0.17262393822E+03 -0.42438648673E+03  0.38026988125E+03  0.60838564805E+03  0.12500000000E+03 0.  0.
         21    1    1    2  503  501  0.16141189939E+02  0.65841692355E+02 -0.48663683883E+01  0.67965785554E+02  0.00000000000E+00 0.  1.
          2    1    1    2  501    0  0.15648274828E+03  0.35854479437E+03 -0.52822518501E+03  0.65731504331E+03  0.00000000000E+00 0.  1.
<mgrwt>
<rscale>  4 0.41804759E+03</rscale>
<asrwt>0</asrwt>
<pdfrwt beam="1">  1       21 0.90834216E-01 0.41804759E+03</pdfrwt>
<pdfrwt beam="2">  1        2 0.11434524E+00 0.41804759E+03</pdfrwt>
<totfact> 0.45732596E+02</totfact>
</mgrwt>
</event>
<event>
 5    0  0.4930573E+000  0.2982351E+03  0.7546771E-02  0.1086126E+00
         21   -1    0    0  503  502  0.00000000000E+00  0.00000000000E+00  0.99762949212E+02  0.99762949212E+02  0.00000000000E+00 0. -1.
          1   -1    0    0  502    0 -0.00000000000E+00 -0.00000000000E+00 -0.16221005822E+04  0.16221005822E+04  0.00000000000E+00 0. -1.
         25    1    1    2    0    0  0.73422989760E+02  0.22251291757E+03 -0.25006988642E+03  0.36477785296E+03  0.12500000000E+03 0.  0.
         21    1    1    2  503  501 -0.29378344887E+02  0.55302069969E+02 -0.94623433550E+01  0.63331998492E+02  0.00000000000E+00 0.  1.
          1    1    1    2  501    0 -0.44044644873E+02 -0.27781498754E+03 -0.12628054032E+04  0.12937536799E+04  0.00000000000E+00 0. -1.
<mgrwt>
<rscale>  4 0.29823511E+03</rscale>
<asrwt>0</asrwt>
<pdfrwt beam="1">  1       21 0.15348146E-01 0.29823511E+03</pdfrwt>
<pdfrwt beam="2">  1        1 0.24955393E+00 0.29823511E+03</pdfrwt>
<totfact> 0.24333356E+03</totfact>
</mgrwt>
</event>
<event>
 5    0  0.4930573E+000  0.2940138E+03  0.7546771E-02  0.1088272E+00
          1   -1    0    0  502    0 -0.00000000000E+00  0.00000000000E+00  0.30107654604E+04  0.30107654604E+04  0.00000000000E+00 0.  1.
         21   -1    0    0  503  502  0.00000000000E+00 -0.00000000000E+00 -0.33844861864E+02  0.33844861864E+02  0.00000000000E+00 0.  1.
         25    1    1    2    0    0 -0.22178266483E+03  0.78505555323E+02  0.10834131910E+04  0.11156880456E+04  0.12500000000E+03 0.  0.
         21    1    1    2  503  501 -0.39079138957E+02  0.47779569412E+02  0.16266067632E+03  0.17397862506E+03  0.00000000000E+00 0.  1.
          1    1    1    2  501    0  0.26086180379E+03 -0.12628512474E+03  0.17308467312E+04  0.17549436516E+04  0.00000000000E+00 0.  1.
<mgrwt>
<rscale>  4 0.29401385E+03</rscale>
<asrwt>0</asrwt>
<pdfrwt beam="1">  1       21 0.52069042E-02 0.29401385E+03</pdfrwt>
<pdfrwt beam="2">  1        1 0.46319448E+00 0.29401385E+03</pdfrwt>
<totfact> 0.19709485E+03</totfact>
</mgrwt>
</event>
<event>
 5    0  0.4930573E+000  0.2783578E+03  0.7546771E-02  0.1096589E+00
          2   -1    0    0  502    0 -0.00000000000E+00  0.00000000000E+00  0.14090929751E+04  0.14090929751E+04  0.00000000000E+00 0. -1.
         21   -1    0    0  503  502  0.00000000000E+00 -0.00000000000E+00 -0.81377318777E+02  0.81377318777E+02  0.00000000000E+00 0. -1.
         25    1    1    2    0    0  0.33266478424E+02 -0.26633856952E+03  0.41630172282E+03  0.51085713915E+03  0.12500000000E+03 0.  0.
         21    1    1    2  503  501  0.32688118793E+01  0.26903650976E+02 -0.84563215824E+01  0.28390155718E+02  0.00000000000E+00 0.  1.
          2    1    1    2  501    0 -0.36535290303E+02  0.23943491854E+03  0.91987025509E+03  0.95122299901E+03  0.00000000000E+00 0. -1.
<mgrwt>
<rscale>  4 0.27835785E+03</rscale>
<asrwt>0</asrwt>
<pdfrwt beam="1">  1       21 0.12519589E-01 0.27835785E+03</pdfrwt>
<pdfrwt beam="2">  1        2 0.21678352E+00 0.27835785E+03</pdfrwt>
<totfact> 0.10393324E+04</totfact>
</mgrwt>
</event>
<event>
 5    0  0.4930573E+000  0.2858873E+03  0.7546771E-02  0.1092516E+00
         21   -1    0    0  501  502  0.00000000000E+00  0.00000000000E+00  0.24159711941E+03  0.24159711941E+03  0.00000000000E+00 0.  1.
         -1   -1    0    0    0  501 -0.00000000000E+00 -0.00000000000E+00 -0.10391719442E+04  0.10391719442E+04  0.00000000000E+00 0. -1.
         25    1    1    2    0    0  0.21060732642E+03 -0.18996129369E+03  0.72667795863E+02  0.31834941118E+03  0.12500000000E+03 0.  0.
         21    1    1    2  503  502 -0.12009411051E+01  0.44703835320E+02  0.10170536957E+02  0.45861912017E+02  0.00000000000E+00 0.  1.
         -1    1    1    2    0  503 -0.20940638532E+03  0.14525745837E+03 -0.88041315759E+03  0.91655774040E+03  0.00000000000E+00 0. -1.
<mgrwt>
<rscale>  4 0.28588731E+03</rscale>
<asrwt>0</asrwt>
<pdfrwt beam="1">  1       21 0.37168787E-01 0.28588731E+03</pdfrwt>
<pdfrwt beam="2">  1       -1 0.15987261E+00 0.28588731E+03</pdfrwt>
<totfact> 0.20153780E+02</totfact>
</mgrwt>
</event>
<event>
 5    0  0.4930573E+000  0.3509246E+03  0.7546771E-02  0.1062236E+00
         -1   -1    0    0    0  501 -0.00000000000E+00  0.00000000000E+00  0.19312432683E+04  0.19312432683E+04  0.00000000000E+00 0.  1.
         21   -1    0    0  501  502  0.00000000000E+00 -0.00000000000E+00 -0.90819068718E+02  0.90819068718E+02  0.00000000000E+00 0.  1.
         25    1    1    2    0    0  0.22689577163E+03  0.24423051775E+03  0.44492755230E+03  0.56983836637E+03  0.12500000000E+03 0.  0.
         21    1    1    2  503  502 -0.42762720226E+02  0.26099891494E+02  0.64740810873E+02  0.81861023507E+02  0.00000000000E+00 0. -1.
         -1    1    1    2    0  503 -0.18413305140E+03 -0.27033040925E+03  0.13307558364E+04  0.13703629471E+04  0.00000000000E+00 0.  1.
<mgrwt>
<rscale>  4 0.35092456E+03</rscale>
<asrwt>0</asrwt>
<pdfrwt beam="1">  1       21 0.13972166E-01 0.35092456E+03</pdfrwt>
<pdfrwt beam="2">  1       -1 0.29711432E+00 0.35092456E+03</pdfrwt>
<totfact> 0.16095091E+02</totfact>
</mgrwt>
</event>
<event>
 5    0  0.4930573E+000  0.2614185E+03  0.7546771E-02  0.1106294E+00
          2   -1    0    0  502    0 -0.00000000000E+00  0.00000000000E+00  0.61508869210E+03  0.61508869210E+03  0.00000000000E+00 0. -1.
         21   -1    0    0  503  502  0.00000000000E+00 -0.00000000000E+00 -0.18029835132E+03  0.18029835132E+03  0.00000000000E+00 0. -1.
         25    1    1    2    0    0  0.14931295914E+03  0.14879383144E+03  0.28322699171E+02  0.24670050533E+03  0.12500000000E+03 0.  0.
         21    1    1    2  503  501  0.67409155418E+02 -0.49492791846E+02  0.75508795719E+01  0.83967532185E+02  0.00000000000E+00 0. -1.
          2    1    1    2  501    0 -0.21672211456E+03 -0.99301039592E+02  0.39891676204E+03  0.46471900589E+03  0.00000000000E+00 0. -1.
<mgrwt>
<rscale>  4 0.26141853E+03</rscale>
<asrwt>0</asrwt>
<pdfrwt beam="1">  1       21 0.27738208E-01 0.26141853E+03</pdfrwt>
<pdfrwt beam="2">  1        2 0.94629029E-01 0.26141853E+03</pdfrwt>
<totfact> 0.75076191E+03</totfact>
</mgrwt>
</event>
<event>
 5    0  0.4930573E+000  0.3501166E+03  0.7546771E-02  0.1062567E+00
          1   -1    0    0  502    0 -0.00000000000E+00  0.00000000000E+00  0.69975680111E+03  0.69975680111E+03  0.00000000000E+00 0. -1.
         21   -1    0    0  503  502  0.00000000000E+00 -0.00000000000E+00 -0.16372434915E+04  0.16372434915E+04  0.00000000000E+00 0. -1.
         25    1    1    2    0    0  0.27939750998E+03  0.28643634226E+03 -0.57980413589E+03  0.71547647253E+03  0.12500000000E+03 0.  0.
         21    1    1    2  503  501 -0.21850964852E+03 -0.20868128966E+03 -0.96244076515E+03  0.10087549621E+04  0.00000000000E+00 0. -1.
          1    1    1    2  501    0 -0.60887861458E+02 -0.77755052595E+02  0.60475821068E+03  0.61276885794E+03  0.00000000000E+00 0. -1.
<mgrwt>
<rscale>  4 0.35011664E+03</rscale>
<asrwt>0</asrwt>
<pdfrwt beam="1">  1       21 0.25188361E+00 0.35011664E+03</pdfrwt>
<pdfrwt beam="2">  1        1 0.10765489E+00 0.35011664E+03</pdfrwt>
<totfact> 0.17557378E+01</totfact>
</mgrwt>
</event>
<event>
 5    0  0.4930573E+000  0.1785351E+03  0.7546771E-02  0.1169228E+00
         21   -1    0    0  503  502  0.00000000000E+00  0.00000000000E+00  0.23355271614E+03  0.23355271614E+03  0.00000000000E+00 0.  1.
          1   -1    0    0  502    0 -0.00000000000E+00 -0.00000000000E+00 -0.74956403945E+03  0.74956403945E+03  0.00000000000E+00 0. -1.
         25    1    1    2    0    0  0.21002540222E+03 -0.53037046220E+02  0.63282309839E+02  0.25797916309E+03  0.12500000000E+03 0.  0.
         21    1    1    2  503  501 -0.85859873787E+02  0.50301497026E+02  0.29511659329E+02  0.10379352854E+03  0.00000000000E+00 0.  1.
          1    1    1    2  501    0 -0.12416552844E+03  0.27355491948E+01 -0.60880529248E+03  0.62134406397E+03  0.00000000000E+00 0. -1.
<mgrwt>
<rscale>  4 0.17853513E+03</rscale>
<asrwt>0</asrwt>
<pdfrwt beam="1">  1       21 0.35931187E-01 0.17853513E+03</pdfrwt>
<pdfrwt beam="2">  1        1 0.11531754E+00 0.17853513E+03</pdfrwt>
<totfact> 0.21355309E+03</totfact>
</mgrwt>
</event>
<event>
 5    0  0.4930573E+000  0.1690228E+03  0.7546771E-02  0.1178871E+00
         21   -1    0    0  503  502  0.00000000000E+00  0.00000000000E+00  0.58519117278E+02  0.58519117278E+02  0.00000000000E+00 0.  1.
          2   -1    0    0  502    0 -0.00000000000E+00 -0.00000000000E+00 -0.22001778223E+04  0.22001778223E+04  0.00000000000E+00 0.  1.
         25    1    1    2    0    0  0.94183619597E+02 -0.17998646883E+03 -0.58655297850E+03  0.63319434596E+03  0.12500000000E+03 0.  0.
         21    1    1    2  503  501 -0.51806261737E+02  0.88263546766E+02 -0.44631311275E+02  0.11165257001E+03  0.00000000000E+00 0.  1.
          2    1    1    2  501    0 -0.42377357861E+02  0.91722922063E+02 -0.15104744152E+04  0.15138500236E+04  0.00000000000E+00 0.  1.
<mgrwt>
<rscale>  4 0.16902277E+03</rscale>
<asrwt>0</asrwt>
<pdfrwt beam="1">  1       21 0.90029414E-02 0.16902277E+03</pdfrwt>
<pdfrwt beam="2">  1        2 0.33848888E+00 0.16902277E+03</pdfrwt>
<totfact> 0.74839626E+03</totfact>
</mgrwt>
</event>
<event>
 5    0  0.4930573E+000  0.2530090E+03  0.7546771E-02  0.1111418E+00
          2   -1    0    0  502    0 -0.00000000000E+00  0.00000000000E+00  0.10436637000E+04  0.10436637000E+04  0.00000000000E+00 0.  1.
         21   -1    0    0  503  502  0.00000000000E+00 -0.00000000000E+00 -0.14205065826E+03  0.14205065826E+03  0.00000000000E+00 0.  1.
         25    1    1    2    0    0  0.57078978990E+02 -0.25108112064E+03  0.89414548239E+02  0.29986613750E+03  0.12500000000E+03 0.  0.
         21    1    1    2  503  501  0.32332757757E+02  0.55051762429E+02  0.23149676156E+02  0.67911790411E+02  0.00000000000E+00 0. -1.
          2    1    1    2  501    0 -0.89411736746E+02  0.19602935821E+03  0.78904881734E+03  0.81793643035E+03  0.00000000000E+00 0.  1.
<mgrwt>
<rscale>  4 0.25300903E+03</rscale>
<asrwt>0</asrwt>
<pdfrwt beam="1">  1       21 0.21853948E-01 0.25300903E+03</pdfrwt>
<pdfrwt beam="2">  1        2 0.16056364E+00 0.25300903E+03</pdfrwt>
<totfact> 0.60191814E+03</totfact>
</mgrwt>
</event>
<event>
 5    0  0.4930573E+000  0.3007510E+03  0.7546771E-02  0.1084866E+00
         21   -1    0    0  503  502  0.00000000000E+00  0.00000000000E+00  0.16255344517E+04  0.16255344517E+04  0.00000000000E+00 0.  1.
          2   -1    0    0  502    0 -0.00000000000E+00 -0.00000000000E+00 -0.61928026102E+03  0.61928026102E+03  0.00000000000E+00 0.  1.
         25    1    1    2    0    0 -0.13000374602E+03  0.31494639748E+03  0.81977732754E+03  0.89652221055E+03  0.12500000000E+03 0.  0.
         21    1    1    2  503  501  0.91960597583E+02 -0.46200446672E+02  0.73188146233E+03  0.73908166510E+03  0.00000000000E+00 0.  1.
          2    1    1    2  501    0  0.38043148433E+02 -0.26874595080E+03 -0.54540459918E+03  0.60921083708E+03  0.00000000000E+00 0.  1.
<mgrwt>
<rscale>  4 0.30075100E+03</rscale>
<asrwt>0</asrwt>
<pdfrwt beam="1">  1       21 0.25008222E+00 0.30075100E+03</pdfrwt>
<pdfrwt beam="2">  1        2 0.95273886E-01 0.30075100E+03</pdfrwt>
<totfact> 0.36603023E+01</totfact>
</mgrwt>
</event>
<event>
 5    0  0.4930573E+000  0.2117507E+03  0.7546771E-02  0.1140187E+00
          1   -1    0    0  502    0 -0.00000000000E+00  0.00000000000E+00  0.82109054228E+03  0.82109054228E+03  0.00000000000E+00 0.  1.
         21   -1    0    0  503  502  0.00000000000E+00 -0.00000000000E+00 -0.15090292499E+03  0.15090292499E+03  0.00000000000E+00 0.  1.
         25    1    1    2    0    0  0.21084974353E+03  0.85588642953E+02  0.10379855771E+02  0.25983797173E+03  0.12500000000E+03 0.  0.
         21    1    1    2  503  501 -0.51728106810E+02 -0.38519173480E+02  0.54259511300E+02  0.84282965813E+02  0.00000000000E+00 0.  1.
          1    1    1    2  501    0 -0.15912163672E+03 -0.47069469474E+02  0.60554825022E+03  0.62787252972E+03  0.00000000000E+00 0.  1.
<mgrwt>
<rscale>  4 0.21175068E+03</rscale>
<asrwt>0</asrwt>
<pdfrwt beam="1">  1       21 0.23215835E-01 0.21175068E+03</pdfrwt>
<pdfrwt beam="2">  1        1 0.12632162E+00 0.21175068E+03</pdfrwt>
<totfact> 0.42838667E+03</totfact>
</mgrwt>
</event>
<event>
 5    0  0.4930573E+000  0.1974822E+03  0.7546771E-02  0.1151881E+00
          2   -1    0    0  502    0 -0.00000000000E+00  0.00000000000E+00  0.95374030308E+03  0.95374030308E+03  0.00000000000E+00 0.  1.
         21   -1    0    0  503  502  0.00000000000E+00 -0.00000000000E+00 -0.76393743366E+02  0.76393743366E+02  0.00000000000E+00 0.  1.
         25    1    1    2    0    0 -0.10516262387E+02  0.22847783061E+03  0.55990938512E+03  0.61760523832E+03  0.12500000000E+03 0.  0.
         21    1    1    2  503  501  0.14111445081E+02 -0.13659516298E+03  0.82406448151E+02  0.16015053584E+03  0.00000000000E+00 0.  1.
          2    1    1    2  501    0 -0.35951826947E+01 -0.91882667632E+02  0.23503072644E+03  0.25237827228E+03  0.00000000000E+00 0.  1.
<mgrwt>
<rscale>  4 0.19748217E+03</rscale>
<asrwt>0</asrwt>
<pdfrwt beam="1">  1       21 0.11752884E-01 0.19748217E+03</pdfrwt>
<pdfrwt beam="2">  1        2 0.14672927E+00 0.19748217E+03</pdfrwt>
<totfact> 0.21687273E+04</totfact>
</mgrwt>
</event>
<event>
 5    0  0.4930573E+000  0.3034544E+03  0.7546771E-02  0.1083526E+00
         -1   -1    0    0    0  501 -0.00000000000E+00  0.00000000000E+00  0.11045162805E+04  0.11045162805E+04  0.00000000000E+00 0. -1.
         21   -1    0    0  501  502  0.00000000000E+00 -0.00000000000E+00 -0.19350049988E+03  0.19350049988E+03  0.00000000000E+00 0. -1.
         25    1    1    2    0    0 -0.17400207785E+03 -0.18437009529E+03  0.42955496716E+03  0.51420961188E+03  0.12500000000E+03 0.  0.
         21    1    1    2  503  502 -0.54920106727E+01 -0.51258793380E+02 -0.11046623339E+03  0.12190330102E+03  0.00000000000E+00 0. -1.
         -1    1    1    2    0  503  0.17949408852E+03  0.23562888867E+03  0.59192704683E+03  0.66190386746E+03  0.00000000000E+00 0. -1.
<mgrwt>
<rscale>  4 0.30345438E+03</rscale>
<asrwt>0</asrwt>
<pdfrwt beam="1">  1       21 0.29769308E-01 0.30345438E+03</pdfrwt>
<pdfrwt beam="2">  1       -1 0.16992558E+00 0.30345438E+03</pdfrwt>
<totfact> 0.26327796E+02</totfact>
</mgrwt>
</event>
<event>
 5    0  0.4930573E+000  0.2496069E+03  0.7546771E-02  0.1113554E+00
         21   -1    0    0  503  502  0.00000000000E+00  0.00000000000E+00  0.75669678207E+02  0.75669678207E+02  0.00000000000E+00 0.  1.
          1   -1    0    0  502    0 -0.00000000000E+00 -0.00000000000E+00 -0.90668094134E+03  0.90668094134E+03  0.00000000000E+00 0.  1.
         25    1    1    2    0    0 -0.13716258856E+03  0.16692821751E+03 -0.22544489452E+03  0.33634655635E+03  0.12500000000E+03 0.  0.
         21    1    1    2  503  501  0.19548415836E+02 -0.25772662416E+02 -0.40590887652E+02  0.51903668947E+02  0.00000000000E+00 0. -1.
          1    1    1    2  501    0  0.11761417272E+03 -0.14115555510E+03 -0.56497548096E+03  0.59410039425E+03  0.00000000000E+00 0.  1.
<mgrwt>
<rscale>  4 0.24960690E+03</rscale>
<asrwt>0</asrwt>
<pdfrwt beam="1">  1       21 0.11641489E-01 0.24960690E+03</pdfrwt>
<pdfrwt beam="2">  1        1 0.13948937E+00 0.24960690E+03</pdfrwt>
<totfact> 0.12929716E+04</totfact>
</mgrwt>
</event>
<event>
 5    0  0.4930573E+000  0.3209275E+03  0.7546771E-02  0.1075223E+00
          1   -1    0    0  502    0 -0.00000000000E+00  0.00000000000E+00  0.97490930542E+03  0.97490930542E+03  0.00000000000E+00 0. -1.
         21   -1    0    0  503  502  0.00000000000E+00 -0.00000000000E+00 -0.24093183652E+03  0.24093183652E+03  0.00000000000E+00 0. -1.
         25    1    1    2    0    0 -0.26320768932E+02 -0.32177636942E+03  0.61586568591E+02  0.35164004354E+03  0.12500000000E+03 0.  0.
         21    1    1    2  503  501 -0.27349544426E+02  0.36134713363E+02 -0.60611967758E+02  0.75680418377E+02  0.00000000000E+00 0. -1.
          1    1    1    2  501    0  0.53670313358E+02  0.28564165605E+03  0.73300286807E+03  0.78852068001E+03  0.00000000000E+00 0. -1.
<mgrwt>
<rscale>  4 0.32092749E+03</rscale>
<asrwt>0</asrwt>
<pdfrwt beam="1">  1       21 0.37066437E-01 0.32092749E+03</pdfrwt>
<pdfrwt beam="2">  1        1 0.14998605E+00 0.32092749E+03</pdfrwt>
<totfact> 0.12471076E+03</totfact>
</mgrwt>
</event>
<event>
 5    0  0.4930573E+000  0.2007590E+03  0.7546771E-02  0.1149100E+00
          2   -1    0    0  502    0 -0.00000000000E+00  0.00000000000E+00  0.55759258919E+03  0.55759258919E+03  0.00000000000E+00 0. -1.
         21   -1    0    0  503  502  0.00000000000E+00 -0.00000000000E+00 -0.26901116836E+03  0.26901116836E+03  0.00000000000E+00 0. -1.
         25    1    1    2    0    0  0.19950781468E+03  0.16339537094E+02  0.11234524968E+03  0.26137483375E+03  0.12500000000E+03 0.  0.
         21    1    1    2  503  501 -0.58627723228E+02  0.33108123808E+02 -0.17287856492E+03  0.18552723790E+03  0.00000000000E+00 0. -1.
          2    1    1    2  501    0 -0.14088009145E+03 -0.49447660902E+02  0.34911473607E+03  0.37970168590E+03  0.00000000000E+00 0. -1.
<mgrwt>
<rscale>  4 0.20075901E+03</rscale>
<asrwt>0</asrwt>
<pdfrwt beam="1">  1       21 0.41386334E-01 0.20075901E+03</pdfrwt>
<pdfrwt beam="2">  1        2 0.85783475E-01 0.20075901E+03</pdfrwt>
<totfact> 0.38657745E+03</totfact>
</mgrwt>
</event>
<event>
 5    0  0.4930573E+000  0.2093837E+03  0.7546771E-02  0.1142055E+00
         21   -1    0    0  503  502  0.00000000000E+00  0.00000000000E+00  0.11155244394E+03  0.11155244394E+03  0.00000000000E+00 0.  1.
          2   -1    0    0  502    0 -0.00000000000E+00 -0.00000000000E+00 -0.31387326032E+04  0.31387326032E+04  0.00000000000E+00 0.  1.
         25    1    1    2    0    0  0.82358730599E+02 -0.21499723698E+03 -0.68858276541E+02  0.27087494285E+03  0.12500000000E+03 0.  0.
         21    1    1    2  503  501 -0.48995677158E+02  0.51842456131E+02 -0.14939293032E+03  0.16554897846E+03  0.00000000000E+00 0.  1.
          2    1    1    2  501    0 -0.33363053441E+02  0.16315478085E+03 -0.28089289524E+04  0.28138611258E+04  0.00000000000E+00 0.  1.
<mgrwt>
<rscale>  4 0.20938375E+03</rscale>
<asrwt>0</asrwt>
<pdfrwt beam="1">  1       21 0.17161916E-01 0.20938375E+03</pdfrwt>
<pdfrwt beam="2">  1        2 0.48288190E+00 0.20938375E+03</pdfrwt>
<totfact> 0.68699782E+02</totfact>
</mgrwt>
</event>
