<event>
 4    0  0.1264838E-002  0.8881539E+03  0.7546771E-02  0.9440512E-01
          1   -1    0    0  502    0  0.00000000000E+00  0.00000000000E+00  0.56491624452E+03  0.56491624452E+03  0.00000000000E+00 0. -1.
         -1   -1    0    0    0  501 -0.00000000000E+00 -0.00000000000E+00 -0.34908598690E+03  0.34908598690E+03  0.00000000000E+00 0.  1.
         25    1    1    2    0    0  0.41735061972E+03  0.50230873913E+01  0.23718948467E+03  0.49607521892E+03  0.12500000000E+03 0.  0.
         21    1    1    2  502  501 -0.41735061972E+03 -0.50230873913E+01 -0.21359227052E+02  0.41792701249E+03  0.00000000000E+00 0.  1.
<mgrwt>
<rscale>  3 0.88815392E+03</rscale>
<asrwt>0</asrwt>
<pdfrwt beam="1">  1        1 0.86910191E-01 0.88815392E+03</pdfrwt>
<pdfrwt beam="2">  1       -1 0.53705537E-01 0.88815392E+03</pdfrwt>
<totfact> 0.13175393E+02</totfact>
</mgrwt>
</event>
<event>
 4    0  0.1264838E-002  0.5520693E+03  0.7546771E-02  0.1001016E+00
          1   -1    0    0  502    0  0.00000000000E+00  0.00000000000E+00  0.32314266125E+03  0.32314266125E+03  0.00000000000E+00 0. -1.
         -1   -1    0    0    0  501 -0.00000000000E+00 -0.00000000000E+00 -0.23579404775E+03  0.23579404775E+03  0.00000000000E+00 0.  1.
         25    1    1    2    0    0  0.23812856226E+03 -0.69772621133E+02  0.13067722112E+03  0.30704228853E+03  0.12500000000E+03 0.  0.
         21    1    1    2  502  501 -0.23812856226E+03  0.69772621133E+02 -0.43328607627E+02  0.25189442047E+03  0.00000000000E+00 0.  1.
<mgrwt>
<rscale>  3 0.55206926E+03</rscale>
<asrwt>0</asrwt>
<pdfrwt beam="1">  1        1 0.49714256E-01 0.55206926E+03</pdfrwt>
<pdfrwt beam="2">  1       -1 0.36276007E-01 0.55206926E+03</pdfrwt>
<totfact> 0.58427407E+02</totfact>
</mgrwt>
</event>
<event>
 4    0  0.1264838E-002  0.5682465E+03  0.7546771E-02  0.9973566E-01
         -2   -1    0    0    0  501 -0.00000000000E+00  0.00000000000E+00  0.22542905935E+02  0.22542905935E+02  0.00000000000E+00 0.  1.
          2   -1    0    0  502    0  0.00000000000E+00 -0.00000000000E+00 -0.35809940608E+04  0.35809940608E+04  0.00000000000E+00 0. -1.
         25    1    1    2    0    0  0.20992028437E+03  0.86603746111E+02 -0.27959412089E+04  0.28079314412E+04  0.12500000000E+03 0.  0.
         21    1    1    2  502  501 -0.20992028437E+03 -0.86603746111E+02 -0.76250994596E+03  0.79560552557E+03  0.00000000000E+00 0.  1.
<mgrwt>
<rscale>  3 0.56824647E+03</rscale>
<asrwt>0</asrwt>
<pdfrwt beam="1">  1        2 0.55092231E+00 0.56824647E+03</pdfrwt>
<pdfrwt beam="2">  1       -2 0.34681385E-02 0.56824647E+03</pdfrwt>
<totfact> 0.28638504E+02</totfact>
</mgrwt>
</event>
<event>
 4    0  0.1264838E-002  0.5399659E+03  0.7546771E-02  0.1003843E+00
         -1   -1    0    0    0  501 -0.00000000000E+00  0.00000000000E+00  0.76938729436E+02  0.76938729436E+02  0.00000000000E+00 0. -1.
          1   -1    0    0  502    0  0.00000000000E+00 -0.00000000000E+00 -0.94738769344E+03  0.94738769344E+03  0.00000000000E+00 0.  1.
         25    1    1    2    0    0  0.64264012397E+02 -0.20710567643E+03 -0.71492712426E+03  0.75747502765E+03  0.12500000000E+03 0.  0.
         21    1    1    2  502  501 -0.64264012397E+02  0.20710567643E+03 -0.15552183974E+03  0.26685139523E+03  0.00000000000E+00 0.  1.
<mgrwt>
<rscale>  3 0.53996594E+03</rscale>
<asrwt>0</asrwt>
<pdfrwt beam="1">  1        1 0.14575195E+00 0.53996594E+03</pdfrwt>
<pdfrwt beam="2">  1       -1 0.11836728E-01 0.53996594E+03</pdfrwt>
<totfact> 0.81415856E+02</totfact>
</mgrwt>
</event>
<event>
 4    0  0.1264838E-002  0.4941728E+03  0.7546771E-02  0.1015311E+00
         -2   -1    0    0    0  501 -0.00000000000E+00  0.00000000000E+00  0.30764444419E+02  0.30764444419E+02  0.00000000000E+00 0. -1.
          2   -1    0    0  502    0  0.00000000000E+00 -0.00000000000E+00 -0.19844886237E+04  0.19844886237E+04  0.00000000000E+00 0.  1.
         25    1    1    2    0    0  0.18215786673E+03  0.92002258751E+02 -0.14831626139E+04  0.15023455805E+04  0.12500000000E+03 0.  0.
         21    1    1    2  502  501 -0.18215786673E+03 -0.92002258751E+02 -0.47056156539E+03  0.51290748761E+03  0.00000000000E+00 0. -1.
<mgrwt>
<rscale>  3 0.49417280E+03</rscale>
<asrwt>0</asrwt>
<pdfrwt beam="1">  1        2 0.30530600E+00 0.49417280E+03</pdfrwt>
<pdfrwt beam="2">  1       -2 0.47329905E-02 0.49417280E+03</pdfrwt>
<totfact> 0.15878904E+03</totfact>
</mgrwt>
</event>
<event>
 4    0  0.1264838E-002  0.5341977E+03  0.7546771E-02  0.1005219E+00
         -1   -1    0    0    0  501 -0.00000000000E+00  0.00000000000E+00  0.50846392182E+03  0.50846392182E+03  0.00000000000E+00 0.  1.
          1   -1    0    0  502    0  0.00000000000E+00 -0.00000000000E+00 -0.14030848262E+03  0.14030848262E+03  0.00000000000E+00 0. -1.
         25    1    1    2    0    0  0.82450410659E+02 -0.22395646072E+03  0.29422144033E+03  0.39893084923E+03  0.12500000000E+03 0.  0.
         21    1    1    2  502  501 -0.82450410659E+02  0.22395646072E+03  0.73933998871E+02  0.24984155520E+03  0.00000000000E+00 0. -1.
<mgrwt>
<rscale>  3 0.53419772E+03</rscale>
<asrwt>0</asrwt>
<pdfrwt beam="1">  1        1 0.21585921E-01 0.53419772E+03</pdfrwt>
<pdfrwt beam="2">  1       -1 0.78225218E-01 0.53419772E+03</pdfrwt>
<totfact> 0.39345986E+02</totfact>
</mgrwt>
</event>
<event>
 4    0  0.1264838E-002  0.5632984E+03  0.7546771E-02  0.9984619E-01
          1   -1    0    0  502    0  0.00000000000E+00  0.00000000000E+00  0.72075027831E+03  0.72075027831E+03  0.00000000000E+00 0. -1.
         -1   -1    0    0    0  501 -0.00000000000E+00 -0.00000000000E+00 -0.11006067623E+03  0.11006067623E+03  0.00000000000E+00 0.  1.
         25    1    1    2    0    0 -0.10311213175E+03 -0.19876002599E+03  0.53698823534E+03  0.59507900697E+03  0.12500000000E+03 0.  0.
         21    1    1    2  502  501  0.10311213175E+03  0.19876002599E+03  0.73701366736E+02  0.23573194757E+03  0.00000000000E+00 0.  1.
<mgrwt>
<rscale>  3 0.56329837E+03</rscale>
<asrwt>0</asrwt>
<pdfrwt beam="1">  1        1 0.11088466E+00 0.56329837E+03</pdfrwt>
<pdfrwt beam="2">  1       -1 0.16932412E-01 0.56329837E+03</pdfrwt>
<totfact> 0.70933955E+02</totfact>
</mgrwt>
</event>
<event>
 4    0  0.1264838E-002  0.6523825E+03  0.7546771E-02  0.9802319E-01
         -2   -1    0    0    0  501 -0.00000000000E+00  0.00000000000E+00  0.13092615458E+03  0.13092615458E+03  0.00000000000E+00 0.  1.
          2   -1    0    0  502    0  0.00000000000E+00 -0.00000000000E+00 -0.81267733447E+03  0.81267733447E+03  0.00000000000E+00 0. -1.
         25    1    1    2    0    0 -0.39796570714E+02 -0.31143543678E+03 -0.33533446813E+03  0.47607772878E+03  0.12500000000E+03 0.  0.
         21    1    1    2  502  501  0.39796570714E+02  0.31143543678E+03 -0.34641671176E+03  0.46752576026E+03  0.00000000000E+00 0. -1.
<mgrwt>
<rscale>  3 0.65238246E+03</rscale>
<asrwt>0</asrwt>
<pdfrwt beam="1">  1        2 0.12502728E+00 0.65238246E+03</pdfrwt>
<pdfrwt beam="2">  1       -2 0.20142486E-01 0.65238246E+03</pdfrwt>
<totfact> 0.71510398E+02</totfact>
</mgrwt>
</event>
<event>
 4    0  0.1264838E-002  0.5235515E+03  0.7546771E-02  0.1007808E+00
         -2   -1    0    0    0  501 -0.00000000000E+00  0.00000000000E+00  0.24274249542E+02  0.24274249542E+02  0.00000000000E+00 0. -1.
          2   -1    0    0  502    0  0.00000000000E+00 -0.00000000000E+00 -0.28230133657E+04  0.28230133657E+04  0.00000000000E+00 0.  1.
         25    1    1    2    0    0 -0.21238841982E+03 -0.12011347975E+03 -0.12756073391E+04  0.13047356715E+04  0.12500000000E+03 0.  0.
         21    1    1    2  502  501  0.21238841982E+03  0.12011347975E+03 -0.15231317770E+04  0.15425519437E+04  0.00000000000E+00 0.  1.
<mgrwt>
<rscale>  3 0.52355145E+03</rscale>
<asrwt>0</asrwt>
<pdfrwt beam="1">  1        2 0.43430963E+00 0.52355145E+03</pdfrwt>
<pdfrwt beam="2">  1       -2 0.37345009E-02 0.52355145E+03</pdfrwt>
<totfact> 0.77758545E+02</totfact>
</mgrwt>
</event>
<event>
 4    0  0.1264838E-002  0.5781357E+03  0.7546771E-02  0.9951835E-01
          2   -1    0    0  502    0  0.00000000000E+00  0.00000000000E+00  0.18203051596E+04  0.18203051596E+04  0.00000000000E+00 0.  1.
         -2   -1    0    0    0  501 -0.00000000000E+00 -0.00000000000E+00 -0.45904513639E+02  0.45904513639E+02  0.00000000000E+00 0. -1.
         25    1    1    2    0    0  0.23712133753E+03 -0.12728680360E+03  0.73765405732E+03  0.79510185974E+03  0.12500000000E+03 0.  0.
         21    1    1    2  502  501 -0.23712133753E+03  0.12728680360E+03  0.10367465887E+04  0.10711078135E+04  0.00000000000E+00 0. -1.
<mgrwt>
<rscale>  3 0.57813570E+03</rscale>
<asrwt>0</asrwt>
<pdfrwt beam="1">  1        2 0.28004689E+00 0.57813570E+03</pdfrwt>
<pdfrwt beam="2">  1       -2 0.70622343E-02 0.57813570E+03</pdfrwt>
<totfact> 0.10378259E+03</totfact>
</mgrwt>
</event>
<event>
 4    0  0.1264838E-002  0.5060557E+03  0.7546771E-02  0.1012210E+00
          2   -1    0    0  502    0  0.00000000000E+00  0.00000000000E+00  0.15705916891E+04  0.15705916891E+04  0.00000000000E+00 0.  1.
         -2   -1    0    0    0  501 -0.00000000000E+00 -0.00000000000E+00 -0.40763685276E+02  0.40763685276E+02  0.00000000000E+00 0. -1.
         25    1    1    2    0    0  0.85075490570E+02 -0.18589526062E+03  0.11970371409E+04  0.12207857321E+04  0.12500000000E+03 0.  0.
         21    1    1    2  502  501 -0.85075490570E+02  0.18589526062E+03  0.33279086292E+03  0.39056964227E+03  0.00000000000E+00 0. -1.
<mgrwt>
<rscale>  3 0.50605575E+03</rscale>
<asrwt>0</asrwt>
<pdfrwt beam="1">  1        2 0.24162944E+00 0.50605575E+03</pdfrwt>
<pdfrwt beam="2">  1       -2 0.62713374E-02 0.50605575E+03</pdfrwt>
<totfact> 0.17139694E+03</totfact>
</mgrwt>
</event>
<event>
 4    0  0.1264838E-002  0.4512616E+03  0.7546771E-02  0.1027346E+00
          3   -1    0    0  502    0  0.00000000000E+00  0.00000000000E+00  0.34418461182E+03  0.34418461182E+03  0.00000000000E+00 0.  1.
         -3   -1    0    0    0  501 -0.00000000000E+00 -0.00000000000E+00 -0.14791267102E+03  0.14791267102E+03  0.00000000000E+00 0. -1.
         25    1    1    2    0    0 -0.83694817021E+02 -0.18871990121E+03  0.75279173749E+02  0.25280818324E+03  0.12500000000E+03 0.  0.
         21    1    1    2  502  501  0.83694817021E+02  0.18871990121E+03  0.12099276704E+03  0.23928909960E+03  0.00000000000E+00 0.  1.
<mgrwt>
<rscale>  3 0.45126163E+03</rscale>
<asrwt>0</asrwt>
<pdfrwt beam="1">  1        3 0.52951478E-01 0.45126163E+03</pdfrwt>
<pdfrwt beam="2">  1       -3 0.22755796E-01 0.45126163E+03</pdfrwt>
<totfact> 0.16562398E+02</totfact>
</mgrwt>
</event>
<event>
 4    0  0.1264838E-002  0.4381453E+03  0.7546771E-02  0.1031317E+00
          2   -1    0    0  502    0  0.00000000000E+00  0.00000000000E+00  0.28576346263E+04  0.28576346263E+04  0.00000000000E+00 0. -1.
         -2   -1    0    0    0  501 -0.00000000000E+00 -0.00000000000E+00 -0.16794600412E+02  0.16794600412E+02  0.00000000000E+00 0.  1.
         25    1    1    2    0    0  0.18246899967E+03  0.84722891822E+02  0.15690730608E+04  0.15868485039E+04  0.12500000000E+03 0.  0.
         21    1    1    2  502  501 -0.18246899967E+03 -0.84722891822E+02  0.12717669651E+04  0.12875807228E+04  0.00000000000E+00 0. -1.
<mgrwt>
<rscale>  3 0.43814533E+03</rscale>
<asrwt>0</asrwt>
<pdfrwt beam="1">  1        2 0.43963571E+00 0.43814533E+03</pdfrwt>
<pdfrwt beam="2">  1       -2 0.25837870E-02 0.43814533E+03</pdfrwt>
<totfact> 0.13077575E+03</totfact>
</mgrwt>
</event>
<event>
 4    0  0.1264838E-002  0.5116804E+03  0.7546771E-02  0.1010774E+00
          2   -1    0    0  502    0  0.00000000000E+00  0.00000000000E+00  0.16109432313E+04  0.16109432313E+04  0.00000000000E+00 0.  1.
         -2   -1    0    0    0  501 -0.00000000000E+00 -0.00000000000E+00 -0.40630985136E+02  0.40630985136E+02  0.00000000000E+00 0. -1.
         25    1    1    2    0    0 -0.23260891227E+03  0.48989921263E+02  0.95139274690E+03  0.98857477072E+03  0.12500000000E+03 0.  0.
         21    1    1    2  502  501  0.23260891227E+03 -0.48989921263E+02  0.61891949929E+03  0.66299944575E+03  0.00000000000E+00 0. -1.
<mgrwt>
<rscale>  3 0.51168041E+03</rscale>
<asrwt>0</asrwt>
<pdfrwt beam="1">  1        2 0.24783737E+00 0.51168041E+03</pdfrwt>
<pdfrwt beam="2">  1       -2 0.62509220E-02 0.51168041E+03</pdfrwt>
<totfact> 0.16374758E+03</totfact>
</mgrwt>
</event>
<event>
 4    0  0.1264838E-002  0.4696104E+03  0.7546771E-02  0.1022030E+00
         -1   -1    0    0    0  501 -0.00000000000E+00  0.00000000000E+00  0.69284419006E+03  0.69284419006E+03  0.00000000000E+00 0.  1.
          1   -1    0    0  502    0  0.00000000000E+00 -0.00000000000E+00 -0.79575594432E+02  0.79575594432E+02  0.00000000000E+00 0. -1.
         25    1    1    2    0    0  0.17133912718E+03 -0.12983510351E+03  0.26718020330E+03  0.36499933101E+03  0.12500000000E+03 0.  0.
         21    1    1    2  502  501 -0.17133912718E+03  0.12983510351E+03  0.34608839233E+03  0.40742045348E+03  0.00000000000E+00 0. -1.
<mgrwt>
<rscale>  3 0.46961043E+03</rscale>
<asrwt>0</asrwt>
<pdfrwt beam="1">  1        1 0.12242400E-01 0.46961043E+03</pdfrwt>
<pdfrwt beam="2">  1       -1 0.10659141E+00 0.46961043E+03</pdfrwt>
<totfact> 0.42494469E+02</totfact>
</mgrwt>
</event>
<event>
 4    0  0.1264838E-002  0.5028514E+03  0.7546771E-02  0.1013037E+00
          1   -1    0    0  502    0  0.00000000000E+00  0.00000000000E+00  0.60387316444E+03  0.60387316444E+03  0.00000000000E+00 0.  1.
         -1   -1    0    0    0  501 -0.00000000000E+00 -0.00000000000E+00 -0.10468239320E+03  0.10468239320E+03  0.00000000000E+00 0. -1.
         25    1    1    2    0    0 -0.18546096324E+02  0.22048058998E+03  0.14978319634E+03  0.29498415916E+03  0.12500000000E+03 0.  0.
         21    1    1    2  502  501  0.18546096324E+02 -0.22048058998E+03  0.34940757489E+03  0.41357139848E+03  0.00000000000E+00 0. -1.
<mgrwt>
<rscale>  3 0.50285142E+03</rscale>
<asrwt>0</asrwt>
<pdfrwt beam="1">  1        1 0.92903562E-01 0.50285142E+03</pdfrwt>
<pdfrwt beam="2">  1       -1 0.16104984E-01 0.50285142E+03</pdfrwt>
<totfact> 0.99914238E+02</totfact>
</mgrwt>
</event>
<event>
 4    0  0.1264838E-002  0.4897796E+03  0.7546771E-02  0.1016482E+00
          1   -1    0    0  502    0  0.00000000000E+00  0.00000000000E+00  0.29298721613E+03  0.29298721613E+03  0.00000000000E+00 0.  1.
         -1   -1    0    0    0  501 -0.00000000000E+00 -0.00000000000E+00 -0.20468817073E+03  0.20468817073E+03  0.00000000000E+00 0. -1.
         25    1    1    2    0    0 -0.70689440076E+02 -0.21771307950E+03  0.42839174785E+02  0.26430319109E+03  0.12500000000E+03 0.  0.
         21    1    1    2  502  501  0.70689440076E+02  0.21771307950E+03  0.45459870612E+02  0.23337219577E+03  0.00000000000E+00 0. -1.
<mgrwt>
<rscale>  3 0.48977961E+03</rscale>
<asrwt>0</asrwt>
<pdfrwt beam="1">  1        1 0.45074956E-01 0.48977961E+03</pdfrwt>
<pdfrwt beam="2">  1       -1 0.31490488E-01 0.48977961E+03</pdfrwt>
<totfact> 0.85089585E+02</totfact>
</mgrwt>
</event>
<event>
 4    0  0.1264838E-002  0.6331316E+03  0.7546771E-02  0.9838957E-01
          2   -1    0    0  502    0  0.00000000000E+00  0.00000000000E+00  0.92922452092E+03  0.92922452092E+03  0.00000000000E+00 0.  1.
         -2   -1    0    0    0  501 -0.00000000000E+00 -0.00000000000E+00 -0.10784681419E+03  0.10784681419E+03  0.00000000000E+00 0. -1.
         25    1    1    2    0    0  0.27696552139E+03 -0.10063090184E+03  0.30284432975E+03  0.44065424825E+03  0.12500000000E+03 0.  0.
         21    1    1    2  502  501 -0.27696552139E+03  0.10063090184E+03  0.51853337699E+03  0.59641708686E+03  0.00000000000E+00 0. -1.
<mgrwt>
<rscale>  3 0.63313160E+03</rscale>
<asrwt>0</asrwt>
<pdfrwt beam="1">  1        2 0.14295761E+00 0.63313160E+03</pdfrwt>
<pdfrwt beam="2">  1       -2 0.16591818E-01 0.63313160E+03</pdfrwt>
<totfact> 0.83261523E+02</totfact>
</mgrwt>
</event>
<event>
 4    0  0.1264838E-002  0.4554043E+03  0.7546771E-02  0.1026123E+00
          2   -1    0    0  502    0  0.00000000000E+00  0.00000000000E+00  0.26678658372E+03  0.26678658372E+03  0.00000000000E+00 0. -1.
         -2   -1    0    0    0  501 -0.00000000000E+00 -0.00000000000E+00 -0.19434361309E+03  0.19434361309E+03  0.00000000000E+00 0.  1.
         25    1    1    2    0    0  0.11857552275E+03  0.16930180445E+03  0.79539445682E+02  0.25431236503E+03  0.12500000000E+03 0.  0.
         21    1    1    2  502  501 -0.11857552275E+03 -0.16930180445E+03 -0.70964750521E+01  0.20681783178E+03  0.00000000000E+00 0.  1.
<mgrwt>
<rscale>  3 0.45540430E+03</rscale>
<asrwt>0</asrwt>
<pdfrwt beam="1">  1        2 0.41044090E-01 0.45540430E+03</pdfrwt>
<pdfrwt beam="2">  1       -2 0.29899017E-01 0.45540430E+03</pdfrwt>
<totfact> 0.12875051E+03</totfact>
</mgrwt>
</event>
<event>
 4    0  0.1264838E-002  0.4775477E+03  0.7546771E-02  0.1019811E+00
          2   -1    0    0  502    0  0.00000000000E+00  0.00000000000E+00  0.89916722807E+03  0.89916722807E+03  0.00000000000E+00 0.  1.
         -2   -1    0    0    0  501 -0.00000000000E+00 -0.00000000000E+00 -0.63406390665E+02  0.63406390665E+02  0.00000000000E+00 0. -1.
         25    1    1    2    0    0 -0.40062507736E+02 -0.21062153982E+03  0.32723544325E+03  0.41069997916E+03  0.12500000000E+03 0.  0.
         21    1    1    2  502  501  0.40062507736E+02  0.21062153982E+03  0.50852539416E+03  0.55187363958E+03  0.00000000000E+00 0.  1.
<mgrwt>
<rscale>  3 0.47754769E+03</rscale>
<asrwt>0</asrwt>
<pdfrwt beam="1">  1        2 0.13833341E+00 0.47754769E+03</pdfrwt>
<pdfrwt beam="2">  1       -2 0.97548300E-02 0.47754769E+03</pdfrwt>
<totfact> 0.21045873E+03</totfact>
</mgrwt>
</event>
<event>
 4    0  0.1264838E-002  0.4655832E+03  0.7546771E-02  0.1023174E+00
          2   -1    0    0  502    0  0.00000000000E+00  0.00000000000E+00  0.41043804642E+03  0.41043804642E+03  0.00000000000E+00 0. -1.
         -2   -1    0    0    0  501 -0.00000000000E+00 -0.00000000000E+00 -0.13203435915E+03  0.13203435915E+03  0.00000000000E+00 0.  1.
         25    1    1    2    0    0 -0.10311354251E+03  0.18576054746E+03  0.10378594891E+03  0.26746197268E+03  0.12500000000E+03 0.  0.
         21    1    1    2  502  501  0.10311354251E+03 -0.18576054746E+03  0.17461773837E+03  0.27501043288E+03  0.00000000000E+00 0.  1.
<mgrwt>
<rscale>  3 0.46558318E+03</rscale>
<asrwt>0</asrwt>
<pdfrwt beam="1">  1        2 0.63144314E-01 0.46558318E+03</pdfrwt>
<pdfrwt beam="2">  1       -2 0.20312979E-01 0.46558318E+03</pdfrwt>
<totfact> 0.15979570E+03</totfact>
</mgrwt>
</event>
<event>
 4    0  0.1356182E-002  0.7749133E+03  0.7546771E-02  0.9597056E-01
         -2   -1    0    0    0  501 -0.00000000000E+00  0.00000000000E+00  0.60535457511E+02  0.60535457511E+02  0.00000000000E+00 0.  1.
          2   -1    0    0  502    0  0.00000000000E+00 -0.00000000000E+00 -0.24799128644E+04  0.24799128644E+04  0.00000000000E+00 0. -1.
         25    1    1    2    0    0  0.21794961264E+03 -0.35393011105E+02 -0.23787268520E+03  0.34779751760E+03  0.12500000000E+03 0.  0.
         21    1    1    2  502  501 -0.21794961264E+03  0.35393011105E+02 -0.21815047217E+04  0.21926508043E+04  0.00000000000E+00 0. -1.
<mgrwt>
<rscale>  3 0.77491331E+03</rscale>
<asrwt>0</asrwt>
<pdfrwt beam="1">  1        2 0.38152500E+00 0.77491331E+03</pdfrwt>
<pdfrwt beam="2">  1       -2 0.93131486E-02 0.77491331E+03</pdfrwt>
<totfact> 0.28510996E+02</totfact>
</mgrwt>
</event>
<event>
 4    0  0.1264838E-002  0.5227155E+03  0.7546771E-02  0.1008014E+00
          2   -1    0    0  502    0  0.00000000000E+00  0.00000000000E+00  0.40496434759E+03  0.40496434759E+03  0.00000000000E+00 0. -1.
         -2   -1    0    0    0  501 -0.00000000000E+00 -0.00000000000E+00 -0.16867624524E+03  0.16867624524E+03  0.00000000000E+00 0.  1.
         25    1    1    2    0    0  0.24450054270E+03 -0.16795897968E+02  0.15301080266E+03  0.31480140295E+03  0.12500000000E+03 0.  0.
         21    1    1    2  502  501 -0.24450054270E+03  0.16795897968E+02  0.83277299693E+02  0.25883918987E+03  0.00000000000E+00 0.  1.
<mgrwt>
<rscale>  3 0.52271547E+03</rscale>
<asrwt>0</asrwt>
<pdfrwt beam="1">  1        2 0.62302207E-01 0.52271547E+03</pdfrwt>
<pdfrwt beam="2">  1       -2 0.25950192E-01 0.52271547E+03</pdfrwt>
<totfact> 0.10521685E+03</totfact>
</mgrwt>
</event>
<event>
 4    0  0.1264838E-002  0.6130603E+03  0.7546771E-02  0.9878675E-01
          1   -1    0    0  502    0  0.00000000000E+00  0.00000000000E+00  0.90480738484E+03  0.90480738484E+03  0.00000000000E+00 0. -1.
         -1   -1    0    0    0  501 -0.00000000000E+00 -0.00000000000E+00 -0.10384611520E+03  0.10384611520E+03  0.00000000000E+00 0.  1.
         25    1    1    2    0    0  0.12659260480E+03 -0.17567746823E+03  0.74380058336E+03  0.78469903036E+03  0.12500000000E+03 0.  0.
         21    1    1    2  502  501 -0.12659260480E+03  0.17567746823E+03  0.57160686270E+02  0.22395446968E+03  0.00000000000E+00 0. -1.
<mgrwt>
<rscale>  3 0.61306030E+03</rscale>
<asrwt>0</asrwt>
<pdfrwt beam="1">  1        1 0.13920113E+00 0.61306030E+03</pdfrwt>
<pdfrwt beam="2">  1       -1 0.15976326E-01 0.61306030E+03</pdfrwt>
<totfact> 0.54187271E+02</totfact>
</mgrwt>
</event>
<event>
 4    0  0.1264838E-002  0.5120094E+03  0.7546771E-02  0.1010691E+00
         -2   -1    0    0    0  501 -0.00000000000E+00  0.00000000000E+00  0.25570030072E+02  0.25570030072E+02  0.00000000000E+00 0. -1.
          2   -1    0    0  502    0  0.00000000000E+00 -0.00000000000E+00 -0.25630949184E+04  0.25630949184E+04  0.00000000000E+00 0.  1.
         25    1    1    2    0    0 -0.13560901119E+03  0.15249432825E+03 -0.19901623175E+04  0.20044987837E+04  0.12500000000E+03 0.  0.
         21    1    1    2  502  501  0.13560901119E+03 -0.15249432825E+03 -0.54736257087E+03  0.58416616476E+03  0.00000000000E+00 0. -1.
<mgrwt>
<rscale>  3 0.51200943E+03</rscale>
<asrwt>0</asrwt>
<pdfrwt beam="1">  1        2 0.39432229E+00 0.51200943E+03</pdfrwt>
<pdfrwt beam="2">  1       -2 0.39338509E-02 0.51200943E+03</pdfrwt>
<totfact> 0.10144237E+03</totfact>
</mgrwt>
</event>
<event>
 4    0  0.1264838E-002  0.7636406E+03  0.7546771E-02  0.9614190E-01
         -2   -1    0    0    0  501 -0.00000000000E+00  0.00000000000E+00  0.12663693981E+03  0.12663693981E+03  0.00000000000E+00 0. -1.
          2   -1    0    0  502    0  0.00000000000E+00 -0.00000000000E+00 -0.11512182110E+04  0.11512182110E+04  0.00000000000E+00 0.  1.
         25    1    1    2    0    0 -0.23823299347E+03  0.25796052887E+03 -0.72945625465E+03  0.81916422107E+03  0.12500000000E+03 0.  0.
         21    1    1    2  502  501  0.23823299347E+03 -0.25796052887E+03 -0.29512501655E+03  0.45869092974E+03  0.00000000000E+00 0. -1.
<mgrwt>
<rscale>  3 0.76364063E+03</rscale>
<asrwt>0</asrwt>
<pdfrwt beam="1">  1        2 0.17711049E+00 0.76364063E+03</pdfrwt>
<pdfrwt beam="2">  1       -2 0.19482606E-01 0.76364063E+03</pdfrwt>
<totfact> 0.45593603E+02</totfact>
</mgrwt>
</event>
<event>
 4    0  0.1264838E-002  0.4544401E+03  0.7546771E-02  0.1026406E+00
         -3   -1    0    0    0  501 -0.00000000000E+00  0.00000000000E+00  0.23752677256E+03  0.23752677256E+03  0.00000000000E+00 0. -1.
          3   -1    0    0  502    0  0.00000000000E+00 -0.00000000000E+00 -0.21736058449E+03  0.21736058449E+03  0.00000000000E+00 0.  1.
         25    1    1    2    0    0  0.66845050432E+02 -0.19249144886E+03 -0.40103880070E+02  0.24239335768E+03  0.12500000000E+03 0.  0.
         21    1    1    2  502  501 -0.66845050432E+02  0.19249144886E+03  0.60270068142E+02  0.21249399936E+03  0.00000000000E+00 0. -1.
<mgrwt>
<rscale>  3 0.45444013E+03</rscale>
<asrwt>0</asrwt>
<pdfrwt beam="1">  1        3 0.33440090E-01 0.45444013E+03</pdfrwt>
<pdfrwt beam="2">  1       -3 0.36542580E-01 0.45444013E+03</pdfrwt>
<totfact> 0.16921154E+02</totfact>
</mgrwt>
</event>
<event>
 4    0  0.1264838E-002  0.4782258E+03  0.7546771E-02  0.1019624E+00
          2   -1    0    0  502    0  0.00000000000E+00  0.00000000000E+00  0.22929462774E+04  0.22929462774E+04  0.00000000000E+00 0.  1.
         -2   -1    0    0    0  501 -0.00000000000E+00 -0.00000000000E+00 -0.24935156912E+02  0.24935156912E+02  0.00000000000E+00 0. -1.
         25    1    1    2    0    0 -0.53548814302E+02  0.21587492500E+03  0.12727700069E+04  0.12980901160E+04  0.12500000000E+03 0.  0.
         21    1    1    2  502  501  0.53548814302E+02 -0.21587492500E+03  0.99524111356E+03  0.10197913183E+04  0.00000000000E+00 0.  1.
<mgrwt>
<rscale>  3 0.47822578E+03</rscale>
<asrwt>0</asrwt>
<pdfrwt beam="1">  1        2 0.35276080E+00 0.47822578E+03</pdfrwt>
<pdfrwt beam="2">  1       -2 0.38361798E-02 0.47822578E+03</pdfrwt>
<totfact> 0.14930837E+03</totfact>
</mgrwt>
</event>
<event>
 4    0  0.1264838E-002  0.8769093E+03  0.7546771E-02  0.9454915E-01
         -2   -1    0    0    0  501 -0.00000000000E+00  0.00000000000E+00  0.82952666396E+02  0.82952666396E+02  0.00000000000E+00 0.  1.
          2   -1    0    0  502    0  0.00000000000E+00 -0.00000000000E+00 -0.23174960153E+04  0.23174960153E+04  0.00000000000E+00 0. -1.
         25    1    1    2    0    0  0.12332601291E+02 -0.20185878393E+03 -0.21773364165E+04  0.21902780491E+04  0.12500000000E+03 0.  0.
         21    1    1    2  502  501 -0.12332601291E+02  0.20185878393E+03 -0.57206932428E+02  0.21017063263E+03  0.00000000000E+00 0.  1.
<mgrwt>
<rscale>  3 0.87690929E+03</rscale>
<asrwt>0</asrwt>
<pdfrwt beam="1">  1        2 0.35653788E+00 0.87690929E+03</pdfrwt>
<pdfrwt beam="2">  1       -2 0.12761948E-01 0.87690929E+03</pdfrwt>
<totfact> 0.20782580E+02</totfact>
</mgrwt>
</event>
<event>
 4    0  0.1264838E-002  0.5591092E+03  0.7546771E-02  0.9994072E-01
          1   -1    0    0  502    0  0.00000000000E+00  0.00000000000E+00  0.94981800619E+03  0.94981800619E+03  0.00000000000E+00 0. -1.
         -1   -1    0    0    0  501 -0.00000000000E+00 -0.00000000000E+00 -0.82279742022E+02  0.82279742022E+02  0.00000000000E+00 0.  1.
         25    1    1    2    0    0 -0.11018955354E+02  0.23781591855E+03  0.67273976978E+03  0.72448714711E+03  0.12500000000E+03 0.  0.
         21    1    1    2  502  501  0.11018955354E+02 -0.23781591855E+03  0.19479849439E+03  0.30761060110E+03  0.00000000000E+00 0.  1.
<mgrwt>
<rscale>  3 0.55910922E+03</rscale>
<asrwt>0</asrwt>
<pdfrwt beam="1">  1        1 0.14612584E+00 0.55910922E+03</pdfrwt>
<pdfrwt beam="2">  1       -1 0.12658423E-01 0.55910922E+03</pdfrwt>
<totfact> 0.72784851E+02</totfact>
</mgrwt>
</event>
<event>
 4    0  0.1264838E-002  0.7700553E+03  0.7546771E-02  0.9604402E-01
         -1   -1    0    0    0  501 -0.00000000000E+00  0.00000000000E+00  0.60836732211E+02  0.60836732211E+02  0.00000000000E+00 0. -1.
          1   -1    0    0  502    0  0.00000000000E+00 -0.00000000000E+00 -0.24367894350E+04  0.24367894350E+04  0.00000000000E+00 0.  1.
         25    1    1    2    0    0 -0.26957045048E+02 -0.29592956839E+03 -0.47798707776E+03  0.57653936399E+03  0.12500000000E+03 0.  0.
         21    1    1    2  502  501  0.26957045048E+02  0.29592956839E+03 -0.18979656251E+04  0.19210868033E+04  0.00000000000E+00 0.  1.
<mgrwt>
<rscale>  3 0.77005534E+03</rscale>
<asrwt>0</asrwt>
<pdfrwt beam="1">  1        1 0.37489066E+00 0.77005534E+03</pdfrwt>
<pdfrwt beam="2">  1       -1 0.93594977E-02 0.77005534E+03</pdfrwt>
<totfact> 0.10904650E+02</totfact>
</mgrwt>
</event>
<event>
 4    0  0.1264838E-002  0.8622190E+03  0.7546771E-02  0.9474082E-01
         -2   -1    0    0    0  501 -0.00000000000E+00  0.00000000000E+00  0.36492711947E+03  0.36492711947E+03  0.00000000000E+00 0. -1.
          2   -1    0    0  502    0  0.00000000000E+00 -0.00000000000E+00 -0.50929461684E+03  0.50929461684E+03  0.00000000000E+00 0.  1.
         25    1    1    2    0    0  0.24603301301E+03 -0.92937778775E+02 -0.40837972726E+03  0.50156622280E+03  0.12500000000E+03 0.  0.
         21    1    1    2  502  501 -0.24603301301E+03  0.92937778775E+02  0.26401222989E+03  0.37265551351E+03  0.00000000000E+00 0. -1.
<mgrwt>
<rscale>  3 0.86221904E+03</rscale>
<asrwt>0</asrwt>
<pdfrwt beam="1">  1        2 0.78353018E-01 0.86221904E+03</pdfrwt>
<pdfrwt beam="2">  1       -2 0.56142634E-01 0.86221904E+03</pdfrwt>
<totfact> 0.18046404E+02</totfact>
</mgrwt>
</event>
<event>
 4    0  0.1264838E-002  0.4671455E+03  0.7546771E-02  0.1022729E+00
          2   -1    0    0  502    0  0.00000000000E+00  0.00000000000E+00  0.12055868554E+04  0.12055868554E+04  0.00000000000E+00 0. -1.
         -2   -1    0    0    0  501 -0.00000000000E+00 -0.00000000000E+00 -0.45252832995E+02  0.45252832995E+02  0.00000000000E+00 0.  1.
         25    1    1    2    0    0  0.16710769090E+03 -0.13321019588E+03  0.72021587831E+03  0.76158114998E+03  0.12500000000E+03 0.  0.
         21    1    1    2  502  501 -0.16710769090E+03  0.13321019588E+03  0.44011814411E+03  0.48925853842E+03  0.00000000000E+00 0.  1.
<mgrwt>
<rscale>  3 0.46714546E+03</rscale>
<asrwt>0</asrwt>
<pdfrwt beam="1">  1        2 0.18547488E+00 0.46714546E+03</pdfrwt>
<pdfrwt beam="2">  1       -2 0.69619752E-02 0.46714546E+03</pdfrwt>
<totfact> 0.23303274E+03</totfact>
</mgrwt>
</event>
<event>
 4    0  0.1264838E-002  0.4711759E+03  0.7546771E-02  0.1021589E+00
          1   -1    0    0  502    0  0.00000000000E+00  0.00000000000E+00  0.33314016099E+02  0.33314016099E+02  0.00000000000E+00 0.  1.
         -1   -1    0    0    0  501 -0.00000000000E+00 -0.00000000000E+00 -0.16660161707E+04  0.16660161707E+04  0.00000000000E+00 0. -1.
         25    1    1    2    0    0 -0.44679896603E+02  0.21436879206E+03 -0.86038821286E+03  0.89657300260E+03  0.12500000000E+03 0.  0.
         21    1    1    2  502  501  0.44679896603E+02 -0.21436879206E+03 -0.77231394174E+03  0.80275718419E+03  0.00000000000E+00 0. -1.
<mgrwt>
<rscale>  3 0.47117593E+03</rscale>
<asrwt>0</asrwt>
<pdfrwt beam="1">  1        1 0.51252336E-02 0.47117593E+03</pdfrwt>
<pdfrwt beam="2">  1       -1 0.25631016E+00 0.47117593E+03</pdfrwt>
<totfact> 0.11430205E+02</totfact>
</mgrwt>
</event>
<event>
 4    0  0.1264838E-002  0.5407101E+03  0.7546771E-02  0.1003667E+00
          2   -1    0    0  502    0  0.00000000000E+00  0.00000000000E+00  0.61586696630E+03  0.61586696630E+03  0.00000000000E+00 0. -1.
         -2   -1    0    0    0  501 -0.00000000000E+00 -0.00000000000E+00 -0.11868124379E+03  0.11868124379E+03  0.00000000000E+00 0.  1.
         25    1    1    2    0    0  0.20865241146E+02  0.23728965820E+03  0.13482979327E+03  0.30090831383E+03  0.12500000000E+03 0.  0.
         21    1    1    2  502  501 -0.20865241146E+02 -0.23728965820E+03  0.36235592925E+03  0.43363989627E+03  0.00000000000E+00 0. -1.
<mgrwt>
<rscale>  3 0.54071012E+03</rscale>
<asrwt>0</asrwt>
<pdfrwt beam="1">  1        2 0.94748762E-01 0.54071012E+03</pdfrwt>
<pdfrwt beam="2">  1       -2 0.18258653E-01 0.54071012E+03</pdfrwt>
<totfact> 0.12046964E+03</totfact>
</mgrwt>
</event>
<event>
 4    0  0.1264838E-002  0.5163666E+03  0.7546771E-02  0.1009593E+00
         -1   -1    0    0    0  501 -0.00000000000E+00  0.00000000000E+00  0.30617797227E+03  0.30617797227E+03  0.00000000000E+00 0. -1.
          1   -1    0    0  502    0  0.00000000000E+00 -0.00000000000E+00 -0.21771199978E+03  0.21771199978E+03  0.00000000000E+00 0.  1.
         25    1    1    2    0    0 -0.24246170704E+03  0.97269296298E+01  0.32739880736E+02  0.27491670071E+03  0.12500000000E+03 0.  0.
         21    1    1    2  502  501  0.24246170704E+03 -0.97269296298E+01  0.55726091754E+02  0.24897327134E+03  0.00000000000E+00 0.  1.
<mgrwt>
<rscale>  3 0.51636661E+03</rscale>
<asrwt>0</asrwt>
<pdfrwt beam="1">  1        1 0.33494154E-01 0.51636661E+03</pdfrwt>
<pdfrwt beam="2">  1       -1 0.47104303E-01 0.51636661E+03</pdfrwt>
<totfact> 0.60408800E+02</totfact>
</mgrwt>
</event>
<event>
 4    0  0.1264838E-002  0.7873414E+03  0.7546771E-02  0.9578523E-01
          2   -1    0    0  502    0  0.00000000000E+00  0.00000000000E+00  0.23858135652E+04  0.23858135652E+04  0.00000000000E+00 0. -1.
         -2   -1    0    0    0  501 -0.00000000000E+00 -0.00000000000E+00 -0.64957549728E+02  0.64957549728E+02  0.00000000000E+00 0.  1.
         25    1    1    2    0    0 -0.20102950482E+03 -0.19410292931E+03  0.20083498733E+04  0.20315469531E+04  0.12500000000E+03 0.  0.
         21    1    1    2  502  501  0.20102950482E+03  0.19410292931E+03  0.31250614213E+03  0.41922416181E+03  0.00000000000E+00 0.  1.
<mgrwt>
<rscale>  3 0.78734136E+03</rscale>
<asrwt>0</asrwt>
<pdfrwt beam="1">  1        2 0.36704817E+00 0.78734136E+03</pdfrwt>
<pdfrwt beam="2">  1       -2 0.99934710E-02 0.78734136E+03</pdfrwt>
<totfact> 0.28694465E+02</totfact>
</mgrwt>
</event>
<event>
 4    0  0.1264838E-002  0.4644950E+03  0.7546771E-02  0.1023486E+00
         -1   -1    0    0    0  501 -0.00000000000E+00  0.00000000000E+00  0.50224259000E+02  0.50224259000E+02  0.00000000000E+00 0. -1.
          1   -1    0    0  502    0  0.00000000000E+00 -0.00000000000E+00 -0.10739610660E+04  0.10739610660E+04  0.00000000000E+00 0.  1.
         25    1    1    2    0    0 -0.17666718402E+03 -0.12306453163E+03 -0.56657670960E+03  0.61886213385E+03  0.12500000000E+03 0.  0.
         21    1    1    2  502  501  0.17666718402E+03  0.12306453163E+03 -0.45716009738E+03  0.50532319113E+03  0.00000000000E+00 0.  1.
<mgrwt>
<rscale>  3 0.46449499E+03</rscale>
<asrwt>0</asrwt>
<pdfrwt beam="1">  1        1 0.16522477E+00 0.46449499E+03</pdfrwt>
<pdfrwt beam="2">  1       -1 0.77268095E-02 0.46449499E+03</pdfrwt>
<totfact> 0.12753519E+03</totfact>
</mgrwt>
</event>
<event>
 4    0  0.1264838E-002  0.5114019E+03  0.7546771E-02  0.1010845E+00
         -2   -1    0    0    0  501 -0.00000000000E+00  0.00000000000E+00  0.10750523893E+03  0.10750523893E+03  0.00000000000E+00 0. -1.
          2   -1    0    0  502    0  0.00000000000E+00 -0.00000000000E+00 -0.60818403304E+03  0.60818403304E+03  0.00000000000E+00 0.  1.
         25    1    1    2    0    0  0.49602154143E+02  0.23504137555E+03 -0.25136955654E+03  0.36948136065E+03  0.12500000000E+03 0.  0.
         21    1    1    2  502  501 -0.49602154143E+02 -0.23504137555E+03 -0.24930923758E+03  0.34620791131E+03  0.00000000000E+00 0. -1.
<mgrwt>
<rscale>  3 0.51140188E+03</rscale>
<asrwt>0</asrwt>
<pdfrwt beam="1">  1        2 0.93566774E-01 0.51140188E+03</pdfrwt>
<pdfrwt beam="2">  1       -2 0.16539268E-01 0.51140188E+03</pdfrwt>
<totfact> 0.14481818E+03</totfact>
</mgrwt>
</event>
<event>
 4    0  0.1264838E-002  0.4992572E+03  0.7546771E-02  0.1013973E+00
          2   -1    0    0  502    0  0.00000000000E+00  0.00000000000E+00  0.44314660181E+03  0.44314660181E+03  0.00000000000E+00 0. -1.
         -2   -1    0    0    0  501 -0.00000000000E+00 -0.00000000000E+00 -0.14061813403E+03  0.14061813403E+03  0.00000000000E+00 0.  1.
         25    1    1    2    0    0 -0.23364453761E+03 -0.65990596290E+01  0.17320324744E+03  0.31663493564E+03  0.12500000000E+03 0.  0.
         21    1    1    2  502  501  0.23364453761E+03  0.65990596290E+01  0.12932522033E+03  0.26712980020E+03  0.00000000000E+00 0. -1.
<mgrwt>
<rscale>  3 0.49925724E+03</rscale>
<asrwt>0</asrwt>
<pdfrwt beam="1">  1        2 0.68176400E-01 0.49925724E+03</pdfrwt>
<pdfrwt beam="2">  1       -2 0.21633559E-01 0.49925724E+03</pdfrwt>
<totfact> 0.13143147E+03</totfact>
</mgrwt>
</event>
<event>
 4    0  0.1264838E-002  0.6044590E+03  0.7546771E-02  0.9896198E-01
          1   -1    0    0  502    0  0.00000000000E+00  0.00000000000E+00  0.18264163677E+03  0.18264163677E+03  0.00000000000E+00 0. -1.
         -1   -1    0    0    0  501 -0.00000000000E+00 -0.00000000000E+00 -0.50011969198E+03  0.50011969198E+03  0.00000000000E+00 0.  1.
         25    1    1    2    0    0  0.19853681566E+03 -0.51619526453E+02 -0.39595326545E+03  0.46312571846E+03  0.12500000000E+03 0.  0.
         21    1    1    2  502  501 -0.19853681566E+03  0.51619526453E+02  0.78475210241E+02  0.21963561028E+03  0.00000000000E+00 0. -1.
<mgrwt>
<rscale>  3 0.60445903E+03</rscale>
<asrwt>0</asrwt>
<pdfrwt beam="1">  1        1 0.28098714E-01 0.60445903E+03</pdfrwt>
<pdfrwt beam="2">  1       -1 0.76941491E-01 0.60445903E+03</pdfrwt>
<totfact> 0.28819462E+02</totfact>
</mgrwt>
</event>
<event>
 4    0  0.1264838E-002  0.4760231E+03  0.7546771E-02  0.1020234E+00
         -2   -1    0    0    0  501 -0.00000000000E+00  0.00000000000E+00  0.32331897449E+03  0.32331897449E+03  0.00000000000E+00 0. -1.
          2   -1    0    0  502    0  0.00000000000E+00 -0.00000000000E+00 -0.17521238871E+03  0.17521238871E+03  0.00000000000E+00 0.  1.
         25    1    1    2    0    0 -0.12824040511E+02 -0.21572636620E+03  0.27810402158E+02  0.25119860581E+03  0.12500000000E+03 0.  0.
         21    1    1    2  502  501  0.12824040511E+02  0.21572636620E+03  0.12029618362E+03  0.24733275740E+03  0.00000000000E+00 0. -1.
<mgrwt>
<rscale>  3 0.47602307E+03</rscale>
<asrwt>0</asrwt>
<pdfrwt beam="1">  1        2 0.26955752E-01 0.47602307E+03</pdfrwt>
<pdfrwt beam="2">  1       -2 0.49741380E-01 0.47602307E+03</pdfrwt>
<totfact> 0.77204287E+02</totfact>
</mgrwt>
</event>
<event>
 4    0  0.1264838E-002  0.5029687E+03  0.7546771E-02  0.1013007E+00
          1   -1    0    0  502    0  0.00000000000E+00  0.00000000000E+00  0.35470005985E+03  0.35470005985E+03  0.00000000000E+00 0. -1.
         -1   -1    0    0    0  501 -0.00000000000E+00 -0.00000000000E+00 -0.17830385021E+03  0.17830385021E+03  0.00000000000E+00 0.  1.
         25    1    1    2    0    0  0.42117960052E+02  0.23214452489E+03  0.90620226554E+02  0.28196104067E+03  0.12500000000E+03 0.  0.
         21    1    1    2  502  501 -0.42117960052E+02 -0.23214452489E+03  0.85775983081E+02  0.25104286939E+03  0.00000000000E+00 0. -1.
<mgrwt>
<rscale>  3 0.50296873E+03</rscale>
<asrwt>0</asrwt>
<pdfrwt beam="1">  1        1 0.54569240E-01 0.50296873E+03</pdfrwt>
<pdfrwt beam="2">  1       -1 0.27431362E-01 0.50296873E+03</pdfrwt>
<totfact> 0.84374122E+02</totfact>
</mgrwt>
</event>
<event>
 4    0  0.1264838E-002  0.4859634E+03  0.7546771E-02  0.1017509E+00
         -2   -1    0    0    0  501 -0.00000000000E+00  0.00000000000E+00  0.51203355206E+02  0.51203355206E+02  0.00000000000E+00 0. -1.
          2   -1    0    0  502    0  0.00000000000E+00 -0.00000000000E+00 -0.11530516810E+04  0.11530516810E+04  0.00000000000E+00 0.  1.
         25    1    1    2    0    0  0.43987882726E+02  0.21010374339E+03 -0.76960270824E+03  0.80869762294E+03  0.12500000000E+03 0.  0.
         21    1    1    2  502  501 -0.43987882726E+02 -0.21010374339E+03 -0.33224561757E+03  0.39555741328E+03  0.00000000000E+00 0. -1.
<mgrwt>
<rscale>  3 0.48596343E+03</rscale>
<asrwt>0</asrwt>
<pdfrwt beam="1">  1        2 0.17739256E+00 0.48596343E+03</pdfrwt>
<pdfrwt beam="2">  1       -2 0.78774396E-02 0.48596343E+03</pdfrwt>
<totfact> 0.20578415E+03</totfact>
</mgrwt>
</event>
<event>
 4    0  0.1264838E-002  0.5202730E+03  0.7546771E-02  0.1008619E+00
         -2   -1    0    0    0  501 -0.00000000000E+00  0.00000000000E+00  0.65792031613E+03  0.65792031613E+03  0.00000000000E+00 0. -1.
          2   -1    0    0  502    0  0.00000000000E+00 -0.00000000000E+00 -0.10285592167E+03  0.10285592167E+03  0.00000000000E+00 0.  1.
         25    1    1    2    0    0  0.21296996046E+03 -0.99785313345E+02  0.39455112596E+03  0.47603456158E+03  0.12500000000E+03 0.  0.
         21    1    1    2  502  501 -0.21296996046E+03  0.99785313345E+02  0.16051326849E+03  0.28474167622E+03  0.00000000000E+00 0.  1.
<mgrwt>
<rscale>  3 0.52027301E+03</rscale>
<asrwt>0</asrwt>
<pdfrwt beam="1">  1        2 0.15823988E-01 0.52027301E+03</pdfrwt>
<pdfrwt beam="2">  1       -2 0.10121851E+00 0.52027301E+03</pdfrwt>
<totfact> 0.30523005E+02</totfact>
</mgrwt>
</event>
<event>
 4    0  0.1264838E-002  0.4697552E+03  0.7546771E-02  0.1021989E+00
         -2   -1    0    0    0  501 -0.00000000000E+00  0.00000000000E+00  0.19294284990E+02  0.19294284990E+02  0.00000000000E+00 0.  1.
          2   -1    0    0  502    0  0.00000000000E+00 -0.00000000000E+00 -0.28592660560E+04  0.28592660560E+04  0.00000000000E+00 0. -1.
         25    1    1    2    0    0 -0.18765344258E+03 -0.79519460044E+02 -0.19989077432E+04  0.20131553156E+04  0.12500000000E+03 0.  0.
         21    1    1    2  502  501  0.18765344258E+03  0.79519460044E+02 -0.84106402784E+03  0.86540502539E+03  0.00000000000E+00 0.  1.
<mgrwt>
<rscale>  3 0.46975523E+03</rscale>
<asrwt>0</asrwt>
<pdfrwt beam="1">  1        2 0.43988700E+00 0.46975523E+03</pdfrwt>
<pdfrwt beam="2">  1       -2 0.29683521E-02 0.46975523E+03</pdfrwt>
<totfact> 0.10552871E+03</totfact>
</mgrwt>
</event>
<event>
 4    0  0.1264838E-002  0.8556035E+03  0.7546771E-02  0.9482847E-01
         -1   -1    0    0    0  501 -0.00000000000E+00  0.00000000000E+00  0.42890125196E+03  0.42890125196E+03  0.00000000000E+00 0.  1.
          1   -1    0    0  502    0  0.00000000000E+00 -0.00000000000E+00 -0.42670511134E+03  0.42670511134E+03  0.00000000000E+00 0. -1.
         25    1    1    2    0    0  0.27403703310E+03 -0.15982183040E+03  0.27433645967E+03  0.43763547170E+03  0.12500000000E+03 0.  0.
         21    1    1    2  502  501 -0.27403703310E+03  0.15982183040E+03 -0.27214031905E+03  0.41797089161E+03  0.00000000000E+00 0. -1.
<mgrwt>
<rscale>  3 0.85560354E+03</rscale>
<asrwt>0</asrwt>
<pdfrwt beam="1">  1        1 0.65646940E-01 0.85560354E+03</pdfrwt>
<pdfrwt beam="2">  1       -1 0.65984808E-01 0.85560354E+03</pdfrwt>
<totfact> 0.12938281E+02</totfact>
</mgrwt>
</event>
<event>
 4    0  0.1264838E-002  0.4836214E+03  0.7546771E-02  0.1018145E+00
          3   -1    0    0  502    0  0.00000000000E+00  0.00000000000E+00  0.10379949331E+03  0.10379949331E+03  0.00000000000E+00 0. -1.
         -3   -1    0    0    0  501 -0.00000000000E+00 -0.00000000000E+00 -0.56332080580E+03  0.56332080580E+03  0.00000000000E+00 0.  1.
         25    1    1    2    0    0  0.10749998121E+03  0.19733423755E+03 -0.21671157863E+03  0.33628255320E+03  0.12500000000E+03 0.  0.
         21    1    1    2  502  501 -0.10749998121E+03 -0.19733423755E+03 -0.24280973385E+03  0.33083774592E+03  0.00000000000E+00 0. -1.
<mgrwt>
<rscale>  3 0.48362140E+03</rscale>
<asrwt>0</asrwt>
<pdfrwt beam="1">  1        3 0.15969153E-01 0.48362140E+03</pdfrwt>
<pdfrwt beam="2">  1       -3 0.86664739E-01 0.48362140E+03</pdfrwt>
<totfact> 0.10846099E+02</totfact>
</mgrwt>
</event>
<event>
 4    0  0.1264838E-002  0.5558832E+03  0.7546771E-02  0.1000141E+00
         -2   -1    0    0    0  501 -0.00000000000E+00  0.00000000000E+00  0.41086186991E+02  0.41086186991E+02  0.00000000000E+00 0. -1.
          2   -1    0    0  502    0  0.00000000000E+00 -0.00000000000E+00 -0.18802314616E+04  0.18802314616E+04  0.00000000000E+00 0.  1.
         25    1    1    2    0    0 -0.13520349022E+03 -0.17972865634E+03 -0.48896958323E+03  0.55253834889E+03  0.12500000000E+03 0.  0.
         21    1    1    2  502  501  0.13520349022E+03  0.17972865634E+03 -0.13501756913E+04  0.13687792997E+04  0.00000000000E+00 0.  1.
<mgrwt>
<rscale>  3 0.55588323E+03</rscale>
<asrwt>0</asrwt>
<pdfrwt beam="1">  1        2 0.28926641E+00 0.55588323E+03</pdfrwt>
<pdfrwt beam="2">  1       -2 0.63209512E-02 0.55588323E+03</pdfrwt>
<totfact> 0.11485862E+03</totfact>
</mgrwt>
</event>
<event>
 4    0  0.1264838E-002  0.6047128E+03  0.7546771E-02  0.9895676E-01
         -1   -1    0    0    0  501 -0.00000000000E+00  0.00000000000E+00  0.10438043373E+03  0.10438043373E+03  0.00000000000E+00 0.  1.
          1   -1    0    0  502    0  0.00000000000E+00 -0.00000000000E+00 -0.87582891532E+03  0.87582891532E+03  0.00000000000E+00 0. -1.
         25    1    1    2    0    0 -0.21235776757E+03 -0.17730712561E+03 -0.26428044521E+03  0.40249570427E+03  0.12500000000E+03 0.  0.
         21    1    1    2  502  501  0.21235776757E+03  0.17730712561E+03 -0.50716803638E+03  0.57771364478E+03  0.00000000000E+00 0.  1.
<mgrwt>
<rscale>  3 0.60471283E+03</rscale>
<asrwt>0</asrwt>
<pdfrwt beam="1">  1        1 0.13474291E+00 0.60471283E+03</pdfrwt>
<pdfrwt beam="2">  1       -1 0.16058528E-01 0.60471283E+03</pdfrwt>
<totfact> 0.56752895E+02</totfact>
</mgrwt>
</event>
<event>
 4    0  0.1264838E-002  0.5934341E+03  0.7546771E-02  0.9919123E-01
         -2   -1    0    0    0  501 -0.00000000000E+00  0.00000000000E+00  0.37115399566E+02  0.37115399566E+02  0.00000000000E+00 0. -1.
          2   -1    0    0  502    0  0.00000000000E+00 -0.00000000000E+00 -0.23720881101E+04  0.23720881101E+04  0.00000000000E+00 0.  1.
         25    1    1    2    0    0 -0.21435763491E+03 -0.15692609737E+03 -0.16217318558E+04  0.16480941137E+04  0.12500000000E+03 0.  0.
         21    1    1    2  502  501  0.21435763491E+03  0.15692609737E+03 -0.71324085472E+03  0.76110939589E+03  0.00000000000E+00 0. -1.
<mgrwt>
<rscale>  3 0.59343407E+03</rscale>
<asrwt>0</asrwt>
<pdfrwt beam="1">  1        2 0.36493670E+00 0.59343407E+03</pdfrwt>
<pdfrwt beam="2">  1       -2 0.57100605E-02 0.59343407E+03</pdfrwt>
<totfact> 0.72443306E+02</totfact>
</mgrwt>
</event>
<event>
 4    0  0.1264838E-002  0.7574163E+03  0.7546771E-02  0.9623787E-01
         -2   -1    0    0    0  501 -0.00000000000E+00  0.00000000000E+00  0.31560391564E+03  0.31560391564E+03  0.00000000000E+00 0.  1.
          2   -1    0    0  502    0  0.00000000000E+00 -0.00000000000E+00 -0.45442996998E+03  0.45442996998E+03  0.00000000000E+00 0. -1.
         25    1    1    2    0    0 -0.72142806433E+02 -0.23360260961E+03 -0.35146455622E+03  0.44601244155E+03  0.12500000000E+03 0.  0.
         21    1    1    2  502  501  0.72142806433E+02  0.23360260961E+03  0.21263850187E+03  0.32402144407E+03  0.00000000000E+00 0.  1.
<mgrwt>
<rscale>  3 0.75741634E+03</rscale>
<asrwt>0</asrwt>
<pdfrwt beam="1">  1        2 0.69912303E-01 0.75741634E+03</pdfrwt>
<pdfrwt beam="2">  1       -2 0.48554449E-01 0.75741634E+03</pdfrwt>
<totfact> 0.27851499E+02</totfact>
</mgrwt>
</event>
<event>
 4    0  0.1264838E-002  0.5361852E+03  0.7546771E-02  0.1004743E+00
          1   -1    0    0  502    0  0.00000000000E+00  0.00000000000E+00  0.36594657538E+03  0.36594657538E+03  0.00000000000E+00 0.  1.
         -1   -1    0    0    0  501 -0.00000000000E+00 -0.00000000000E+00 -0.19640472184E+03  0.19640472184E+03  0.00000000000E+00 0. -1.
         25    1    1    2    0    0 -0.68310811715E+02  0.21527876264E+03 -0.31403093565E+02  0.26004320204E+03  0.12500000000E+03 0.  0.
         21    1    1    2  502  501  0.68310811715E+02 -0.21527876264E+03  0.20094494711E+03  0.30230809518E+03  0.00000000000E+00 0.  1.
<mgrwt>
<rscale>  3 0.53618517E+03</rscale>
<asrwt>0</asrwt>
<pdfrwt beam="1">  1        1 0.56299473E-01 0.53618517E+03</pdfrwt>
<pdfrwt beam="2">  1       -1 0.30216111E-01 0.53618517E+03</pdfrwt>
<totfact> 0.68560060E+02</totfact>
</mgrwt>
</event>
<event>
 4    0  0.1264838E-002  0.5958947E+03  0.7546771E-02  0.9913960E-01
          3   -1    0    0  502    0  0.00000000000E+00  0.00000000000E+00  0.59262210546E+03  0.59262210546E+03  0.00000000000E+00 0. -1.
         -3   -1    0    0    0  501 -0.00000000000E+00 -0.00000000000E+00 -0.14979634285E+03  0.14979634285E+03  0.00000000000E+00 0.  1.
         25    1    1    2    0    0  0.74594136301E+02 -0.26503602176E+03  0.32205973782E+03  0.44176447653E+03  0.12500000000E+03 0.  0.
         21    1    1    2  502  501 -0.74594136301E+02  0.26503602176E+03  0.12076602478E+03  0.30065397177E+03  0.00000000000E+00 0.  1.
<mgrwt>
<rscale>  3 0.59589470E+03</rscale>
<asrwt>0</asrwt>
<pdfrwt beam="1">  1        3 0.91172630E-01 0.59589470E+03</pdfrwt>
<pdfrwt beam="2">  1       -3 0.23045591E-01 0.59589470E+03</pdfrwt>
<totfact> 0.50519625E+01</totfact>
</mgrwt>
</event>
<event>
 4    0  0.1496740E-002  0.5332960E+03  0.7546771E-02  0.1005436E+00
         -2   -1    0    0    0  501 -0.00000000000E+00  0.00000000000E+00  0.38420538481E+02  0.38420538481E+02  0.00000000000E+00 0. -1.
          2   -1    0    0  502    0  0.00000000000E+00 -0.00000000000E+00 -0.18506024508E+04  0.18506024508E+04  0.00000000000E+00 0.  1.
         25    1    1    2    0    0  0.19289244026E+03  0.61911940165E+02 -0.42498701373E+03  0.48711348132E+03  0.12500000000E+03 0.  0.
         21    1    1    2  502  501 -0.19289244026E+03 -0.61911940165E+02 -0.13871948986E+04  0.14019095080E+04  0.00000000000E+00 0.  1.
<mgrwt>
<rscale>  3 0.53329595E+03</rscale>
<asrwt>0</asrwt>
<pdfrwt beam="1">  1        2 0.28470808E+00 0.53329595E+03</pdfrwt>
<pdfrwt beam="2">  1       -2 0.59108519E-02 0.53329595E+03</pdfrwt>
<totfact> 0.13251553E+03</totfact>
</mgrwt>
</event>
<event>
 4    0  0.1264838E-002  0.5531505E+03  0.7546771E-02  0.1000767E+00
         -2   -1    0    0    0  501 -0.00000000000E+00  0.00000000000E+00  0.30772698837E+02  0.30772698837E+02  0.00000000000E+00 0. -1.
          2   -1    0    0  502    0  0.00000000000E+00 -0.00000000000E+00 -0.24857705553E+04  0.24857705553E+04  0.00000000000E+00 0.  1.
         25    1    1    2    0    0 -0.10803702255E+03  0.23915212816E+03 -0.12724996661E+04  0.13052762692E+04  0.12500000000E+03 0.  0.
         21    1    1    2  502  501  0.10803702255E+03 -0.23915212816E+03 -0.11824981903E+04  0.12112669849E+04  0.00000000000E+00 0. -1.
<mgrwt>
<rscale>  3 0.55315050E+03</rscale>
<asrwt>0</asrwt>
<pdfrwt beam="1">  1        2 0.38242627E+00 0.55315050E+03</pdfrwt>
<pdfrwt beam="2">  1       -2 0.47342610E-02 0.55315050E+03</pdfrwt>
<totfact> 0.84044027E+02</totfact>
</mgrwt>
</event>
<event>
 4    0  0.1264838E-002  0.8719103E+03  0.7546771E-02  0.9461392E-01
          1   -1    0    0  502    0  0.00000000000E+00  0.00000000000E+00  0.10791673760E+04  0.10791673760E+04  0.00000000000E+00 0. -1.
         -1   -1    0    0    0  501 -0.00000000000E+00 -0.00000000000E+00 -0.17611439764E+03  0.17611439764E+03  0.00000000000E+00 0.  1.
         25    1    1    2    0    0 -0.86853425050E+02 -0.22017195941E+03  0.97246560384E+03  0.10086295454E+04  0.12500000000E+03 0.  0.
         21    1    1    2  502  501  0.86853425050E+02  0.22017195941E+03 -0.69412625442E+02  0.24665222830E+03  0.00000000000E+00 0.  1.
<mgrwt>
<rscale>  3 0.87191034E+03</rscale>
<asrwt>0</asrwt>
<pdfrwt beam="1">  1        1 0.16602575E+00 0.87191034E+03</pdfrwt>
<pdfrwt beam="2">  1       -1 0.27094524E-01 0.87191034E+03</pdfrwt>
<totfact> 0.16147178E+02</totfact>
</mgrwt>
</event>
<event>
 4    0  0.1264838E-002  0.6697124E+03  0.7546771E-02  0.9770478E-01
         -1   -1    0    0    0  501 -0.00000000000E+00  0.00000000000E+00  0.21157699069E+03  0.21157699069E+03  0.00000000000E+00 0.  1.
          1   -1    0    0  502    0  0.00000000000E+00 -0.00000000000E+00 -0.52996625074E+03  0.52996625074E+03  0.00000000000E+00 0. -1.
         25    1    1    2    0    0 -0.25478237020E+03 -0.87735008325E+02  0.32838057523E+02  0.29885586137E+03  0.12500000000E+03 0.  0.
         21    1    1    2  502  501  0.25478237020E+03  0.87735008325E+02 -0.35122731758E+03  0.44268738006E+03  0.00000000000E+00 0. -1.
<mgrwt>
<rscale>  3 0.66971237E+03</rscale>
<asrwt>0</asrwt>
<pdfrwt beam="1">  1        1 0.81533268E-01 0.66971237E+03</pdfrwt>
<pdfrwt beam="2">  1       -1 0.32550307E-01 0.66971237E+03</pdfrwt>
<totfact> 0.36528864E+02</totfact>
</mgrwt>
</event>
<event>
 4    0  0.1264838E-002  0.5008068E+03  0.7546771E-02  0.1013569E+00
         -2   -1    0    0    0  501 -0.00000000000E+00  0.00000000000E+00  0.11754112946E+03  0.11754112946E+03  0.00000000000E+00 0. -1.
          2   -1    0    0  502    0  0.00000000000E+00 -0.00000000000E+00 -0.53344616932E+03  0.53344616932E+03  0.00000000000E+00 0.  1.
         25    1    1    2    0    0  0.14571199418E+03  0.15933147669E+03 -0.10096479401E+03  0.26914195946E+03  0.12500000000E+03 0.  0.
         21    1    1    2  502  501 -0.14571199418E+03 -0.15933147669E+03 -0.31494024584E+03  0.38184533932E+03  0.00000000000E+00 0.  1.
<mgrwt>
<rscale>  3 0.50080681E+03</rscale>
<asrwt>0</asrwt>
<pdfrwt beam="1">  1        2 0.82068640E-01 0.50080681E+03</pdfrwt>
<pdfrwt beam="2">  1       -2 0.18083251E-01 0.50080681E+03</pdfrwt>
<totfact> 0.14513007E+03</totfact>
</mgrwt>
</event>
<event>
 4    0  0.1264838E-002  0.4831694E+03  0.7546771E-02  0.1018268E+00
          1   -1    0    0  502    0  0.00000000000E+00  0.00000000000E+00  0.35881412157E+03  0.35881412157E+03  0.00000000000E+00 0.  1.
         -1   -1    0    0    0  501 -0.00000000000E+00 -0.00000000000E+00 -0.16265569984E+03  0.16265569984E+03  0.00000000000E+00 0. -1.
         25    1    1    2    0    0  0.71465454939E+01 -0.22252953512E+03  0.14267377983E+03  0.29249149485E+03  0.12500000000E+03 0.  0.
         21    1    1    2  502  501 -0.71465454939E+01  0.22252953512E+03  0.53484641900E+02  0.22897832655E+03  0.00000000000E+00 0.  1.
<mgrwt>
<rscale>  3 0.48316938E+03</rscale>
<asrwt>0</asrwt>
<pdfrwt beam="1">  1        1 0.55202172E-01 0.48316938E+03</pdfrwt>
<pdfrwt beam="2">  1       -1 0.25023954E-01 0.48316938E+03</pdfrwt>
<totfact> 0.97180839E+02</totfact>
</mgrwt>
</event>
<event>
 4    0  0.1264838E-002  0.7195411E+03  0.7546771E-02  0.9684386E-01
         -2   -1    0    0    0  501 -0.00000000000E+00  0.00000000000E+00  0.69924062547E+02  0.69924062547E+02  0.00000000000E+00 0.  1.
          2   -1    0    0  502    0  0.00000000000E+00 -0.00000000000E+00 -0.18510773168E+04  0.18510773168E+04  0.00000000000E+00 0. -1.
         25    1    1    2    0    0 -0.44220010625E+02 -0.33980130913E+03 -0.74198124711E+03  0.82678988267E+03  0.12500000000E+03 0.  0.
         21    1    1    2  502  501  0.44220010625E+02  0.33980130913E+03 -0.10391720071E+04  0.10942114966E+04  0.00000000000E+00 0. -1.
<mgrwt>
<rscale>  3 0.71954109E+03</rscale>
<asrwt>0</asrwt>
<pdfrwt beam="1">  1        2 0.28478112E+00 0.71954109E+03</pdfrwt>
<pdfrwt beam="2">  1       -2 0.10757548E-01 0.71954109E+03</pdfrwt>
<totfact> 0.50327146E+02</totfact>
</mgrwt>
</event>
<event>
 4    0  0.1264838E-002  0.6167949E+03  0.7546771E-02  0.9871162E-01
         -2   -1    0    0    0  501 -0.00000000000E+00  0.00000000000E+00  0.31544386620E+02  0.31544386620E+02  0.00000000000E+00 0.  1.
          2   -1    0    0  502    0  0.00000000000E+00 -0.00000000000E+00 -0.30150841465E+04  0.30150841465E+04  0.00000000000E+00 0. -1.
         25    1    1    2    0    0 -0.18922272686E+03 -0.16346383862E+03 -0.23329600713E+04  0.23496496252E+04  0.12500000000E+03 0.  0.
         21    1    1    2  502  501  0.18922272686E+03  0.16346383862E+03 -0.65057968855E+03  0.69697890789E+03  0.00000000000E+00 0.  1.
<mgrwt>
<rscale>  3 0.61679488E+03</rscale>
<asrwt>0</asrwt>
<pdfrwt beam="1">  1        2 0.46385917E+00 0.61679488E+03</pdfrwt>
<pdfrwt beam="2">  1       -2 0.48529818E-02 0.61679488E+03</pdfrwt>
<totfact> 0.39475144E+02</totfact>
</mgrwt>
</event>
<event>
 4    0  0.1264838E-002  0.4658516E+03  0.7546771E-02  0.1023098E+00
          2   -1    0    0  502    0  0.00000000000E+00  0.00000000000E+00  0.23404953613E+04  0.23404953613E+04  0.00000000000E+00 0. -1.
         -2   -1    0    0    0  501 -0.00000000000E+00 -0.00000000000E+00 -0.23180742501E+02  0.23180742501E+02  0.00000000000E+00 0.  1.
         25    1    1    2    0    0 -0.13809349111E+03 -0.16013465130E+03  0.10145877338E+04  0.10438995107E+04  0.12500000000E+03 0.  0.
         21    1    1    2  502  501  0.13809349111E+03  0.16013465130E+03  0.13027268850E+04  0.13197765931E+04  0.00000000000E+00 0. -1.
<mgrwt>
<rscale>  3 0.46585157E+03</rscale>
<asrwt>0</asrwt>
<pdfrwt beam="1">  1        2 0.36007602E+00 0.46585157E+03</pdfrwt>
<pdfrwt beam="2">  1       -2 0.35662699E-02 0.46585157E+03</pdfrwt>
<totfact> 0.15728150E+03</totfact>
</mgrwt>
</event>
<event>
 4    0  0.1583946E-002  0.7253898E+03  0.7546771E-02  0.9674771E-01
         -1   -1    0    0    0  501 -0.00000000000E+00  0.00000000000E+00  0.12864719067E+03  0.12864719067E+03  0.00000000000E+00 0. -1.
          1   -1    0    0  502    0  0.00000000000E+00 -0.00000000000E+00 -0.10225454335E+04  0.10225454335E+04  0.00000000000E+00 0.  1.
         25    1    1    2    0    0  0.19650569199E+03  0.13419129350E+03 -0.48734348102E+02  0.27316995977E+03  0.12500000000E+03 0.  0.
         21    1    1    2  502  501 -0.19650569199E+03 -0.13419129350E+03 -0.84516389473E+03  0.87802266439E+03  0.00000000000E+00 0.  1.
<mgrwt>
<rscale>  3 0.72538982E+03</rscale>
<asrwt>0</asrwt>
<pdfrwt beam="1">  1        1 0.15731469E+00 0.72538982E+03</pdfrwt>
<pdfrwt beam="2">  1       -1 0.19791875E-01 0.72538982E+03</pdfrwt>
<totfact> 0.30612040E+02</totfact>
</mgrwt>
</event>
<event>
 4    0  0.1264838E-002  0.7829088E+03  0.7546771E-02  0.9585091E-01
         -1   -1    0    0    0  501 -0.00000000000E+00  0.00000000000E+00  0.14713843882E+03  0.14713843882E+03  0.00000000000E+00 0. -1.
          1   -1    0    0  502    0  0.00000000000E+00 -0.00000000000E+00 -0.10414446907E+04  0.10414446907E+04  0.00000000000E+00 0.  1.
         25    1    1    2    0    0 -0.21841386219E+03  0.65829351680E+02 -0.92273617353E+03  0.95869972602E+03  0.12500000000E+03 0.  0.
         21    1    1    2  502  501  0.21841386219E+03 -0.65829351680E+02  0.28429921677E+02  0.22988340346E+03  0.00000000000E+00 0. -1.
<mgrwt>
<rscale>  3 0.78290880E+03</rscale>
<asrwt>0</asrwt>
<pdfrwt beam="1">  1        1 0.16022226E+00 0.78290880E+03</pdfrwt>
<pdfrwt beam="2">  1       -1 0.22636683E-01 0.78290880E+03</pdfrwt>
<totfact> 0.23564652E+02</totfact>
</mgrwt>
</event>
<event>
 4    0  0.1264838E-002  0.9723046E+03  0.7546771E-02  0.9339453E-01
         -2   -1    0    0    0  501 -0.00000000000E+00  0.00000000000E+00  0.70442250435E+03  0.70442250435E+03  0.00000000000E+00 0. -1.
          2   -1    0    0  502    0  0.00000000000E+00 -0.00000000000E+00 -0.33551461667E+03  0.33551461667E+03  0.00000000000E+00 0.  1.
         25    1    1    2    0    0 -0.23843187685E+03 -0.41438255580E+03  0.19368807720E+03  0.53075675568E+03  0.12500000000E+03 0.  0.
         21    1    1    2  502  501  0.23843187685E+03  0.41438255580E+03  0.17521981048E+03  0.50918036533E+03  0.00000000000E+00 0. -1.
<mgrwt>
<rscale>  3 0.97230457E+03</rscale>
<asrwt>0</asrwt>
<pdfrwt beam="1">  1        2 0.51617633E-01 0.97230457E+03</pdfrwt>
<pdfrwt beam="2">  1       -2 0.10837269E+00 0.97230457E+03</pdfrwt>
<totfact> 0.65982177E+01</totfact>
</mgrwt>
</event>
<event>
 4    0  0.1264838E-002  0.4545733E+03  0.7546771E-02  0.1026367E+00
         -1   -1    0    0    0  501 -0.00000000000E+00  0.00000000000E+00  0.96054821324E+03  0.96054821324E+03  0.00000000000E+00 0. -1.
          1   -1    0    0  502    0  0.00000000000E+00 -0.00000000000E+00 -0.53780985138E+02  0.53780985138E+02  0.00000000000E+00 0.  1.
         25    1    1    2    0    0  0.17993364049E+03 -0.10451012367E+03  0.42285550822E+03  0.48757590359E+03  0.12500000000E+03 0.  0.
         21    1    1    2  502  501 -0.17993364049E+03  0.10451012367E+03  0.48391171988E+03  0.52675329478E+03  0.00000000000E+00 0. -1.
<mgrwt>
<rscale>  3 0.45457333E+03</rscale>
<asrwt>0</asrwt>
<pdfrwt beam="1">  1        1 0.82739984E-02 0.45457333E+03</pdfrwt>
<pdfrwt beam="2">  1       -1 0.14777664E+00 0.45457333E+03</pdfrwt>
<totfact> 0.32478557E+02</totfact>
</mgrwt>
</event>
<event>
 4    0  0.1264838E-002  0.8438070E+03  0.7546771E-02  0.9498687E-01
          2   -1    0    0  502    0  0.00000000000E+00  0.00000000000E+00  0.81681882406E+03  0.81681882406E+03  0.00000000000E+00 0.  1.
         -2   -1    0    0    0  501 -0.00000000000E+00 -0.00000000000E+00 -0.21792173988E+03  0.21792173988E+03  0.00000000000E+00 0. -1.
         25    1    1    2    0    0  0.13782602232E+03  0.20560766830E+03  0.71088664292E+03  0.76305658032E+03  0.12500000000E+03 0.  0.
         21    1    1    2  502  501 -0.13782602232E+03 -0.20560766830E+03 -0.11198955874E+03  0.27168398362E+03  0.00000000000E+00 0. -1.
<mgrwt>
<rscale>  3 0.84380704E+03</rscale>
<asrwt>0</asrwt>
<pdfrwt beam="1">  1        2 0.12566443E+00 0.84380704E+03</pdfrwt>
<pdfrwt beam="2">  1       -2 0.33526422E-01 0.84380704E+03</pdfrwt>
<totfact> 0.27958119E+02</totfact>
</mgrwt>
</event>
<event>
 4    0  0.1264838E-002  0.6773397E+03  0.7546771E-02  0.9756789E-01
          2   -1    0    0  502    0  0.00000000000E+00  0.00000000000E+00  0.10322091215E+03  0.10322091215E+03  0.00000000000E+00 0. -1.
         -2   -1    0    0    0  501 -0.00000000000E+00 -0.00000000000E+00 -0.11111825663E+04  0.11111825663E+04  0.00000000000E+00 0.  1.
         25    1    1    2    0    0 -0.10583043561E+03  0.19788826874E+03 -0.94381747331E+02  0.27366542024E+03  0.12500000000E+03 0.  0.
         21    1    1    2  502  501  0.10583043561E+03 -0.19788826874E+03 -0.91357990685E+03  0.94073805823E+03  0.00000000000E+00 0.  1.
<mgrwt>
<rscale>  3 0.67733973E+03</rscale>
<asrwt>0</asrwt>
<pdfrwt beam="1">  1        2 0.15880140E-01 0.67733973E+03</pdfrwt>
<pdfrwt beam="2">  1       -2 0.17095117E+00 0.67733973E+03</pdfrwt>
<totfact> 0.79832316E+01</totfact>
</mgrwt>
</event>
<event>
 4    0  0.1361976E-002  0.6835648E+03  0.7546771E-02  0.9745759E-01
          2   -1    0    0  502    0  0.00000000000E+00  0.00000000000E+00  0.51923596425E+03  0.51923596425E+03  0.00000000000E+00 0.  1.
         -2   -1    0    0    0  501 -0.00000000000E+00 -0.00000000000E+00 -0.22497516936E+03  0.22497516936E+03  0.00000000000E+00 0. -1.
         25    1    1    2    0    0 -0.12537782725E+03 -0.18342944580E+03 -0.11411314532E+03  0.27930766386E+03  0.12500000000E+03 0.  0.
         21    1    1    2  502  501  0.12537782725E+03  0.18342944580E+03  0.40837394021E+03  0.46490346976E+03  0.00000000000E+00 0.  1.
<mgrwt>
<rscale>  3 0.68356477E+03</rscale>
<asrwt>0</asrwt>
<pdfrwt beam="1">  1        2 0.79882456E-01 0.68356477E+03</pdfrwt>
<pdfrwt beam="2">  1       -2 0.34611565E-01 0.68356477E+03</pdfrwt>
<totfact> 0.46438906E+02</totfact>
</mgrwt>
</event>
<event>
 4    0  0.1264838E-002  0.6812056E+03  0.7546771E-02  0.9749924E-01
          2   -1    0    0  502    0  0.00000000000E+00  0.00000000000E+00  0.16535415933E+04  0.16535415933E+04  0.00000000000E+00 0.  1.
         -2   -1    0    0    0  501 -0.00000000000E+00 -0.00000000000E+00 -0.70158668813E+02  0.70158668813E+02  0.00000000000E+00 0. -1.
         25    1    1    2    0    0 -0.30021522033E+03  0.34363360731E+02  0.11484555699E+04  0.11941043569E+04  0.12500000000E+03 0.  0.
         21    1    1    2  502  501  0.30021522033E+03 -0.34363360731E+02  0.43492735461E+03  0.52959590525E+03  0.00000000000E+00 0. -1.
<mgrwt>
<rscale>  3 0.68120563E+03</rscale>
<asrwt>0</asrwt>
<pdfrwt beam="1">  1        2 0.25439099E+00 0.68120563E+03</pdfrwt>
<pdfrwt beam="2">  1       -2 0.10793643E-01 0.68120563E+03</pdfrwt>
<totfact> 0.64289666E+02</totfact>
</mgrwt>
</event>
<event>
 4    0  0.1264838E-002  0.6780570E+03  0.7546771E-02  0.9755511E-01
         -3   -1    0    0    0  501 -0.00000000000E+00  0.00000000000E+00  0.99373220428E+03  0.99373220428E+03  0.00000000000E+00 0.  1.
          3   -1    0    0  502    0  0.00000000000E+00 -0.00000000000E+00 -0.11566528230E+03  0.11566528230E+03  0.00000000000E+00 0. -1.
         25    1    1    2    0    0  0.21298118574E+03  0.23965653216E+03  0.56327391599E+03  0.66007480131E+03  0.12500000000E+03 0.  0.
         21    1    1    2  502  501 -0.21298118574E+03 -0.23965653216E+03  0.31479300598E+03  0.44932268527E+03  0.00000000000E+00 0. -1.
<mgrwt>
<rscale>  3 0.67805698E+03</rscale>
<asrwt>0</asrwt>
<pdfrwt beam="1">  1        3 0.17794660E-01 0.67805698E+03</pdfrwt>
<pdfrwt beam="2">  1       -3 0.15288187E+00 0.67805698E+03</pdfrwt>
<totfact> 0.22969922E+01</totfact>
</mgrwt>
</event>
<event>
 4    0  0.1264838E-002  0.4860023E+03  0.7546771E-02  0.1017498E+00
          2   -1    0    0  502    0  0.00000000000E+00  0.00000000000E+00  0.94368880466E+03  0.94368880466E+03  0.00000000000E+00 0.  1.
         -2   -1    0    0    0  501 -0.00000000000E+00 -0.00000000000E+00 -0.62573120538E+02  0.62573120538E+02  0.00000000000E+00 0. -1.
         25    1    1    2    0    0  0.19582049782E+03  0.87254710014E+02  0.31564275769E+03  0.40151513330E+03  0.12500000000E+03 0.  0.
         21    1    1    2  502  501 -0.19582049782E+03 -0.87254710014E+02  0.56547292644E+03  0.60474679190E+03  0.00000000000E+00 0.  1.
<mgrwt>
<rscale>  3 0.48600228E+03</rscale>
<asrwt>0</asrwt>
<pdfrwt beam="1">  1        2 0.14518288E+00 0.48600228E+03</pdfrwt>
<pdfrwt beam="2">  1       -2 0.96266346E-02 0.48600228E+03</pdfrwt>
<totfact> 0.20104416E+03</totfact>
</mgrwt>
</event>
<event>
 4    0  0.1264838E-002  0.5364427E+03  0.7546771E-02  0.1004682E+00
         -2   -1    0    0    0  501 -0.00000000000E+00  0.00000000000E+00  0.21311552961E+02  0.21311552961E+02  0.00000000000E+00 0. -1.
          2   -1    0    0  502    0  0.00000000000E+00 -0.00000000000E+00 -0.33757601501E+04  0.33757601501E+04  0.00000000000E+00 0.  1.
         25    1    1    2    0    0 -0.24926800992E+03  0.49978719642E+01 -0.14724327542E+04  0.14986136043E+04  0.12500000000E+03 0.  0.
         21    1    1    2  502  501  0.24926800992E+03 -0.49978719642E+01 -0.18820158429E+04  0.18984580987E+04  0.00000000000E+00 0.  1.
<mgrwt>
<rscale>  3 0.53644269E+03</rscale>
<asrwt>0</asrwt>
<pdfrwt beam="1">  1        2 0.51934722E+00 0.53644269E+03</pdfrwt>
<pdfrwt beam="2">  1       -2 0.32787036E-02 0.53644269E+03</pdfrwt>
<totfact> 0.43078289E+02</totfact>
</mgrwt>
</event>
<event>
 4    0  0.1264838E-002  0.5500362E+03  0.7546771E-02  0.1001486E+00
          2   -1    0    0  502    0  0.00000000000E+00  0.00000000000E+00  0.19417802801E+04  0.19417802801E+04  0.00000000000E+00 0.  1.
         -2   -1    0    0    0  501 -0.00000000000E+00 -0.00000000000E+00 -0.38951344247E+02  0.38951344247E+02  0.00000000000E+00 0. -1.
         25    1    1    2    0    0 -0.21755227042E+03  0.75481368959E+02  0.55954208302E+03  0.61785011944E+03  0.12500000000E+03 0.  0.
         21    1    1    2  502  501  0.21755227042E+03 -0.75481368959E+02  0.13432868529E+04  0.13628815049E+04  0.00000000000E+00 0.  1.
<mgrwt>
<rscale>  3 0.55003619E+03</rscale>
<asrwt>0</asrwt>
<pdfrwt beam="1">  1        2 0.29873535E+00 0.55003619E+03</pdfrwt>
<pdfrwt beam="2">  1       -2 0.59925160E-02 0.55003619E+03</pdfrwt>
<totfact> 0.11571921E+03</totfact>
</mgrwt>
</event>
<event>
 4    0  0.1264838E-002  0.5427070E+03  0.7546771E-02  0.1003196E+00
         -1   -1    0    0    0  501 -0.00000000000E+00  0.00000000000E+00  0.25298329562E+02  0.25298329562E+02  0.00000000000E+00 0. -1.
          1   -1    0    0  502    0  0.00000000000E+00 -0.00000000000E+00 -0.29105759780E+04  0.29105759780E+04  0.00000000000E+00 0.  1.
         25    1    1    2    0    0 -0.89043262500E+02 -0.22009434320E+03 -0.20507874982E+04  0.20682660818E+04  0.12500000000E+03 0.  0.
         21    1    1    2  502  501  0.89043262500E+02  0.22009434320E+03 -0.83449015026E+03  0.86760822575E+03  0.00000000000E+00 0. -1.
<mgrwt>
<rscale>  3 0.54270696E+03</rscale>
<asrwt>0</asrwt>
<pdfrwt beam="1">  1        1 0.44778043E+00 0.54270696E+03</pdfrwt>
<pdfrwt beam="2">  1       -1 0.38920549E-02 0.54270696E+03</pdfrwt>
<totfact> 0.20406435E+02</totfact>
</mgrwt>
</event>
<event>
 4    0  0.1529453E-002  0.8323247E+03  0.7546771E-02  0.9514372E-01
          1   -1    0    0  502    0  0.00000000000E+00  0.00000000000E+00  0.11163388405E+04  0.11163388405E+04  0.00000000000E+00 0.  1.
         -1   -1    0    0    0  501 -0.00000000000E+00 -0.00000000000E+00 -0.15514204847E+03  0.15514204847E+03  0.00000000000E+00 0. -1.
         25    1    1    2    0    0  0.24251580616E+03  0.18487670569E+02 -0.66499860148E+01  0.27354146398E+03  0.12500000000E+03 0.  0.
         21    1    1    2  502  501 -0.24251580616E+03 -0.18487670569E+02  0.96784677804E+03  0.99793942499E+03  0.00000000000E+00 0.  1.
<mgrwt>
<rscale>  3 0.83232468E+03</rscale>
<asrwt>0</asrwt>
<pdfrwt beam="1">  1        1 0.17174443E+00 0.83232468E+03</pdfrwt>
<pdfrwt beam="2">  1       -1 0.23868008E-01 0.83232468E+03</pdfrwt>
<totfact> 0.18861784E+02</totfact>
</mgrwt>
</event>
<event>
 4    0  0.1264838E-002  0.6462996E+03  0.7546771E-02  0.9813748E-01
         -2   -1    0    0    0  501 -0.00000000000E+00  0.00000000000E+00  0.18230328661E+03  0.18230328661E+03  0.00000000000E+00 0.  1.
          2   -1    0    0  502    0  0.00000000000E+00 -0.00000000000E+00 -0.57281361633E+03  0.57281361633E+03  0.00000000000E+00 0. -1.
         25    1    1    2    0    0 -0.37722587210E+02  0.23221657572E+03 -0.44032127296E+03  0.51464099627E+03  0.12500000000E+03 0.  0.
         21    1    1    2  502  501  0.37722587210E+02 -0.23221657572E+03  0.49810943241E+02  0.24047590667E+03  0.00000000000E+00 0.  1.
<mgrwt>
<rscale>  3 0.64629964E+03</rscale>
<asrwt>0</asrwt>
<pdfrwt beam="1">  1        2 0.88125171E-01 0.64629964E+03</pdfrwt>
<pdfrwt beam="2">  1       -2 0.28046660E-01 0.64629964E+03</pdfrwt>
<totfact> 0.61283860E+02</totfact>
</mgrwt>
</event>
<event>
 4    0  0.1264838E-002  0.5767573E+03  0.7546771E-02  0.9954836E-01
          2   -1    0    0  502    0  0.00000000000E+00  0.00000000000E+00  0.33491875001E+03  0.33491875001E+03  0.00000000000E+00 0.  1.
         -2   -1    0    0    0  501 -0.00000000000E+00 -0.00000000000E+00 -0.24830572510E+03  0.24830572510E+03  0.00000000000E+00 0. -1.
         25    1    1    2    0    0 -0.24159617015E+03 -0.12638071756E+03  0.10421898205E+02  0.30012399298E+03  0.12500000000E+03 0.  0.
         21    1    1    2  502  501  0.24159617015E+03  0.12638071756E+03  0.76191126705E+02  0.28310048214E+03  0.00000000000E+00 0.  1.
<mgrwt>
<rscale>  3 0.57675729E+03</rscale>
<asrwt>0</asrwt>
<pdfrwt beam="1">  1        2 0.51525961E-01 0.57675729E+03</pdfrwt>
<pdfrwt beam="2">  1       -2 0.38200881E-01 0.57675729E+03</pdfrwt>
<totfact> 0.63230780E+02</totfact>
</mgrwt>
</event>
<event>
 4    0  0.1264838E-002  0.4670261E+03  0.7546771E-02  0.1022763E+00
          3   -1    0    0  502    0  0.00000000000E+00  0.00000000000E+00  0.43060630716E+03  0.43060630716E+03  0.00000000000E+00 0. -1.
         -3   -1    0    0    0  501 -0.00000000000E+00 -0.00000000000E+00 -0.12663153597E+03  0.12663153597E+03  0.00000000000E+00 0.  1.
         25    1    1    2    0    0  0.20077166363E+03 -0.60380853289E+02  0.97082812782E+02  0.26268837222E+03  0.12500000000E+03 0.  0.
         21    1    1    2  502  501 -0.20077166363E+03  0.60380853289E+02  0.20689195841E+03  0.29454947091E+03  0.00000000000E+00 0. -1.
<mgrwt>
<rscale>  3 0.46702607E+03</rscale>
<asrwt>0</asrwt>
<pdfrwt beam="1">  1        3 0.66247124E-01 0.46702607E+03</pdfrwt>
<pdfrwt beam="2">  1       -3 0.19481775E-01 0.46702607E+03</pdfrwt>
<totfact> 0.13739679E+02</totfact>
</mgrwt>
</event>
<event>
 4    0  0.1264838E-002  0.6303489E+03  0.7546771E-02  0.9844368E-01
         -2   -1    0    0    0  501 -0.00000000000E+00  0.00000000000E+00  0.29048141535E+03  0.29048141535E+03  0.00000000000E+00 0. -1.
          2   -1    0    0  502    0  0.00000000000E+00 -0.00000000000E+00 -0.34196661196E+03  0.34196661196E+03  0.00000000000E+00 0.  1.
         25    1    1    2    0    0 -0.98343040562E+02  0.27785628229E+03 -0.96271900801E+02  0.33431833051E+03  0.12500000000E+03 0.  0.
         21    1    1    2  502  501  0.98343040562E+02 -0.27785628229E+03  0.44786704191E+02  0.29812969679E+03  0.00000000000E+00 0. -1.
<mgrwt>
<rscale>  3 0.63034894E+03</rscale>
<asrwt>0</asrwt>
<pdfrwt beam="1">  1        2 0.52610248E-01 0.63034894E+03</pdfrwt>
<pdfrwt beam="2">  1       -2 0.44689449E-01 0.63034894E+03</pdfrwt>
<totfact> 0.45428994E+02</totfact>
</mgrwt>
</event>
<event>
 4    0  0.1264838E-002  0.5845719E+03  0.7546771E-02  0.9937942E-01
          1   -1    0    0  502    0  0.00000000000E+00  0.00000000000E+00  0.11014814037E+03  0.11014814037E+03  0.00000000000E+00 0. -1.
         -1   -1    0    0    0  501 -0.00000000000E+00 -0.00000000000E+00 -0.77560150812E+03  0.77560150812E+03  0.00000000000E+00 0.  1.
         25    1    1    2    0    0 -0.17561299568E+03 -0.21454268555E+03 -0.39411532093E+03  0.49781560277E+03  0.12500000000E+03 0.  0.
         21    1    1    2  502  501  0.17561299568E+03  0.21454268555E+03 -0.27133804682E+03  0.38793404572E+03  0.00000000000E+00 0. -1.
<mgrwt>
<rscale>  3 0.58457186E+03</rscale>
<asrwt>0</asrwt>
<pdfrwt beam="1">  1        1 0.16945867E-01 0.58457186E+03</pdfrwt>
<pdfrwt beam="2">  1       -1 0.11932331E+00 0.58457186E+03</pdfrwt>
<totfact> 0.20954812E+02</totfact>
</mgrwt>
</event>
<event>
 4    0  0.1264838E-002  0.4627487E+03  0.7546771E-02  0.1023987E+00
          2   -1    0    0  502    0  0.00000000000E+00  0.00000000000E+00  0.34059301635E+04  0.34059301635E+04  0.00000000000E+00 0.  1.
         -2   -1    0    0    0  501 -0.00000000000E+00 -0.00000000000E+00 -0.15717907767E+02  0.15717907767E+02  0.00000000000E+00 0. -1.
         25    1    1    2    0    0 -0.10211814488E+03 -0.18296797809E+03  0.14798507089E+04  0.14998294961E+04  0.12500000000E+03 0.  0.
         21    1    1    2  502  501  0.10211814488E+03  0.18296797809E+03  0.19103615468E+04  0.19218185752E+04  0.00000000000E+00 0.  1.
<mgrwt>
<rscale>  3 0.46274873E+03</rscale>
<asrwt>0</asrwt>
<pdfrwt beam="1">  1        2 0.52398867E+00 0.46274873E+03</pdfrwt>
<pdfrwt beam="2">  1       -2 0.24181424E-02 0.46274873E+03</pdfrwt>
<totfact> 0.65866486E+02</totfact>
</mgrwt>
</event>
<event>
 4    0  0.1264838E-002  0.6236549E+03  0.7546771E-02  0.9857510E-01
          1   -1    0    0  502    0  0.00000000000E+00  0.00000000000E+00  0.38519187785E+03  0.38519187785E+03  0.00000000000E+00 0. -1.
         -1   -1    0    0    0  501 -0.00000000000E+00 -0.00000000000E+00 -0.25243618736E+03  0.25243618736E+03  0.00000000000E+00 0.  1.
         25    1    1    2    0    0 -0.26729081781E+03  0.83369994774E+02  0.17717728245E+03  0.35413518144E+03  0.12500000000E+03 0.  0.
         21    1    1    2  502  501  0.26729081781E+03 -0.83369994774E+02 -0.44421591956E+02  0.28349288377E+03  0.00000000000E+00 0.  1.
<mgrwt>
<rscale>  3 0.62365493E+03</rscale>
<asrwt>0</asrwt>
<pdfrwt beam="1">  1        1 0.59260289E-01 0.62365493E+03</pdfrwt>
<pdfrwt beam="2">  1       -1 0.38836336E-01 0.62365493E+03</pdfrwt>
<totfact> 0.41054685E+02</totfact>
</mgrwt>
</event>
<event>
 4    0  0.1264838E-002  0.5095427E+03  0.7546771E-02  0.1011318E+00
          2   -1    0    0  502    0  0.00000000000E+00  0.00000000000E+00  0.25136914478E+04  0.25136914478E+04  0.00000000000E+00 0.  1.
         -2   -1    0    0    0  501 -0.00000000000E+00 -0.00000000000E+00 -0.25821958471E+02  0.25821958471E+02  0.00000000000E+00 0. -1.
         25    1    1    2    0    0 -0.20513447862E+03  0.11897145616E+03  0.11537498204E+04  0.11844821695E+04  0.12500000000E+03 0.  0.
         21    1    1    2  502  501  0.20513447862E+03 -0.11897145616E+03  0.13341196689E+04  0.13550312368E+04  0.00000000000E+00 0. -1.
<mgrwt>
<rscale>  3 0.50954268E+03</rscale>
<asrwt>0</asrwt>
<pdfrwt beam="1">  1        2 0.38672157E+00 0.50954268E+03</pdfrwt>
<pdfrwt beam="2">  1       -2 0.39726110E-02 0.50954268E+03</pdfrwt>
<totfact> 0.10656206E+03</totfact>
</mgrwt>
</event>
<event>
 4    0  0.1264838E-002  0.8755288E+03  0.7546771E-02  0.9456699E-01
          2   -1    0    0  502    0  0.00000000000E+00  0.00000000000E+00  0.73248089859E+03  0.73248089859E+03  0.00000000000E+00 0.  1.
         -2   -1    0    0    0  501 -0.00000000000E+00 -0.00000000000E+00 -0.26162820036E+03  0.26162820036E+03  0.00000000000E+00 0. -1.
         25    1    1    2    0    0  0.11216801524E+03  0.41065750859E+03  0.18140627941E+03  0.47932712338E+03  0.12500000000E+03 0.  0.
         21    1    1    2  502  501 -0.11216801524E+03 -0.41065750859E+03  0.28944641882E+03  0.51478197557E+03  0.00000000000E+00 0. -1.
<mgrwt>
<rscale>  3 0.87552878E+03</rscale>
<asrwt>0</asrwt>
<pdfrwt beam="1">  1        2 0.11268937E+00 0.87552878E+03</pdfrwt>
<pdfrwt beam="2">  1       -2 0.40250493E-01 0.87552878E+03</pdfrwt>
<totfact> 0.22664015E+02</totfact>
</mgrwt>
</event>
<event>
 4    0  0.1264838E-002  0.5151209E+03  0.7546771E-02  0.1009906E+00
         -2   -1    0    0    0  501 -0.00000000000E+00  0.00000000000E+00  0.70686734554E+03  0.70686734554E+03  0.00000000000E+00 0.  1.
          2   -1    0    0  502    0  0.00000000000E+00 -0.00000000000E+00 -0.93847000207E+02  0.93847000207E+02  0.00000000000E+00 0. -1.
         25    1    1    2    0    0 -0.75960633575E+02 -0.19521096464E+03  0.51415714131E+03  0.56908690420E+03  0.12500000000E+03 0.  0.
         21    1    1    2  502  501  0.75960633575E+02  0.19521096464E+03  0.98863204023E+02  0.23162744155E+03  0.00000000000E+00 0. -1.
<mgrwt>
<rscale>  3 0.51512088E+03</rscale>
<asrwt>0</asrwt>
<pdfrwt beam="1">  1        2 0.14438000E-01 0.51512088E+03</pdfrwt>
<pdfrwt beam="2">  1       -2 0.10874882E+00 0.51512088E+03</pdfrwt>
<totfact> 0.28738840E+02</totfact>
</mgrwt>
</event>
<event>
 4    0  0.1264838E-002  0.5091603E+03  0.7546771E-02  0.1011415E+00
          2   -1    0    0  502    0  0.00000000000E+00  0.00000000000E+00  0.57163102954E+03  0.57163102954E+03  0.00000000000E+00 0. -1.
         -2   -1    0    0    0  501 -0.00000000000E+00 -0.00000000000E+00 -0.11337917564E+03  0.11337917564E+03  0.00000000000E+00 0.  1.
         25    1    1    2    0    0  0.19934178013E+03  0.12360161682E+03  0.17955326882E+03  0.32074737930E+03  0.12500000000E+03 0.  0.
         21    1    1    2  502  501 -0.19934178013E+03 -0.12360161682E+03  0.27869858508E+03  0.36426282587E+03  0.00000000000E+00 0.  1.
<mgrwt>
<rscale>  3 0.50916031E+03</rscale>
<asrwt>0</asrwt>
<pdfrwt beam="1">  1        2 0.87943234E-01 0.50916031E+03</pdfrwt>
<pdfrwt beam="2">  1       -2 0.17442950E-01 0.50916031E+03</pdfrwt>
<totfact> 0.14238032E+03</totfact>
</mgrwt>
</event>
<event>
 4    0  0.1264838E-002  0.8036987E+03  0.7546771E-02  0.9554679E-01
         -2   -1    0    0    0  501 -0.00000000000E+00  0.00000000000E+00  0.27258511753E+03  0.27258511753E+03  0.00000000000E+00 0. -1.
          2   -1    0    0  502    0  0.00000000000E+00 -0.00000000000E+00 -0.59241280289E+03  0.59241280289E+03  0.00000000000E+00 0.  1.
         25    1    1    2    0    0 -0.15504801440E+02 -0.27671462598E+03  0.13478089347E+03  0.33256919933E+03  0.12500000000E+03 0.  0.
         21    1    1    2  502  501  0.15504801440E+02  0.27671462598E+03 -0.45460857883E+03  0.53242872109E+03  0.00000000000E+00 0.  1.
<mgrwt>
<rscale>  3 0.80369873E+03</rscale>
<asrwt>0</asrwt>
<pdfrwt beam="1">  1        2 0.91140430E-01 0.80369873E+03</pdfrwt>
<pdfrwt beam="2">  1       -2 0.41936172E-01 0.80369873E+03</pdfrwt>
<totfact> 0.27305809E+02</totfact>
</mgrwt>
</event>
<event>
 4    0  0.1264838E-002  0.7189586E+03  0.7546771E-02  0.9685349E-01
          2   -1    0    0  502    0  0.00000000000E+00  0.00000000000E+00  0.42658580697E+03  0.42658580697E+03  0.00000000000E+00 0. -1.
         -2   -1    0    0    0  501 -0.00000000000E+00 -0.00000000000E+00 -0.30292933566E+03  0.30292933566E+03  0.00000000000E+00 0.  1.
         25    1    1    2    0    0  0.24702377291E+03  0.19102201326E+02  0.31254354474E+03  0.41796423990E+03  0.12500000000E+03 0.  0.
         21    1    1    2  502  501 -0.24702377291E+03 -0.19102201326E+02 -0.18888707343E+03  0.31155090272E+03  0.00000000000E+00 0.  1.
<mgrwt>
<rscale>  3 0.71895857E+03</rscale>
<asrwt>0</asrwt>
<pdfrwt beam="1">  1        2 0.65628586E-01 0.71895857E+03</pdfrwt>
<pdfrwt beam="2">  1       -2 0.46604513E-01 0.71895857E+03</pdfrwt>
<totfact> 0.32545000E+02</totfact>
</mgrwt>
</event>
<event>
 4    0  0.1264838E-002  0.5061998E+03  0.7546771E-02  0.1012173E+00
          2   -1    0    0  502    0  0.00000000000E+00  0.00000000000E+00  0.19454562132E+04  0.19454562132E+04  0.00000000000E+00 0. -1.
         -2   -1    0    0    0  501 -0.00000000000E+00 -0.00000000000E+00 -0.32927786921E+02  0.32927786921E+02  0.00000000000E+00 0.  1.
         25    1    1    2    0    0 -0.23432826798E+03 -0.17477854129E+02  0.11538590694E+04  0.11841583359E+04  0.12500000000E+03 0.  0.
         21    1    1    2  502  501  0.23432826798E+03  0.17477854129E+02  0.75866935687E+03  0.79422566417E+03  0.00000000000E+00 0.  1.
<mgrwt>
<rscale>  3 0.50619983E+03</rscale>
<asrwt>0</asrwt>
<pdfrwt beam="1">  1        2 0.29930087E+00 0.50619983E+03</pdfrwt>
<pdfrwt beam="2">  1       -2 0.50658149E-02 0.50619983E+03</pdfrwt>
<totfact> 0.14995607E+03</totfact>
</mgrwt>
</event>
<event>
 4    0  0.1264838E-002  0.5357344E+03  0.7546771E-02  0.1004851E+00
         -2   -1    0    0    0  501 -0.00000000000E+00  0.00000000000E+00  0.69335065359E+02  0.69335065359E+02  0.00000000000E+00 0.  1.
          2   -1    0    0  502    0  0.00000000000E+00 -0.00000000000E+00 -0.10348709460E+04  0.10348709460E+04  0.00000000000E+00 0. -1.
         25    1    1    2    0    0  0.21873484460E+03  0.99051913894E+02 -0.67518070228E+03  0.72742710605E+03  0.12500000000E+03 0.  0.
         21    1    1    2  502  501 -0.21873484460E+03 -0.99051913894E+02 -0.29035517837E+03  0.37677890532E+03  0.00000000000E+00 0.  1.
<mgrwt>
<rscale>  3 0.53573443E+03</rscale>
<asrwt>0</asrwt>
<pdfrwt beam="1">  1        2 0.15921092E+00 0.53573443E+03</pdfrwt>
<pdfrwt beam="2">  1       -2 0.10666933E-01 0.53573443E+03</pdfrwt>
<totfact> 0.14901523E+03</totfact>
</mgrwt>
</event>
<event>
 4    0  0.1264838E-002  0.4745019E+03  0.7546771E-02  0.1020657E+00
         -2   -1    0    0    0  501 -0.00000000000E+00  0.00000000000E+00  0.62432259249E+02  0.62432259249E+02  0.00000000000E+00 0.  1.
          2   -1    0    0  502    0  0.00000000000E+00 -0.00000000000E+00 -0.90158541329E+03  0.90158541329E+03  0.00000000000E+00 0. -1.
         25    1    1    2    0    0  0.13710878959E+03 -0.16848939294E+03 -0.36847383995E+03  0.44562929262E+03  0.12500000000E+03 0.  0.
         21    1    1    2  502  501 -0.13710878959E+03  0.16848939294E+03 -0.47067931410E+03  0.51838837992E+03  0.00000000000E+00 0. -1.
<mgrwt>
<rscale>  3 0.47450190E+03</rscale>
<asrwt>0</asrwt>
<pdfrwt beam="1">  1        2 0.13870544E+00 0.47450190E+03</pdfrwt>
<pdfrwt beam="2">  1       -2 0.96049637E-02 0.47450190E+03</pdfrwt>
<totfact> 0.21497451E+03</totfact>
</mgrwt>
</event>
<event>
 4    0  0.1264838E-002  0.5979357E+03  0.7546771E-02  0.9909698E-01
          1   -1    0    0  502    0  0.00000000000E+00  0.00000000000E+00  0.61843767097E+03  0.61843767097E+03  0.00000000000E+00 0.  1.
         -1   -1    0    0    0  501 -0.00000000000E+00 -0.00000000000E+00 -0.14452834451E+03  0.14452834451E+03  0.00000000000E+00 0. -1.
         25    1    1    2    0    0  0.35405970857E+02 -0.28224860915E+03  0.21072383819E+03  0.37542961540E+03  0.12500000000E+03 0.  0.
         21    1    1    2  502  501 -0.35405970857E+02  0.28224860915E+03  0.26318548828E+03  0.38753640008E+03  0.00000000000E+00 0.  1.
<mgrwt>
<rscale>  3 0.59793569E+03</rscale>
<asrwt>0</asrwt>
<pdfrwt beam="1">  1        1 0.95144255E-01 0.59793569E+03</pdfrwt>
<pdfrwt beam="2">  1       -1 0.22235130E-01 0.59793569E+03</pdfrwt>
<totfact> 0.56610074E+02</totfact>
</mgrwt>
</event>
<event>
 4    0  0.1264838E-002  0.5580124E+03  0.7546771E-02  0.9996562E-01
          2   -1    0    0  502    0  0.00000000000E+00  0.00000000000E+00  0.69842532594E+03  0.69842532594E+03  0.00000000000E+00 0. -1.
         -2   -1    0    0    0  501 -0.00000000000E+00 -0.00000000000E+00 -0.11145708816E+03  0.11145708816E+03  0.00000000000E+00 0.  1.
         25    1    1    2    0    0 -0.19980930448E+03 -0.17291712501E+03  0.33737902524E+03  0.44640082544E+03  0.12500000000E+03 0.  0.
         21    1    1    2  502  501  0.19980930448E+03  0.17291712501E+03  0.24958921254E+03  0.36348158866E+03  0.00000000000E+00 0.  1.
<mgrwt>
<rscale>  3 0.55801238E+03</rscale>
<asrwt>0</asrwt>
<pdfrwt beam="1">  1        2 0.10745005E+00 0.55801238E+03</pdfrwt>
<pdfrwt beam="2">  1       -2 0.17147245E-01 0.55801238E+03</pdfrwt>
<totfact> 0.11497535E+03</totfact>
</mgrwt>
</event>
<event>
 4    0  0.1264838E-002  0.5955433E+03  0.7546771E-02  0.9914696E-01
          1   -1    0    0  502    0  0.00000000000E+00  0.00000000000E+00  0.24705868128E+03  0.24705868128E+03  0.00000000000E+00 0.  1.
         -1   -1    0    0    0  501 -0.00000000000E+00 -0.00000000000E+00 -0.35889429961E+03  0.35889429961E+03  0.00000000000E+00 0. -1.
         25    1    1    2    0    0 -0.22448596438E+03 -0.12690065068E+03  0.64265389417E+02  0.29368820818E+03  0.12500000000E+03 0.  0.
         21    1    1    2  502  501  0.22448596438E+03  0.12690065068E+03 -0.17610100775E+03  0.31226477271E+03  0.00000000000E+00 0. -1.
<mgrwt>
<rscale>  3 0.59554329E+03</rscale>
<asrwt>0</asrwt>
<pdfrwt beam="1">  1        1 0.38009028E-01 0.59554329E+03</pdfrwt>
<pdfrwt beam="2">  1       -1 0.55214508E-01 0.59554329E+03</pdfrwt>
<totfact> 0.37949737E+02</totfact>
</mgrwt>
</event>
<event>
 4    0  0.1264838E-002  0.5912938E+03  0.7546771E-02  0.9923635E-01
         -2   -1    0    0    0  501 -0.00000000000E+00  0.00000000000E+00  0.49341475517E+03  0.49341475517E+03  0.00000000000E+00 0. -1.
          2   -1    0    0  502    0  0.00000000000E+00 -0.00000000000E+00 -0.17714732211E+03  0.17714732211E+03  0.00000000000E+00 0.  1.
         25    1    1    2    0    0 -0.12548510879E+03  0.15897282230E+03  0.38844136202E+03  0.45555522441E+03  0.12500000000E+03 0.  0.
         21    1    1    2  502  501  0.12548510879E+03 -0.15897282230E+03 -0.72173928956E+02  0.21500685287E+03  0.00000000000E+00 0.  1.
<mgrwt>
<rscale>  3 0.59129384E+03</rscale>
<asrwt>0</asrwt>
<pdfrwt beam="1">  1        2 0.27253434E-01 0.59129384E+03</pdfrwt>
<pdfrwt beam="2">  1       -2 0.75909961E-01 0.59129384E+03</pdfrwt>
<totfact> 0.31189866E+02</totfact>
</mgrwt>
</event>
<event>
 4    0  0.1264838E-002  0.5694371E+03  0.7546771E-02  0.9970925E-01
         -2   -1    0    0    0  501 -0.00000000000E+00  0.00000000000E+00  0.13062661099E+03  0.13062661099E+03  0.00000000000E+00 0. -1.
          2   -1    0    0  502    0  0.00000000000E+00 -0.00000000000E+00 -0.62058293296E+03  0.62058293296E+03  0.00000000000E+00 0.  1.
         25    1    1    2    0    0  0.26335153726E+03  0.37740055327E+02 -0.32484758750E+03  0.43809736253E+03  0.12500000000E+03 0.  0.
         21    1    1    2  502  501 -0.26335153726E+03 -0.37740055327E+02 -0.16510873447E+03  0.31311218141E+03  0.00000000000E+00 0. -1.
<mgrwt>
<rscale>  3 0.56943707E+03</rscale>
<asrwt>0</asrwt>
<pdfrwt beam="1">  1        2 0.95474295E-01 0.56943707E+03</pdfrwt>
<pdfrwt beam="2">  1       -2 0.20096402E-01 0.56943707E+03</pdfrwt>
<totfact> 0.10108516E+03</totfact>
</mgrwt>
</event>
<event>
 4    0  0.1264838E-002  0.4962230E+03  0.7546771E-02  0.1014769E+00
          3   -1    0    0  502    0  0.00000000000E+00  0.00000000000E+00  0.33505356344E+03  0.33505356344E+03  0.00000000000E+00 0. -1.
         -3   -1    0    0    0  501 -0.00000000000E+00 -0.00000000000E+00 -0.18372978343E+03  0.18372978343E+03  0.00000000000E+00 0.  1.
         25    1    1    2    0    0  0.12645239367E+03  0.18734333315E+03  0.13683048123E+03  0.29229319686E+03  0.12500000000E+03 0.  0.
         21    1    1    2  502  501 -0.12645239367E+03 -0.18734333315E+03  0.14493298777E+02  0.22649015000E+03  0.00000000000E+00 0.  1.
<mgrwt>
<rscale>  3 0.49622301E+03</rscale>
<asrwt>0</asrwt>
<pdfrwt beam="1">  1        3 0.51546702E-01 0.49622301E+03</pdfrwt>
<pdfrwt beam="2">  1       -3 0.28266120E-01 0.49622301E+03</pdfrwt>
<totfact> 0.11780486E+02</totfact>
</mgrwt>
</event>
<event>
 4    0  0.1264838E-002  0.5224474E+03  0.7546771E-02  0.1008080E+00
          2   -1    0    0  502    0  0.00000000000E+00  0.00000000000E+00  0.24747678935E+04  0.24747678935E+04  0.00000000000E+00 0. -1.
         -2   -1    0    0    0  501 -0.00000000000E+00 -0.00000000000E+00 -0.27573423949E+02  0.27573423949E+02  0.00000000000E+00 0.  1.
         25    1    1    2    0    0  0.19131510464E+03  0.11224305299E+03  0.18061335879E+04  0.18239910936E+04  0.12500000000E+03 0.  0.
         21    1    1    2  502  501 -0.19131510464E+03 -0.11224305299E+03  0.64106088166E+03  0.67835022386E+03  0.00000000000E+00 0.  1.
<mgrwt>
<rscale>  3 0.52244741E+03</rscale>
<asrwt>0</asrwt>
<pdfrwt beam="1">  1        2 0.38073335E+00 0.52244741E+03</pdfrwt>
<pdfrwt beam="2">  1       -2 0.42420672E-02 0.52244741E+03</pdfrwt>
<totfact> 0.10121437E+03</totfact>
</mgrwt>
</event>
<event>
 4    0  0.1264838E-002  0.4795116E+03  0.7546771E-02  0.1019269E+00
          4   -1    0    0  502    0  0.00000000000E+00  0.00000000000E+00  0.61306229704E+03  0.61306229704E+03  0.00000000000E+00 0.  1.
         -4   -1    0    0    0  501 -0.00000000000E+00 -0.00000000000E+00 -0.93763481837E+02  0.93763481837E+02  0.00000000000E+00 0. -1.
         25    1    1    2    0    0 -0.13413050818E+03  0.17738311853E+03  0.30959016520E+03  0.40115687001E+03  0.12500000000E+03 0.  0.
         21    1    1    2  502  501  0.13413050818E+03 -0.17738311853E+03  0.20970865000E+03  0.30566890887E+03  0.00000000000E+00 0. -1.
<mgrwt>
<rscale>  3 0.47951165E+03</rscale>
<asrwt>0</asrwt>
<pdfrwt beam="1">  1        4 0.94317274E-01 0.47951165E+03</pdfrwt>
<pdfrwt beam="2">  1       -4 0.14425151E-01 0.47951165E+03</pdfrwt>
<totfact> 0.76967548E+01</totfact>
</mgrwt>
</event>
<event>
 4    0  0.1264838E-002  0.1122513E+04  0.7546771E-02  0.9183522E-01
         -1   -1    0    0    0  501 -0.00000000000E+00  0.00000000000E+00  0.12618424358E+04  0.12618424358E+04  0.00000000000E+00 0. -1.
          1   -1    0    0  502    0  0.00000000000E+00 -0.00000000000E+00 -0.24964215333E+03  0.24964215333E+03  0.00000000000E+00 0.  1.
         25    1    1    2    0    0 -0.73051448848E+02  0.49415259239E+03  0.18887042665E+03  0.54847090790E+03  0.12500000000E+03 0.  0.
         21    1    1    2  502  501  0.73051448848E+02 -0.49415259239E+03  0.82332985577E+03  0.96301368118E+03  0.00000000000E+00 0. -1.
<mgrwt>
<rscale>  3 0.11225134E+04</rscale>
<asrwt>0</asrwt>
<pdfrwt beam="1">  1        1 0.38406486E-01 0.11225134E+04</pdfrwt>
<pdfrwt beam="2">  1       -1 0.19412960E+00 0.11225134E+04</pdfrwt>
<totfact> 0.18336421E+01</totfact>
</mgrwt>
</event>
<event>
 4    0  0.1264838E-002  0.4946083E+03  0.7546771E-02  0.1015196E+00
          2   -1    0    0  502    0  0.00000000000E+00  0.00000000000E+00  0.21016773863E+04  0.21016773863E+04  0.00000000000E+00 0. -1.
         -2   -1    0    0    0  501 -0.00000000000E+00 -0.00000000000E+00 -0.29100257097E+02  0.29100257097E+02  0.00000000000E+00 0.  1.
         25    1    1    2    0    0  0.12628039468E+02 -0.20074758504E+03  0.15962518056E+04  0.16137236093E+04  0.12500000000E+03 0.  0.
         21    1    1    2  502  501 -0.12628039468E+02  0.20074758504E+03  0.47632532356E+03  0.51705403406E+03  0.00000000000E+00 0.  1.
<mgrwt>
<rscale>  3 0.49460834E+03</rscale>
<asrwt>0</asrwt>
<pdfrwt beam="1">  1        2 0.32333486E+00 0.49460834E+03</pdfrwt>
<pdfrwt beam="2">  1       -2 0.44769643E-02 0.49460834E+03</pdfrwt>
<totfact> 0.14955955E+03</totfact>
</mgrwt>
</event>
<event>
 4    0  0.1264838E-002  0.4795484E+03  0.7546771E-02  0.1019259E+00
         -1   -1    0    0    0  501 -0.00000000000E+00  0.00000000000E+00  0.40161031325E+03  0.40161031325E+03  0.00000000000E+00 0. -1.
          1   -1    0    0  502    0  0.00000000000E+00 -0.00000000000E+00 -0.14315284127E+03  0.14315284127E+03  0.00000000000E+00 0.  1.
         25    1    1    2    0    0  0.61263753231E+02  0.19506600962E+03  0.24050415012E+03  0.33951618783E+03  0.12500000000E+03 0.  0.
         21    1    1    2  502  501 -0.61263753231E+02 -0.19506600962E+03  0.17953321859E+02  0.20524696669E+03  0.00000000000E+00 0.  1.
<mgrwt>
<rscale>  3 0.47954836E+03</rscale>
<asrwt>0</asrwt>
<pdfrwt beam="1">  1        1 0.22023514E-01 0.47954836E+03</pdfrwt>
<pdfrwt beam="2">  1       -1 0.61786202E-01 0.47954836E+03</pdfrwt>
<totfact> 0.61916577E+02</totfact>
</mgrwt>
</event>
<event>
 4    0  0.1264838E-002  0.5759777E+03  0.7546771E-02  0.9956537E-01
         -2   -1    0    0    0  501 -0.00000000000E+00  0.00000000000E+00  0.71235747802E+02  0.71235747802E+02  0.00000000000E+00 0.  1.
          2   -1    0    0  502    0  0.00000000000E+00 -0.00000000000E+00 -0.11642691561E+04  0.11642691561E+04  0.00000000000E+00 0. -1.
         25    1    1    2    0    0  0.14608991591E+03  0.18899529127E+03 -0.28249492163E+03  0.39049950627E+03  0.12500000000E+03 0.  0.
         21    1    1    2  502  501 -0.14608991591E+03 -0.18899529127E+03 -0.81053848670E+03  0.84500539766E+03  0.00000000000E+00 0. -1.
<mgrwt>
<rscale>  3 0.57597772E+03</rscale>
<asrwt>0</asrwt>
<pdfrwt beam="1">  1        2 0.17911833E+00 0.57597772E+03</pdfrwt>
<pdfrwt beam="2">  1       -2 0.10959346E-01 0.57597772E+03</pdfrwt>
<totfact> 0.11892538E+03</totfact>
</mgrwt>
</event>
<event>
 4    0  0.1264838E-002  0.4831220E+03  0.7546771E-02  0.1018281E+00
         -1   -1    0    0    0  501 -0.00000000000E+00  0.00000000000E+00  0.39818316850E+02  0.39818316850E+02  0.00000000000E+00 0.  1.
          1   -1    0    0  502    0  0.00000000000E+00 -0.00000000000E+00 -0.14654491387E+04  0.14654491387E+04  0.00000000000E+00 0. -1.
         25    1    1    2    0    0 -0.21615310185E+03  0.46199818060E+02 -0.62315487368E+03  0.67290681615E+03  0.12500000000E+03 0.  0.
         21    1    1    2  502  501  0.21615310185E+03 -0.46199818060E+02 -0.80247594817E+03  0.83236063940E+03  0.00000000000E+00 0. -1.
<mgrwt>
<rscale>  3 0.48312201E+03</rscale>
<asrwt>0</asrwt>
<pdfrwt beam="1">  1        1 0.22545376E+00 0.48312201E+03</pdfrwt>
<pdfrwt beam="2">  1       -1 0.61258937E-02 0.48312201E+03</pdfrwt>
<totfact> 0.96567792E+02</totfact>
</mgrwt>
</event>
<event>
 4    0  0.1264838E-002  0.4780534E+03  0.7546771E-02  0.1019672E+00
          2   -1    0    0  502    0  0.00000000000E+00  0.00000000000E+00  0.28572095384E+03  0.28572095384E+03  0.00000000000E+00 0. -1.
         -2   -1    0    0    0  501 -0.00000000000E+00 -0.00000000000E+00 -0.19996350185E+03  0.19996350185E+03  0.00000000000E+00 0.  1.
         25    1    1    2    0    0 -0.10424531163E+03 -0.19677531163E+03  0.44944977795E+02  0.25929261326E+03  0.12500000000E+03 0.  0.
         21    1    1    2  502  501  0.10424531163E+03  0.19677531163E+03  0.40812474194E+02  0.22639184242E+03  0.00000000000E+00 0.  1.
<mgrwt>
<rscale>  3 0.47805340E+03</rscale>
<asrwt>0</asrwt>
<pdfrwt beam="1">  1        2 0.43957070E-01 0.47805340E+03</pdfrwt>
<pdfrwt beam="2">  1       -2 0.30763616E-01 0.47805340E+03</pdfrwt>
<totfact> 0.11334010E+03</totfact>
</mgrwt>
</event>
<event>
 4    0  0.1264838E-002  0.7661785E+03  0.7546771E-02  0.9610305E-01
          1   -1    0    0  502    0  0.00000000000E+00  0.00000000000E+00  0.22520552702E+04  0.22520552702E+04  0.00000000000E+00 0.  1.
         -1   -1    0    0    0  501 -0.00000000000E+00 -0.00000000000E+00 -0.65165976639E+02  0.65165976639E+02  0.00000000000E+00 0. -1.
         25    1    1    2    0    0 -0.15159565532E+03  0.32612287940E+03  0.82450504481E+03  0.90816900635E+03  0.12500000000E+03 0.  0.
         21    1    1    2  502  501  0.15159565532E+03 -0.32612287940E+03  0.13623842487E+04  0.14090522405E+04  0.00000000000E+00 0. -1.
<mgrwt>
<rscale>  3 0.76617852E+03</rscale>
<asrwt>0</asrwt>
<pdfrwt beam="1">  1        1 0.34646998E+00 0.76617852E+03</pdfrwt>
<pdfrwt beam="2">  1       -1 0.10025537E-01 0.76617852E+03</pdfrwt>
<totfact> 0.13046093E+02</totfact>
</mgrwt>
</event>
<event>
 4    0  0.1264838E-002  0.4529150E+03  0.7546771E-02  0.1026856E+00
         -1   -1    0    0    0  501 -0.00000000000E+00  0.00000000000E+00  0.70585783099E+03  0.70585783099E+03  0.00000000000E+00 0.  1.
          1   -1    0    0  502    0  0.00000000000E+00 -0.00000000000E+00 -0.72653431520E+02  0.72653431520E+02  0.00000000000E+00 0. -1.
         25    1    1    2    0    0 -0.20318036612E+03 -0.44059582537E+02  0.38082840842E+03  0.45152938403E+03  0.12500000000E+03 0.  0.
         21    1    1    2  502  501  0.20318036612E+03  0.44059582537E+02  0.25237599105E+03  0.32698187847E+03  0.00000000000E+00 0. -1.
<mgrwt>
<rscale>  3 0.45291497E+03</rscale>
<asrwt>0</asrwt>
<pdfrwt beam="1">  1        1 0.11177451E-01 0.45291497E+03</pdfrwt>
<pdfrwt beam="2">  1       -1 0.10859351E+00 0.45291497E+03</pdfrwt>
<totfact> 0.46059949E+02</totfact>
</mgrwt>
</event>
<event>
 4    0  0.1264838E-002  0.4624302E+03  0.7546771E-02  0.1024079E+00
          1   -1    0    0  502    0  0.00000000000E+00  0.00000000000E+00  0.49450400654E+03  0.49450400654E+03  0.00000000000E+00 0. -1.
         -1   -1    0    0    0  501 -0.00000000000E+00 -0.00000000000E+00 -0.10810918070E+03  0.10810918070E+03  0.00000000000E+00 0.  1.
         25    1    1    2    0    0 -0.14393954314E+03 -0.14385362581E+03  0.29493418451E+03  0.37950445443E+03  0.12500000000E+03 0.  0.
         21    1    1    2  502  501  0.14393954314E+03  0.14385362581E+03  0.91460641324E+02  0.22310873280E+03  0.00000000000E+00 0. -1.
<mgrwt>
<rscale>  3 0.46243020E+03</rscale>
<asrwt>0</asrwt>
<pdfrwt beam="1">  1        1 0.76077538E-01 0.46243020E+03</pdfrwt>
<pdfrwt beam="2">  1       -1 0.16632182E-01 0.46243020E+03</pdfrwt>
<totfact> 0.12511763E+03</totfact>
</mgrwt>
</event>
<event>
 4    0  0.1264838E-002  0.5144057E+03  0.7546771E-02  0.1010086E+00
          2   -1    0    0  502    0  0.00000000000E+00  0.00000000000E+00  0.22162249780E+03  0.22162249780E+03  0.00000000000E+00 0.  1.
         -2   -1    0    0    0  501 -0.00000000000E+00 -0.00000000000E+00 -0.29849547822E+03  0.29849547822E+03  0.00000000000E+00 0. -1.
         25    1    1    2    0    0  0.23923483798E+03 -0.36224398721E+02 -0.35554761232E+02  0.27465370162E+03  0.12500000000E+03 0.  0.
         21    1    1    2  502  501 -0.23923483798E+03  0.36224398721E+02 -0.41318219188E+02  0.24546427440E+03  0.00000000000E+00 0. -1.
<mgrwt>
<rscale>  3 0.51440573E+03</rscale>
<asrwt>0</asrwt>
<pdfrwt beam="1">  1        2 0.34095769E-01 0.51440573E+03</pdfrwt>
<pdfrwt beam="2">  1       -2 0.45922381E-01 0.51440573E+03</pdfrwt>
<totfact> 0.69647278E+02</totfact>
</mgrwt>
</event>
<event>
 4    0  0.1264838E-002  0.4606499E+03  0.7546771E-02  0.1024593E+00
          4   -1    0    0  502    0  0.00000000000E+00  0.00000000000E+00  0.21418598424E+03  0.21418598424E+03  0.00000000000E+00 0. -1.
         -4   -1    0    0    0  501 -0.00000000000E+00 -0.00000000000E+00 -0.24767999432E+03  0.24767999432E+03  0.00000000000E+00 0.  1.
         25    1    1    2    0    0  0.18010657485E+03 -0.11214363699E+03  0.46658034428E+01  0.24629523614E+03  0.12500000000E+03 0.  0.
         21    1    1    2  502  501 -0.18010657485E+03  0.11214363699E+03 -0.38159813520E+02  0.21557074242E+03  0.00000000000E+00 0. -1.
<mgrwt>
<rscale>  3 0.46064990E+03</rscale>
<asrwt>0</asrwt>
<pdfrwt beam="1">  1        4 0.32951690E-01 0.46064990E+03</pdfrwt>
<pdfrwt beam="2">  1       -4 0.38104614E-01 0.46064990E+03</pdfrwt>
<totfact> 0.11630725E+02</totfact>
</mgrwt>
</event>
<event>
 4    0  0.1264838E-002  0.5759363E+03  0.7546771E-02  0.9956628E-01
         -2   -1    0    0    0  501 -0.00000000000E+00  0.00000000000E+00  0.37743791900E+02  0.37743791900E+02  0.00000000000E+00 0. -1.
          2   -1    0    0  502    0  0.00000000000E+00 -0.00000000000E+00 -0.21970671569E+04  0.21970671569E+04  0.00000000000E+00 0.  1.
         25    1    1    2    0    0  0.20334947629E+03 -0.13623844579E+03 -0.64921690165E+03  0.70499610567E+03  0.12500000000E+03 0.  0.
         21    1    1    2  502  501 -0.20334947629E+03  0.13623844579E+03 -0.15101064634E+04  0.15298148432E+04  0.00000000000E+00 0.  1.
<mgrwt>
<rscale>  3 0.57593627E+03</rscale>
<asrwt>0</asrwt>
<pdfrwt beam="1">  1        2 0.33801031E+00 0.57593627E+03</pdfrwt>
<pdfrwt beam="2">  1       -2 0.58067376E-02 0.57593627E+03</pdfrwt>
<totfact> 0.88220414E+02</totfact>
</mgrwt>
</event>
<event>
 4    0  0.1264838E-002  0.5043105E+03  0.7546771E-02  0.1012660E+00
         -2   -1    0    0    0  501 -0.00000000000E+00  0.00000000000E+00  0.11786155952E+03  0.11786155952E+03  0.00000000000E+00 0. -1.
          2   -1    0    0  502    0  0.00000000000E+00 -0.00000000000E+00 -0.53946579671E+03  0.53946579671E+03  0.00000000000E+00 0.  1.
         25    1    1    2    0    0 -0.11441277324E+03 -0.20676673339E+03 -0.20690910081E+03  0.33805197931E+03  0.12500000000E+03 0.  0.
         21    1    1    2  502  501  0.11441277324E+03  0.20676673339E+03 -0.21469513638E+03  0.31927537691E+03  0.00000000000E+00 0.  1.
<mgrwt>
<rscale>  3 0.50431054E+03</rscale>
<asrwt>0</asrwt>
<pdfrwt beam="1">  1        2 0.82994738E-01 0.50431054E+03</pdfrwt>
<pdfrwt beam="2">  1       -2 0.18132548E-01 0.50431054E+03</pdfrwt>
<totfact> 0.14258417E+03</totfact>
</mgrwt>
</event>
<event>
 4    0  0.1264838E-002  0.5042604E+03  0.7546771E-02  0.1012673E+00
         -2   -1    0    0    0  501 -0.00000000000E+00  0.00000000000E+00  0.15093293041E+02  0.15093293041E+02  0.00000000000E+00 0. -1.
          2   -1    0    0  502    0  0.00000000000E+00 -0.00000000000E+00 -0.42117802292E+04  0.42117802292E+04  0.00000000000E+00 0.  1.
         25    1    1    2    0    0  0.20799657474E+03 -0.65451416676E+02 -0.29978509768E+04  0.30083686513E+04  0.12500000000E+03 0.  0.
         21    1    1    2  502  501 -0.20799657474E+03  0.65451416676E+02 -0.11988359593E+04  0.12185048709E+04  0.00000000000E+00 0. -1.
<mgrwt>
<rscale>  3 0.50426038E+03</rscale>
<asrwt>0</asrwt>
<pdfrwt beam="1">  1        2 0.64796689E+00 0.50426038E+03</pdfrwt>
<pdfrwt beam="2">  1       -2 0.23220426E-02 0.50426038E+03</pdfrwt>
<totfact> 0.17641353E+02</totfact>
</mgrwt>
</event>
<event>
 4    0  0.1264838E-002  0.8312363E+03  0.7546771E-02  0.9515873E-01
          2   -1    0    0  502    0  0.00000000000E+00  0.00000000000E+00  0.30131977083E+03  0.30131977083E+03  0.00000000000E+00 0. -1.
         -2   -1    0    0    0  501 -0.00000000000E+00 -0.00000000000E+00 -0.57327283368E+03  0.57327283368E+03  0.00000000000E+00 0.  1.
         25    1    1    2    0    0 -0.28925681356E+03 -0.15947648301E+03  0.10973910380E+03  0.36982417948E+03  0.12500000000E+03 0.  0.
         21    1    1    2  502  501  0.28925681356E+03  0.15947648301E+03 -0.38169216666E+03  0.50476842503E+03  0.00000000000E+00 0.  1.
<mgrwt>
<rscale>  3 0.83123628E+03</rscale>
<asrwt>0</asrwt>
<pdfrwt beam="1">  1        2 0.46356888E-01 0.83123628E+03</pdfrwt>
<pdfrwt beam="2">  1       -2 0.88195820E-01 0.83123628E+03</pdfrwt>
<totfact> 0.12175038E+02</totfact>
</mgrwt>
</event>
<event>
 4    0  0.1264838E-002  0.4714033E+03  0.7546771E-02  0.1021525E+00
          1   -1    0    0  502    0  0.00000000000E+00  0.00000000000E+00  0.14395518403E+04  0.14395518403E+04  0.00000000000E+00 0. -1.
         -1   -1    0    0    0  501 -0.00000000000E+00 -0.00000000000E+00 -0.38592064591E+02  0.38592064591E+02  0.00000000000E+00 0.  1.
         25    1    1    2    0    0 -0.13770403909E+03 -0.15623164076E+03  0.96347804186E+03  0.99362249628E+03  0.12500000000E+03 0.  0.
         21    1    1    2  502  501  0.13770403909E+03  0.15623164076E+03  0.43748173385E+03  0.48452140861E+03  0.00000000000E+00 0. -1.
<mgrwt>
<rscale>  3 0.47140334E+03</rscale>
<asrwt>0</asrwt>
<pdfrwt beam="1">  1        1 0.22146947E+00 0.47140334E+03</pdfrwt>
<pdfrwt beam="2">  1       -1 0.59372418E-02 0.47140334E+03</pdfrwt>
<totfact> 0.10556134E+03</totfact>
</mgrwt>
</event>
<event>
 4    0  0.1264838E-002  0.4646909E+03  0.7546771E-02  0.1023429E+00
          2   -1    0    0  502    0  0.00000000000E+00  0.00000000000E+00  0.25038370625E+03  0.25038370625E+03  0.00000000000E+00 0.  1.
         -2   -1    0    0    0  501 -0.00000000000E+00 -0.00000000000E+00 -0.21560673427E+03  0.21560673427E+03  0.00000000000E+00 0. -1.
         25    1    1    2    0    0  0.65549009981E+01  0.21535823741E+03  0.12936228552E+02  0.24942831266E+03  0.12500000000E+03 0.  0.
         21    1    1    2  502  501 -0.65549009981E+01 -0.21535823741E+03  0.21840743424E+02  0.21656212786E+03  0.00000000000E+00 0. -1.
<mgrwt>
<rscale>  3 0.46469092E+03</rscale>
<asrwt>0</asrwt>
<pdfrwt beam="1">  1        2 0.38520570E-01 0.46469092E+03</pdfrwt>
<pdfrwt beam="2">  1       -2 0.33170267E-01 0.46469092E+03</pdfrwt>
<totfact> 0.11389463E+03</totfact>
</mgrwt>
</event>
<event>
 4    0  0.1264838E-002  0.4920218E+03  0.7546771E-02  0.1015883E+00
         -1   -1    0    0    0  501 -0.00000000000E+00  0.00000000000E+00  0.11643478585E+03  0.11643478585E+03  0.00000000000E+00 0.  1.
          1   -1    0    0  502    0  0.00000000000E+00 -0.00000000000E+00 -0.51978768003E+03  0.51978768003E+03  0.00000000000E+00 0. -1.
         25    1    1    2    0    0  0.20476539772E+03  0.80639903875E+02 -0.12766882300E+03  0.28347132230E+03  0.12500000000E+03 0.  0.
         21    1    1    2  502  501 -0.20476539772E+03 -0.80639903875E+02 -0.27568407118E+03  0.35275114359E+03  0.00000000000E+00 0. -1.
<mgrwt>
<rscale>  3 0.49202182E+03</rscale>
<asrwt>0</asrwt>
<pdfrwt beam="1">  1        1 0.79967335E-01 0.49202182E+03</pdfrwt>
<pdfrwt beam="2">  1       -1 0.17913044E-01 0.49202182E+03</pdfrwt>
<totfact> 0.10358347E+03</totfact>
</mgrwt>
</event>
<event>
 4    0  0.1264838E-002  0.4895770E+03  0.7546771E-02  0.1016536E+00
         -1   -1    0    0    0  501 -0.00000000000E+00  0.00000000000E+00  0.56918592892E+02  0.56918592892E+02  0.00000000000E+00 0.  1.
          1   -1    0    0  502    0  0.00000000000E+00 -0.00000000000E+00 -0.10527564738E+04  0.10527564738E+04  0.00000000000E+00 0. -1.
         25    1    1    2    0    0  0.52898556951E+01 -0.21991815374E+03 -0.38753575216E+03  0.46281846994E+03  0.12500000000E+03 0.  0.
         21    1    1    2  502  501 -0.52898556951E+01  0.21991815374E+03 -0.60830212871E+03  0.64685659671E+03  0.00000000000E+00 0. -1.
<mgrwt>
<rscale>  3 0.48957703E+03</rscale>
<asrwt>0</asrwt>
<pdfrwt beam="1">  1        1 0.16196252E+00 0.48957703E+03</pdfrwt>
<pdfrwt beam="2">  1       -1 0.87567074E-02 0.48957703E+03</pdfrwt>
<totfact> 0.10881745E+03</totfact>
</mgrwt>
</event>
<event>
 4    0  0.1264838E-002  0.5198956E+03  0.7546771E-02  0.1008712E+00
          1   -1    0    0  502    0  0.00000000000E+00  0.00000000000E+00  0.40511646431E+02  0.40511646431E+02  0.00000000000E+00 0. -1.
         -1   -1    0    0    0  501 -0.00000000000E+00 -0.00000000000E+00 -0.16679857767E+04  0.16679857767E+04  0.00000000000E+00 0.  1.
         25    1    1    2    0    0 -0.18492324073E+03 -0.15507569938E+03 -0.99789989534E+03  0.10342505879E+04  0.12500000000E+03 0.  0.
         21    1    1    2  502  501  0.18492324073E+03  0.15507569938E+03 -0.62957423489E+03  0.67424683517E+03  0.00000000000E+00 0.  1.
<mgrwt>
<rscale>  3 0.51989557E+03</rscale>
<asrwt>0</asrwt>
<pdfrwt beam="1">  1        1 0.62325630E-02 0.51989557E+03</pdfrwt>
<pdfrwt beam="2">  1       -1 0.25661312E+00 0.51989557E+03</pdfrwt>
<totfact> 0.86105065E+01</totfact>
</mgrwt>
</event>
<event>
 4    0  0.1264838E-002  0.6130116E+03  0.7546771E-02  0.9878773E-01
          2   -1    0    0  502    0  0.00000000000E+00  0.00000000000E+00  0.29282367854E+03  0.29282367854E+03  0.00000000000E+00 0.  1.
         -2   -1    0    0    0  501 -0.00000000000E+00 -0.00000000000E+00 -0.32082717022E+03  0.32082717022E+03  0.00000000000E+00 0. -1.
         25    1    1    2    0    0 -0.12043267737E+03 -0.19519237667E+03  0.16916025668E+03  0.31119814608E+03  0.12500000000E+03 0.  0.
         21    1    1    2  502  501  0.12043267737E+03  0.19519237667E+03 -0.19716374836E+03  0.30245270267E+03  0.00000000000E+00 0. -1.
<mgrwt>
<rscale>  3 0.61301156E+03</rscale>
<asrwt>0</asrwt>
<pdfrwt beam="1">  1        2 0.45049796E-01 0.61301156E+03</pdfrwt>
<pdfrwt beam="2">  1       -2 0.49358027E-01 0.61301156E+03</pdfrwt>
<totfact> 0.44220234E+02</totfact>
</mgrwt>
</event>
<event>
 4    0  0.1264838E-002  0.5627997E+03  0.7546771E-02  0.9985740E-01
         -1   -1    0    0    0  501 -0.00000000000E+00  0.00000000000E+00  0.29207043299E+03  0.29207043299E+03  0.00000000000E+00 0.  1.
          1   -1    0    0  502    0  0.00000000000E+00 -0.00000000000E+00 -0.27111913108E+03  0.27111913108E+03  0.00000000000E+00 0. -1.
         25    1    1    2    0    0 -0.41233871357E+02  0.23995999391E+03  0.12190712291E+03  0.29961204488E+03  0.12500000000E+03 0.  0.
         21    1    1    2  502  501  0.41233871357E+02 -0.23995999391E+03 -0.10095582100E+03  0.26357751918E+03  0.00000000000E+00 0. -1.
<mgrwt>
<rscale>  3 0.56279972E+03</rscale>
<asrwt>0</asrwt>
<pdfrwt beam="1">  1        1 0.41710635E-01 0.56279972E+03</pdfrwt>
<pdfrwt beam="2">  1       -1 0.44933913E-01 0.56279972E+03</pdfrwt>
<totfact> 0.49690065E+02</totfact>
</mgrwt>
</event>
<event>
 4    0  0.1264838E-002  0.6227243E+03  0.7546771E-02  0.9859351E-01
         -1   -1    0    0    0  501 -0.00000000000E+00  0.00000000000E+00  0.70399251426E+02  0.70399251426E+02  0.00000000000E+00 0.  1.
          1   -1    0    0  502    0  0.00000000000E+00 -0.00000000000E+00 -0.13770940889E+04  0.13770940889E+04  0.00000000000E+00 0. -1.
         25    1    1    2    0    0 -0.90502765689E+02 -0.23334855538E+03 -0.10591284002E+04  0.10954543655E+04  0.12500000000E+03 0.  0.
         21    1    1    2  502  501  0.90502765689E+02  0.23334855538E+03 -0.24756643726E+03  0.35203897476E+03  0.00000000000E+00 0.  1.
<mgrwt>
<rscale>  3 0.62272431E+03</rscale>
<asrwt>0</asrwt>
<pdfrwt beam="1">  1        1 0.21186062E+00 0.62272431E+03</pdfrwt>
<pdfrwt beam="2">  1       -1 0.10830654E-01 0.62272431E+03</pdfrwt>
<totfact> 0.45316037E+02</totfact>
</mgrwt>
</event>
<event>
 4    0  0.1264838E-002  0.7440617E+03  0.7546771E-02  0.9644713E-01
          1   -1    0    0  502    0  0.00000000000E+00  0.00000000000E+00  0.13383408751E+04  0.13383408751E+04  0.00000000000E+00 0. -1.
         -1   -1    0    0    0  501 -0.00000000000E+00 -0.00000000000E+00 -0.10341680828E+03  0.10341680828E+03  0.00000000000E+00 0.  1.
         25    1    1    2    0    0 -0.33490228224E+02  0.32917771543E+03  0.35259019637E+03  0.49942407861E+03  0.12500000000E+03 0.  0.
         21    1    1    2  502  501  0.33490228224E+02 -0.32917771543E+03  0.88233387044E+03  0.94233360475E+03  0.00000000000E+00 0. -1.
<mgrwt>
<rscale>  3 0.74406167E+03</rscale>
<asrwt>0</asrwt>
<pdfrwt beam="1">  1        1 0.20589858E+00 0.74406167E+03</pdfrwt>
<pdfrwt beam="2">  1       -1 0.15910279E-01 0.74406167E+03</pdfrwt>
<totfact> 0.25775938E+02</totfact>
</mgrwt>
</event>
<event>
 4    0  0.1264838E-002  0.6052058E+03  0.7546771E-02  0.9894664E-01
         -1   -1    0    0    0  501 -0.00000000000E+00  0.00000000000E+00  0.32703249380E+02  0.32703249380E+02  0.00000000000E+00 0.  1.
          1   -1    0    0  502    0  0.00000000000E+00 -0.00000000000E+00 -0.27999824621E+04  0.27999824621E+04  0.00000000000E+00 0. -1.
         25    1    1    2    0    0 -0.17733918968E+03  0.10354340793E+03 -0.23990550162E+04  0.24110703839E+04  0.12500000000E+03 0.  0.
         21    1    1    2  502  501  0.17733918968E+03 -0.10354340793E+03 -0.36822419655E+03  0.42161532758E+03  0.00000000000E+00 0.  1.
<mgrwt>
<rscale>  3 0.60520583E+03</rscale>
<asrwt>0</asrwt>
<pdfrwt beam="1">  1        1 0.43076661E+00 0.60520583E+03</pdfrwt>
<pdfrwt beam="2">  1       -1 0.50312682E-02 0.60520583E+03</pdfrwt>
<totfact> 0.16377354E+02</totfact>
</mgrwt>
</event>
<event>
 4    0  0.1605166E-002  0.5935779E+03  0.7546771E-02  0.9918820E-01
         -2   -1    0    0    0  501 -0.00000000000E+00  0.00000000000E+00  0.77096641938E+02  0.77096641938E+02  0.00000000000E+00 0.  1.
          2   -1    0    0  502    0  0.00000000000E+00 -0.00000000000E+00 -0.11425097705E+04  0.11425097705E+04  0.00000000000E+00 0. -1.
         25    1    1    2    0    0 -0.15353799974E+03 -0.13624172005E+03 -0.15417821298E+03  0.28553746690E+03  0.12500000000E+03 0.  0.
         21    1    1    2  502  501  0.15353799974E+03  0.13624172005E+03 -0.91123491560E+03  0.93406894556E+03  0.00000000000E+00 0. -1.
<mgrwt>
<rscale>  3 0.59357785E+03</rscale>
<asrwt>0</asrwt>
<pdfrwt beam="1">  1        2 0.17577073E+00 0.59357785E+03</pdfrwt>
<pdfrwt beam="2">  1       -2 0.11861022E-01 0.59357785E+03</pdfrwt>
<totfact> 0.10757787E+03</totfact>
</mgrwt>
</event>
<event>
 4    0  0.1264838E-002  0.5626647E+03  0.7546771E-02  0.9986043E-01
          2   -1    0    0  502    0  0.00000000000E+00  0.00000000000E+00  0.88988842252E+03  0.88988842252E+03  0.00000000000E+00 0. -1.
         -2   -1    0    0    0  501 -0.00000000000E+00 -0.00000000000E+00 -0.88941356758E+02  0.88941356758E+02  0.00000000000E+00 0.  1.
         25    1    1    2    0    0 -0.33913827672E+02 -0.23147682839E+03  0.64569710445E+03  0.69805545660E+03  0.12500000000E+03 0.  0.
         21    1    1    2  502  501  0.33913827672E+02  0.23147682839E+03  0.15524996132E+03  0.28077432268E+03  0.00000000000E+00 0.  1.
<mgrwt>
<rscale>  3 0.56266467E+03</rscale>
<asrwt>0</asrwt>
<pdfrwt beam="1">  1        2 0.13690591E+00 0.56266467E+03</pdfrwt>
<pdfrwt beam="2">  1       -2 0.13683286E-01 0.56266467E+03</pdfrwt>
<totfact> 0.12256472E+03</totfact>
</mgrwt>
</event>
<event>
 4    0  0.1264838E-002  0.4370106E+03  0.7546771E-02  0.1031668E+00
         -1   -1    0    0    0  501 -0.00000000000E+00  0.00000000000E+00  0.43205697841E+02  0.43205697841E+02  0.00000000000E+00 0.  1.
          1   -1    0    0  502    0  0.00000000000E+00 -0.00000000000E+00 -0.11050526318E+04  0.11050526318E+04  0.00000000000E+00 0. -1.
         25    1    1    2    0    0 -0.96627921404E+02 -0.17578477125E+03 -0.58433940836E+03  0.63032910861E+03  0.12500000000E+03 0.  0.
         21    1    1    2  502  501  0.96627921404E+02  0.17578477125E+03 -0.47750752564E+03  0.51792922107E+03  0.00000000000E+00 0.  1.
<mgrwt>
<rscale>  3 0.43701062E+03</rscale>
<asrwt>0</asrwt>
<pdfrwt beam="1">  1        1 0.17000808E+00 0.43701062E+03</pdfrwt>
<pdfrwt beam="2">  1       -1 0.66470311E-02 0.43701062E+03</pdfrwt>
<totfact> 0.15268329E+03</totfact>
</mgrwt>
</event>
<event>
 4    0  0.1264838E-002  0.6499007E+03  0.7546771E-02  0.9806966E-01
         -1   -1    0    0    0  501 -0.00000000000E+00  0.00000000000E+00  0.77312164394E+02  0.77312164394E+02  0.00000000000E+00 0. -1.
          1   -1    0    0  502    0  0.00000000000E+00 -0.00000000000E+00 -0.13657969385E+04  0.13657969385E+04  0.00000000000E+00 0.  1.
         25    1    1    2    0    0  0.11556930866E+03 -0.20960582755E+03 -0.11156815160E+04  0.11478942082E+04  0.12500000000E+03 0.  0.
         21    1    1    2  502  501 -0.11556930866E+03  0.20960582755E+03 -0.17280325811E+03  0.29521489471E+03  0.00000000000E+00 0. -1.
<mgrwt>
<rscale>  3 0.64990066E+03</rscale>
<asrwt>0</asrwt>
<pdfrwt beam="1">  1        1 0.21012258E+00 0.64990066E+03</pdfrwt>
<pdfrwt beam="2">  1       -1 0.11894181E-01 0.64990066E+03</pdfrwt>
<totfact> 0.39686364E+02</totfact>
</mgrwt>
</event>
<event>
 4    0  0.1264838E-002  0.4679667E+03  0.7546771E-02  0.1022496E+00
         -2   -1    0    0    0  501 -0.00000000000E+00  0.00000000000E+00  0.29486681462E+02  0.29486681462E+02  0.00000000000E+00 0.  1.
          2   -1    0    0  502    0  0.00000000000E+00 -0.00000000000E+00 -0.18567094860E+04  0.18567094860E+04  0.00000000000E+00 0. -1.
         25    1    1    2    0    0 -0.19856419808E+03  0.53578596523E+02 -0.69619320331E+03  0.73661956470E+03  0.12500000000E+03 0.  0.
         21    1    1    2  502  501  0.19856419808E+03 -0.53578596523E+02 -0.11310296012E+04  0.11495766028E+04  0.00000000000E+00 0.  1.
<mgrwt>
<rscale>  3 0.46796667E+03</rscale>
<asrwt>0</asrwt>
<pdfrwt beam="1">  1        2 0.28564767E+00 0.46796667E+03</pdfrwt>
<pdfrwt beam="2">  1       -2 0.45364116E-02 0.46796667E+03</pdfrwt>
<totfact> 0.19876264E+03</totfact>
</mgrwt>
</event>
<event>
 4    0  0.1264838E-002  0.5581146E+03  0.7546771E-02  0.9996330E-01
          2   -1    0    0  502    0  0.00000000000E+00  0.00000000000E+00  0.48805946838E+03  0.48805946838E+03  0.00000000000E+00 0.  1.
         -2   -1    0    0    0  501 -0.00000000000E+00 -0.00000000000E+00 -0.15955635304E+03  0.15955635304E+03  0.00000000000E+00 0. -1.
         25    1    1    2    0    0  0.13788980887E+03 -0.21395043031E+03  0.86686192693E+02  0.29652635974E+03  0.12500000000E+03 0.  0.
         21    1    1    2  502  501 -0.13788980887E+03  0.21395043031E+03  0.24181692265E+03  0.35108946168E+03  0.00000000000E+00 0.  1.
<mgrwt>
<rscale>  3 0.55811464E+03</rscale>
<asrwt>0</asrwt>
<pdfrwt beam="1">  1        2 0.75086072E-01 0.55811464E+03</pdfrwt>
<pdfrwt beam="2">  1       -2 0.24547131E-01 0.55811464E+03</pdfrwt>
<totfact> 0.94147431E+02</totfact>
</mgrwt>
</event>
<event>
 4    0  0.1264838E-002  0.5538375E+03  0.7546771E-02  0.1000610E+00
          2   -1    0    0  502    0  0.00000000000E+00  0.00000000000E+00  0.79520956778E+02  0.79520956778E+02  0.00000000000E+00 0.  1.
         -2   -1    0    0    0  501 -0.00000000000E+00 -0.00000000000E+00 -0.96432443983E+03  0.96432443983E+03  0.00000000000E+00 0. -1.
         25    1    1    2    0    0  0.24470642647E+03 -0.36109017353E+02 -0.63230276724E+03  0.69037445329E+03  0.12500000000E+03 0.  0.
         21    1    1    2  502  501 -0.24470642647E+03  0.36109017353E+02 -0.25250071581E+03  0.35347094332E+03  0.00000000000E+00 0. -1.
<mgrwt>
<rscale>  3 0.55383753E+03</rscale>
<asrwt>0</asrwt>
<pdfrwt beam="1">  1        2 0.12233994E-01 0.55383753E+03</pdfrwt>
<pdfrwt beam="2">  1       -2 0.14835760E+00 0.55383753E+03</pdfrwt>
<totfact> 0.16177000E+02</totfact>
</mgrwt>
</event>
<event>
 4    0  0.1264838E-002  0.4878861E+03  0.7546771E-02  0.1016990E+00
         -2   -1    0    0    0  501 -0.00000000000E+00  0.00000000000E+00  0.13108771734E+03  0.13108771734E+03  0.00000000000E+00 0.  1.
          2   -1    0    0  502    0  0.00000000000E+00 -0.00000000000E+00 -0.45395727657E+03  0.45395727657E+03  0.00000000000E+00 0. -1.
         25    1    1    2    0    0 -0.16604346964E+03  0.13184579202E+03 -0.27234763874E+03  0.36708579789E+03  0.12500000000E+03 0.  0.
         21    1    1    2  502  501  0.16604346964E+03 -0.13184579202E+03 -0.50521920491E+02  0.21795919603E+03  0.00000000000E+00 0.  1.
<mgrwt>
<rscale>  3 0.48788615E+03</rscale>
<asrwt>0</asrwt>
<pdfrwt beam="1">  1        2 0.69839582E-01 0.48788615E+03</pdfrwt>
<pdfrwt beam="2">  1       -2 0.20167341E-01 0.48788615E+03</pdfrwt>
<totfact> 0.14457301E+03</totfact>
</mgrwt>
</event>
<event>
 4    0  0.1264838E-002  0.4772541E+03  0.7546771E-02  0.1019893E+00
          2   -1    0    0  502    0  0.00000000000E+00  0.00000000000E+00  0.14846987631E+04  0.14846987631E+04  0.00000000000E+00 0.  1.
         -2   -1    0    0    0  501 -0.00000000000E+00 -0.00000000000E+00 -0.38353140186E+02  0.38353140186E+02  0.00000000000E+00 0. -1.
         25    1    1    2    0    0  0.13146397699E+03  0.16030206680E+03  0.10284592103E+04  0.10565665512E+04  0.12500000000E+03 0.  0.
         21    1    1    2  502  501 -0.13146397699E+03 -0.16030206680E+03  0.41788641264E+03  0.46648535211E+03  0.00000000000E+00 0. -1.
<mgrwt>
<rscale>  3 0.47725406E+03</rscale>
<asrwt>0</asrwt>
<pdfrwt beam="1">  1        2 0.22841515E+00 0.47725406E+03</pdfrwt>
<pdfrwt beam="2">  1       -2 0.59004842E-02 0.47725406E+03</pdfrwt>
<totfact> 0.21022247E+03</totfact>
</mgrwt>
</event>
<event>
 4    0  0.1264838E-002  0.7273470E+03  0.7546771E-02  0.9671575E-01
         -2   -1    0    0    0  501 -0.00000000000E+00  0.00000000000E+00  0.10260325616E+03  0.10260325616E+03  0.00000000000E+00 0.  1.
          2   -1    0    0  502    0  0.00000000000E+00 -0.00000000000E+00 -0.12890274132E+04  0.12890274132E+04  0.00000000000E+00 0. -1.
         25    1    1    2    0    0  0.10219004551E+03  0.33779180523E+03 -0.60328010353E+03  0.71001267059E+03  0.12500000000E+03 0.  0.
         21    1    1    2  502  501 -0.10219004551E+03 -0.33779180523E+03 -0.58314405349E+03  0.68161799874E+03  0.00000000000E+00 0.  1.
<mgrwt>
<rscale>  3 0.72734699E+03</rscale>
<asrwt>0</asrwt>
<pdfrwt beam="1">  1        2 0.19831191E+00 0.72734699E+03</pdfrwt>
<pdfrwt beam="2">  1       -2 0.15785116E-01 0.72734699E+03</pdfrwt>
<totfact> 0.54433133E+02</totfact>
</mgrwt>
</event>
<event>
 4    0  0.1264838E-002  0.4861114E+03  0.7546771E-02  0.1017469E+00
         -2   -1    0    0    0  501 -0.00000000000E+00  0.00000000000E+00  0.29903582439E+02  0.29903582439E+02  0.00000000000E+00 0. -1.
          2   -1    0    0  502    0  0.00000000000E+00 -0.00000000000E+00 -0.19755516650E+04  0.19755516650E+04  0.00000000000E+00 0.  1.
         25    1    1    2    0    0 -0.88286594195E+02 -0.18834896052E+03 -0.14119127432E+04  0.14326173418E+04  0.12500000000E+03 0.  0.
         21    1    1    2  502  501  0.88286594195E+02  0.18834896052E+03 -0.53373533937E+03  0.57283790564E+03  0.00000000000E+00 0. -1.
<mgrwt>
<rscale>  3 0.48611139E+03</rscale>
<asrwt>0</asrwt>
<pdfrwt beam="1">  1        2 0.30393110E+00 0.48611139E+03</pdfrwt>
<pdfrwt beam="2">  1       -2 0.46005499E-02 0.48611139E+03</pdfrwt>
<totfact> 0.16780300E+03</totfact>
</mgrwt>
</event>
<event>
 4    0  0.1264838E-002  0.4469527E+03  0.7546771E-02  0.1028635E+00
         -2   -1    0    0    0  501 -0.00000000000E+00  0.00000000000E+00  0.44098194100E+02  0.44098194100E+02  0.00000000000E+00 0.  1.
          2   -1    0    0  502    0  0.00000000000E+00 -0.00000000000E+00 -0.11325106288E+04  0.11325106288E+04  0.00000000000E+00 0. -1.
         25    1    1    2    0    0  0.15129626967E+03 -0.13782064010E+03 -0.52505564940E+03  0.57722917894E+03  0.12500000000E+03 0.  0.
         21    1    1    2  502  501 -0.15129626967E+03  0.13782064010E+03 -0.56335678533E+03  0.59937964399E+03  0.00000000000E+00 0.  1.
<mgrwt>
<rscale>  3 0.44695268E+03</rscale>
<asrwt>0</asrwt>
<pdfrwt beam="1">  1        2 0.17423241E+00 0.44695268E+03</pdfrwt>
<pdfrwt beam="2">  1       -2 0.67843374E-02 0.44695268E+03</pdfrwt>
<totfact> 0.26789219E+03</totfact>
</mgrwt>
</event>
<event>
 4    0  0.1264838E-002  0.5180846E+03  0.7546771E-02  0.1009163E+00
          1   -1    0    0  502    0  0.00000000000E+00  0.00000000000E+00  0.39048916349E+03  0.39048916349E+03  0.00000000000E+00 0. -1.
         -1   -1    0    0    0  501 -0.00000000000E+00 -0.00000000000E+00 -0.17184322151E+03  0.17184322151E+03  0.00000000000E+00 0.  1.
         25    1    1    2    0    0  0.18712532566E+03  0.12867756645E+03  0.18945609898E+02  0.25991871758E+03  0.12500000000E+03 0.  0.
         21    1    1    2  502  501 -0.18712532566E+03 -0.12867756645E+03  0.19970033208E+03  0.30241366743E+03  0.00000000000E+00 0. -1.
<mgrwt>
<rscale>  3 0.51808461E+03</rscale>
<asrwt>0</asrwt>
<pdfrwt beam="1">  1        1 0.60075256E-01 0.51808461E+03</pdfrwt>
<pdfrwt beam="2">  1       -1 0.26437419E-01 0.51808461E+03</pdfrwt>
<totfact> 0.79266869E+02</totfact>
</mgrwt>
</event>
<event>
 4    0  0.1264838E-002  0.7133702E+03  0.7546771E-02  0.9694637E-01
         -2   -1    0    0    0  501 -0.00000000000E+00  0.00000000000E+00  0.87801055432E+02  0.87801055432E+02  0.00000000000E+00 0.  1.
          2   -1    0    0  502    0  0.00000000000E+00 -0.00000000000E+00 -0.14490060353E+04  0.14490060353E+04  0.00000000000E+00 0. -1.
         25    1    1    2    0    0  0.31557114769E+03 -0.12959551929E+03 -0.82243846151E+03  0.89911632776E+03  0.12500000000E+03 0.  0.
         21    1    1    2  502  501 -0.31557114769E+03  0.12959551929E+03 -0.53876651833E+03  0.63769076294E+03  0.00000000000E+00 0.  1.
<mgrwt>
<rscale>  3 0.71337020E+03</rscale>
<asrwt>0</asrwt>
<pdfrwt beam="1">  1        2 0.22292400E+00 0.71337020E+03</pdfrwt>
<pdfrwt beam="2">  1       -2 0.13507855E-01 0.71337020E+03</pdfrwt>
<totfact> 0.57458946E+02</totfact>
</mgrwt>
</event>
<event>
 4    0  0.1530330E-002  0.6972143E+03  0.7546771E-02  0.9722008E-01
          2   -1    0    0  502    0  0.00000000000E+00  0.00000000000E+00  0.13160186107E+04  0.13160186107E+04  0.00000000000E+00 0.  1.
         -2   -1    0    0    0  501 -0.00000000000E+00 -0.00000000000E+00 -0.92344409694E+02  0.92344409694E+02  0.00000000000E+00 0. -1.
         25    1    1    2    0    0  0.83552005246E+02 -0.20507087762E+03  0.11727910122E+03  0.28002569527E+03  0.12500000000E+03 0.  0.
         21    1    1    2  502  501 -0.83552005246E+02  0.20507087762E+03  0.11063950997E+04  0.11283373251E+04  0.00000000000E+00 0.  1.
<mgrwt>
<rscale>  3 0.69721435E+03</rscale>
<asrwt>0</asrwt>
<pdfrwt beam="1">  1        2 0.20246439E+00 0.69721435E+03</pdfrwt>
<pdfrwt beam="2">  1       -2 0.14206833E-01 0.69721435E+03</pdfrwt>
<totfact> 0.62844047E+02</totfact>
</mgrwt>
</event>
<event>
 4    0  0.1264838E-002  0.6313363E+03  0.7546771E-02  0.9842445E-01
          1   -1    0    0  502    0  0.00000000000E+00  0.00000000000E+00  0.11210672951E+04  0.11210672951E+04  0.00000000000E+00 0. -1.
         -1   -1    0    0    0  501 -0.00000000000E+00 -0.00000000000E+00 -0.88885270665E+02  0.88885270665E+02  0.00000000000E+00 0.  1.
         25    1    1    2    0    0 -0.10848435043E+02  0.30030223259E+03  0.45758544898E+03  0.56152343011E+03  0.12500000000E+03 0.  0.
         21    1    1    2  502  501  0.10848435043E+02 -0.30030223259E+03  0.57459657545E+03  0.64842913565E+03  0.00000000000E+00 0. -1.
<mgrwt>
<rscale>  3 0.63133627E+03</rscale>
<asrwt>0</asrwt>
<pdfrwt beam="1">  1        1 0.17247188E+00 0.63133627E+03</pdfrwt>
<pdfrwt beam="2">  1       -1 0.13674658E-01 0.63133627E+03</pdfrwt>
<totfact> 0.47501315E+02</totfact>
</mgrwt>
</event>
<event>
 4    0  0.1264838E-002  0.4815068E+03  0.7546771E-02  0.1018722E+00
         -1   -1    0    0    0  501 -0.00000000000E+00  0.00000000000E+00  0.30776871852E+02  0.30776871852E+02  0.00000000000E+00 0.  1.
          1   -1    0    0  502    0  0.00000000000E+00 -0.00000000000E+00 -0.18833034832E+04  0.18833034832E+04  0.00000000000E+00 0. -1.
         25    1    1    2    0    0 -0.20607036694E+03 -0.85353667794E+02 -0.10910201201E+04  0.11205802726E+04  0.12500000000E+03 0.  0.
         21    1    1    2  502  501  0.20607036694E+03  0.85353667794E+02 -0.76150649118E+03  0.79350008245E+03  0.00000000000E+00 0.  1.
<mgrwt>
<rscale>  3 0.48150676E+03</rscale>
<asrwt>0</asrwt>
<pdfrwt beam="1">  1        1 0.28973899E+00 0.48150676E+03</pdfrwt>
<pdfrwt beam="2">  1       -1 0.47349034E-02 0.48150676E+03</pdfrwt>
<totfact> 0.75320201E+02</totfact>
</mgrwt>
</event>
<event>
 4    0  0.1264838E-002  0.5566620E+03  0.7546771E-02  0.9999636E-01
          2   -1    0    0  502    0  0.00000000000E+00  0.00000000000E+00  0.13766168363E+04  0.13766168363E+04  0.00000000000E+00 0. -1.
         -2   -1    0    0    0  501 -0.00000000000E+00 -0.00000000000E+00 -0.56274289994E+02  0.56274289994E+02  0.00000000000E+00 0.  1.
         25    1    1    2    0    0 -0.17900253389E+03 -0.15337956243E+03  0.38580191061E+03  0.46907921670E+03  0.12500000000E+03 0.  0.
         21    1    1    2  502  501  0.17900253389E+03  0.15337956243E+03  0.93454063573E+03  0.96381190963E+03  0.00000000000E+00 0. -1.
<mgrwt>
<rscale>  3 0.55666196E+03</rscale>
<asrwt>0</asrwt>
<pdfrwt beam="1">  1        2 0.21178718E+00 0.55666196E+03</pdfrwt>
<pdfrwt beam="2">  1       -2 0.86575841E-02 0.55666196E+03</pdfrwt>
<totfact> 0.13146669E+03</totfact>
</mgrwt>
</event>
<event>
 4    0  0.1264838E-002  0.5215004E+03  0.7546771E-02  0.1008315E+00
          2   -1    0    0  502    0  0.00000000000E+00  0.00000000000E+00  0.20930201379E+03  0.20930201379E+03  0.00000000000E+00 0.  1.
         -2   -1    0    0    0  501 -0.00000000000E+00 -0.00000000000E+00 -0.32484482658E+03  0.32484482658E+03  0.00000000000E+00 0. -1.
         25    1    1    2    0    0 -0.11515744309E+03  0.21049697872E+03 -0.65797718721E+01  0.27062614092E+03  0.12500000000E+03 0.  0.
         21    1    1    2  502  501  0.11515744309E+03 -0.21049697872E+03 -0.10896304092E+03  0.26352069945E+03  0.00000000000E+00 0. -1.
<mgrwt>
<rscale>  3 0.52150044E+03</rscale>
<asrwt>0</asrwt>
<pdfrwt beam="1">  1        2 0.32200310E-01 0.52150044E+03</pdfrwt>
<pdfrwt beam="2">  1       -2 0.49976127E-01 0.52150044E+03</pdfrwt>
<totfact> 0.62642579E+02</totfact>
</mgrwt>
</event>
<event>
 4    0  0.1264838E-002  0.5123338E+03  0.7546771E-02  0.1010609E+00
          2   -1    0    0  502    0  0.00000000000E+00  0.00000000000E+00  0.19188951835E+03  0.19188951835E+03  0.00000000000E+00 0.  1.
         -2   -1    0    0    0  501 -0.00000000000E+00 -0.00000000000E+00 -0.34197534454E+03  0.34197534454E+03  0.00000000000E+00 0. -1.
         25    1    1    2    0    0 -0.14477526983E+03  0.18846223325E+03 -0.38305569203E+02  0.27123828776E+03  0.12500000000E+03 0.  0.
         21    1    1    2  502  501  0.14477526983E+03 -0.18846223325E+03 -0.11178025699E+03  0.26262657513E+03  0.00000000000E+00 0. -1.
<mgrwt>
<rscale>  3 0.51233381E+03</rscale>
<asrwt>0</asrwt>
<pdfrwt beam="1">  1        2 0.29521464E-01 0.51233381E+03</pdfrwt>
<pdfrwt beam="2">  1       -2 0.52611592E-01 0.51233381E+03</pdfrwt>
<totfact> 0.62191327E+02</totfact>
</mgrwt>
</event>
<event>
 4    0  0.1264838E-002  0.4942415E+03  0.7546771E-02  0.1015293E+00
          1   -1    0    0  502    0  0.00000000000E+00  0.00000000000E+00  0.60317144687E+03  0.60317144687E+03  0.00000000000E+00 0. -1.
         -1   -1    0    0    0  501 -0.00000000000E+00 -0.00000000000E+00 -0.10124596585E+03  0.10124596585E+03  0.00000000000E+00 0.  1.
         25    1    1    2    0    0  0.21860179060E+03 -0.33790148348E+02  0.17058690191E+03  0.30602844325E+03  0.12500000000E+03 0.  0.
         21    1    1    2  502  501 -0.21860179060E+03  0.33790148348E+02  0.33133857912E+03  0.39838896946E+03  0.00000000000E+00 0. -1.
<mgrwt>
<rscale>  3 0.49424154E+03</rscale>
<asrwt>0</asrwt>
<pdfrwt beam="1">  1        1 0.92795605E-01 0.49424154E+03</pdfrwt>
<pdfrwt beam="2">  1       -1 0.15576303E-01 0.49424154E+03</pdfrwt>
<totfact> 0.10565359E+03</totfact>
</mgrwt>
</event>
<event>
 4    0  0.1264838E-002  0.4956265E+03  0.7546771E-02  0.1014927E+00
          1   -1    0    0  502    0  0.00000000000E+00  0.00000000000E+00  0.73864683886E+03  0.73864683886E+03  0.00000000000E+00 0. -1.
         -1   -1    0    0    0  501 -0.00000000000E+00 -0.00000000000E+00 -0.83140410555E+02  0.83140410555E+02  0.00000000000E+00 0.  1.
         25    1    1    2    0    0 -0.21869137484E+03  0.76720705971E+02  0.32930828790E+03  0.42164076254E+03  0.12500000000E+03 0.  0.
         21    1    1    2  502  501  0.21869137484E+03 -0.76720705971E+02  0.32619814041E+03  0.40014648688E+03  0.00000000000E+00 0.  1.
<mgrwt>
<rscale>  3 0.49562648E+03</rscale>
<asrwt>0</asrwt>
<pdfrwt beam="1">  1        1 0.11363797E+00 0.49562648E+03</pdfrwt>
<pdfrwt beam="2">  1       -1 0.12790833E-01 0.49562648E+03</pdfrwt>
<totfact> 0.10763164E+03</totfact>
</mgrwt>
</event>
<event>
 4    0  0.1264838E-002  0.5474779E+03  0.7546771E-02  0.1002079E+00
         -2   -1    0    0    0  501 -0.00000000000E+00  0.00000000000E+00  0.14122033167E+04  0.14122033167E+04  0.00000000000E+00 0. -1.
          2   -1    0    0  502    0  0.00000000000E+00 -0.00000000000E+00 -0.53061067076E+02  0.53061067076E+02  0.00000000000E+00 0.  1.
         25    1    1    2    0    0  0.24479257057E+02 -0.24695256629E+03  0.91775625980E+03  0.95889851206E+03  0.12500000000E+03 0.  0.
         21    1    1    2  502  501 -0.24479257057E+02  0.24695256629E+03  0.44138598981E+03  0.50636587170E+03  0.00000000000E+00 0.  1.
<mgrwt>
<rscale>  3 0.54747791E+03</rscale>
<asrwt>0</asrwt>
<pdfrwt beam="1">  1        2 0.81632421E-02 0.54747791E+03</pdfrwt>
<pdfrwt beam="2">  1       -2 0.21726202E+00 0.54747791E+03</pdfrwt>
<totfact> 0.91668800E+01</totfact>
</mgrwt>
</event>
<event>
 4    0  0.1264838E-002  0.4887945E+03  0.7546771E-02  0.1016746E+00
          2   -1    0    0  502    0  0.00000000000E+00  0.00000000000E+00  0.19185039077E+04  0.19185039077E+04  0.00000000000E+00 0.  1.
         -2   -1    0    0    0  501 -0.00000000000E+00 -0.00000000000E+00 -0.31133641278E+02  0.31133641278E+02  0.00000000000E+00 0. -1.
         25    1    1    2    0    0 -0.13773061275E+03  0.18204924484E+03  0.10366362528E+04  0.10688083878E+04  0.12500000000E+03 0.  0.
         21    1    1    2  502  501  0.13773061275E+03 -0.18204924484E+03  0.85073401367E+03  0.88082916121E+03  0.00000000000E+00 0. -1.
<mgrwt>
<rscale>  3 0.48879449E+03</rscale>
<asrwt>0</asrwt>
<pdfrwt beam="1">  1        2 0.29515436E+00 0.48879449E+03</pdfrwt>
<pdfrwt beam="2">  1       -2 0.47897925E-02 0.48879449E+03</pdfrwt>
<totfact> 0.16920939E+03</totfact>
</mgrwt>
</event>
<event>
 4    0  0.1264838E-002  0.6184943E+03  0.7546771E-02  0.9867762E-01
          2   -1    0    0  502    0  0.00000000000E+00  0.00000000000E+00  0.11568156200E+04  0.11568156200E+04  0.00000000000E+00 0.  1.
         -2   -1    0    0    0  501 -0.00000000000E+00 -0.00000000000E+00 -0.82669865140E+02  0.82669865140E+02  0.00000000000E+00 0. -1.
         25    1    1    2    0    0 -0.15482111908E+03 -0.23569640369E+03  0.37469891411E+03  0.48533148452E+03  0.12500000000E+03 0.  0.
         21    1    1    2  502  501  0.15482111908E+03  0.23569640369E+03  0.69944684075E+03  0.75415400063E+03  0.00000000000E+00 0.  1.
<mgrwt>
<rscale>  3 0.61849427E+03</rscale>
<asrwt>0</asrwt>
<pdfrwt beam="1">  1        2 0.17797162E+00 0.61849427E+03</pdfrwt>
<pdfrwt beam="2">  1       -2 0.12718442E-01 0.61849427E+03</pdfrwt>
<totfact> 0.93924922E+02</totfact>
</mgrwt>
</event>
<event>
 4    0  0.1264838E-002  0.6198732E+03  0.7546771E-02  0.9865012E-01
          2   -1    0    0  502    0  0.00000000000E+00  0.00000000000E+00  0.17462580056E+04  0.17462580056E+04  0.00000000000E+00 0. -1.
         -2   -1    0    0    0  501 -0.00000000000E+00 -0.00000000000E+00 -0.55009445908E+02  0.55009445908E+02  0.00000000000E+00 0.  1.
         25    1    1    2    0    0 -0.24375106705E+03  0.86033107943E+02  0.45302939189E+03  0.53635520718E+03  0.12500000000E+03 0.  0.
         21    1    1    2  502  501  0.24375106705E+03 -0.86033107943E+02  0.12382191678E+04  0.12649122444E+04  0.00000000000E+00 0. -1.
<mgrwt>
<rscale>  3 0.61987317E+03</rscale>
<asrwt>0</asrwt>
<pdfrwt beam="1">  1        2 0.26865504E+00 0.61987317E+03</pdfrwt>
<pdfrwt beam="2">  1       -2 0.84629930E-02 0.61987317E+03</pdfrwt>
<totfact> 0.85145381E+02</totfact>
</mgrwt>
</event>
<event>
 4    0  0.1264838E-002  0.4619705E+03  0.7546771E-02  0.1024211E+00
          1   -1    0    0  502    0  0.00000000000E+00  0.00000000000E+00  0.30561909405E+02  0.30561909405E+02  0.00000000000E+00 0.  1.
         -1   -1    0    0    0  501 -0.00000000000E+00 -0.00000000000E+00 -0.17457740877E+04  0.17457740877E+04  0.00000000000E+00 0. -1.
         25    1    1    2    0    0  0.20923472444E+03  0.30848815021E+02 -0.10477408570E+04  0.10761583168E+04  0.12500000000E+03 0.  0.
         21    1    1    2  502  501 -0.20923472444E+03 -0.30848815021E+02 -0.66747132120E+03  0.70017768026E+03  0.00000000000E+00 0. -1.
<mgrwt>
<rscale>  3 0.46197052E+03</rscale>
<asrwt>0</asrwt>
<pdfrwt beam="1">  1        1 0.47018297E-02 0.46197052E+03</pdfrwt>
<pdfrwt beam="2">  1       -1 0.26858077E+00 0.46197052E+03</pdfrwt>
<totfact> 0.10797290E+02</totfact>
</mgrwt>
</event>
<event>
 4    0  0.1264838E-002  0.6011465E+03  0.7546771E-02  0.9903030E-01
          1   -1    0    0  502    0  0.00000000000E+00  0.00000000000E+00  0.21741560648E+03  0.21741560648E+03  0.00000000000E+00 0.  1.
         -1   -1    0    0    0  501 -0.00000000000E+00 -0.00000000000E+00 -0.41553721424E+03  0.41553721424E+03  0.00000000000E+00 0. -1.
         25    1    1    2    0    0  0.23787696934E+03  0.15585250502E+03 -0.58360965257E+02  0.31607982873E+03  0.12500000000E+03 0.  0.
         21    1    1    2  502  501 -0.23787696934E+03 -0.15585250502E+03 -0.13976064250E+03  0.31687299199E+03  0.00000000000E+00 0. -1.
<mgrwt>
<rscale>  3 0.60114649E+03</rscale>
<asrwt>0</asrwt>
<pdfrwt beam="1">  1        1 0.33448555E-01 0.60114649E+03</pdfrwt>
<pdfrwt beam="2">  1       -1 0.63928801E-01 0.60114649E+03</pdfrwt>
<totfact> 0.33575471E+02</totfact>
</mgrwt>
</event>
<event>
 4    0  0.1264838E-002  0.5061590E+03  0.7546771E-02  0.1012184E+00
         -1   -1    0    0    0  501 -0.00000000000E+00  0.00000000000E+00  0.74903084220E+02  0.74903084220E+02  0.00000000000E+00 0. -1.
          1   -1    0    0  502    0  0.00000000000E+00 -0.00000000000E+00 -0.85509464514E+03  0.85509464514E+03  0.00000000000E+00 0.  1.
         25    1    1    2    0    0 -0.95881199853E+02  0.20596873682E+03 -0.28581563888E+03  0.38591696576E+03  0.12500000000E+03 0.  0.
         21    1    1    2  502  501  0.95881199853E+02 -0.20596873682E+03 -0.49437592204E+03  0.54408076360E+03  0.00000000000E+00 0.  1.
<mgrwt>
<rscale>  3 0.50615897E+03</rscale>
<asrwt>0</asrwt>
<pdfrwt beam="1">  1        1 0.13155302E+00 0.50615897E+03</pdfrwt>
<pdfrwt beam="2">  1       -1 0.11523552E-01 0.50615897E+03</pdfrwt>
<totfact> 0.10090782E+03</totfact>
</mgrwt>
</event>
<event>
 4    0  0.1264838E-002  0.8480730E+03  0.7546771E-02  0.9492927E-01
          2   -1    0    0  502    0  0.00000000000E+00  0.00000000000E+00  0.82696987763E+03  0.82696987763E+03  0.00000000000E+00 0.  1.
         -2   -1    0    0    0  501 -0.00000000000E+00 -0.00000000000E+00 -0.21742865048E+03  0.21742865048E+03  0.00000000000E+00 0. -1.
         25    1    1    2    0    0 -0.39110974016E+02  0.40468158767E+03  0.20997101900E+03  0.47435185728E+03  0.12500000000E+03 0.  0.
         21    1    1    2  502  501  0.39110974016E+02 -0.40468158767E+03  0.39957020815E+03  0.57004667083E+03  0.00000000000E+00 0.  1.
<mgrwt>
<rscale>  3 0.84807298E+03</rscale>
<asrwt>0</asrwt>
<pdfrwt beam="1">  1        2 0.12722613E+00 0.84807298E+03</pdfrwt>
<pdfrwt beam="2">  1       -2 0.33450562E-01 0.84807298E+03</pdfrwt>
<totfact> 0.27610850E+02</totfact>
</mgrwt>
</event>
<event>
 4    0  0.1264838E-002  0.6318568E+03  0.7546771E-02  0.9841432E-01
         -2   -1    0    0    0  501 -0.00000000000E+00  0.00000000000E+00  0.21090125686E+03  0.21090125686E+03  0.00000000000E+00 0.  1.
          2   -1    0    0  502    0  0.00000000000E+00 -0.00000000000E+00 -0.47325829452E+03  0.47325829452E+03  0.00000000000E+00 0. -1.
         25    1    1    2    0    0  0.22483348791E+03 -0.17583011222E+03 -0.24388628221E+02  0.31254780568E+03  0.12500000000E+03 0.  0.
         21    1    1    2  502  501 -0.22483348791E+03  0.17583011222E+03 -0.23796840944E+03  0.37161174570E+03  0.00000000000E+00 0. -1.
<mgrwt>
<rscale>  3 0.63185685E+03</rscale>
<asrwt>0</asrwt>
<pdfrwt beam="1">  1        2 0.72808968E-01 0.63185685E+03</pdfrwt>
<pdfrwt beam="2">  1       -2 0.32446348E-01 0.63185685E+03</pdfrwt>
<totfact> 0.58454692E+02</totfact>
</mgrwt>
</event>
<event>
 4    0  0.1264838E-002  0.6152589E+03  0.7546771E-02  0.9874245E-01
         -1   -1    0    0    0  501 -0.00000000000E+00  0.00000000000E+00  0.61549921408E+02  0.61549921408E+02  0.00000000000E+00 0. -1.
          1   -1    0    0  502    0  0.00000000000E+00 -0.00000000000E+00 -0.15375468881E+04  0.15375468881E+04  0.00000000000E+00 0.  1.
         25    1    1    2    0    0  0.13700654362E+03  0.19648546947E+03 -0.12156753871E+04  0.12453389014E+04  0.12500000000E+03 0.  0.
         21    1    1    2  502  501 -0.13700654362E+03 -0.19648546947E+03 -0.26032157962E+03  0.35375790807E+03  0.00000000000E+00 0.  1.
<mgrwt>
<rscale>  3 0.61525894E+03</rscale>
<asrwt>0</asrwt>
<pdfrwt beam="1">  1        1 0.23654567E+00 0.61525894E+03</pdfrwt>
<pdfrwt beam="2">  1       -1 0.94692189E-02 0.61525894E+03</pdfrwt>
<totfact> 0.43522517E+02</totfact>
</mgrwt>
</event>
<event>
 4    0  0.1264838E-002  0.6023424E+03  0.7546771E-02  0.9900558E-01
          2   -1    0    0  502    0  0.00000000000E+00  0.00000000000E+00  0.15346388068E+04  0.15346388068E+04  0.00000000000E+00 0.  1.
         -2   -1    0    0    0  501 -0.00000000000E+00 -0.00000000000E+00 -0.59104517855E+02  0.59104517855E+02  0.00000000000E+00 0. -1.
         25    1    1    2    0    0  0.25930106581E+03 -0.81657359824E+02  0.10227028624E+04  0.10655754839E+04  0.12500000000E+03 0.  0.
         21    1    1    2  502  501 -0.25930106581E+03  0.81657359824E+02  0.45283142660E+03  0.52816784080E+03  0.00000000000E+00 0. -1.
<mgrwt>
<rscale>  3 0.60234238E+03</rscale>
<asrwt>0</asrwt>
<pdfrwt beam="1">  1        2 0.23609825E+00 0.60234238E+03</pdfrwt>
<pdfrwt beam="2">  1       -2 0.90930039E-02 0.60234238E+03</pdfrwt>
<totfact> 0.99082896E+02</totfact>
</mgrwt>
</event>
<event>
 4    0  0.1550112E-002  0.7506328E+03  0.7546771E-02  0.9634358E-01
          3   -1    0    0  502    0  0.00000000000E+00  0.00000000000E+00  0.31191514402E+03  0.31191514402E+03  0.00000000000E+00 0. -1.
         -3   -1    0    0    0  501 -0.00000000000E+00 -0.00000000000E+00 -0.45160485831E+03  0.45160485831E+03  0.00000000000E+00 0.  1.
         25    1    1    2    0    0 -0.40355802599E+02  0.20299039966E+03 -0.37748193030E+03  0.44827592046E+03  0.12500000000E+03 0.  0.
         21    1    1    2  502  501  0.40355802599E+02 -0.20299039966E+03  0.23779221601E+03  0.31524408187E+03  0.00000000000E+00 0. -1.
<mgrwt>
<rscale>  3 0.75063278E+03</rscale>
<asrwt>0</asrwt>
<pdfrwt beam="1">  1        3 0.47986945E-01 0.75063278E+03</pdfrwt>
<pdfrwt beam="2">  1       -3 0.69477670E-01 0.75063278E+03</pdfrwt>
<totfact> 0.22551076E+01</totfact>
</mgrwt>
</event>
<event>
 4    0  0.1264838E-002  0.4627538E+03  0.7546771E-02  0.1023986E+00
          1   -1    0    0  502    0  0.00000000000E+00  0.00000000000E+00  0.59897569367E+03  0.59897569367E+03  0.00000000000E+00 0.  1.
         -1   -1    0    0    0  501 -0.00000000000E+00 -0.00000000000E+00 -0.89378027583E+02  0.89378027583E+02  0.00000000000E+00 0. -1.
         25    1    1    2    0    0 -0.85096215725E+02  0.19328069824E+03  0.32922673547E+03  0.41062639661E+03  0.12500000000E+03 0.  0.
         21    1    1    2  502  501  0.85096215725E+02 -0.19328069824E+03  0.18037093061E+03  0.27772732464E+03  0.00000000000E+00 0. -1.
<mgrwt>
<rscale>  3 0.46275378E+03</rscale>
<asrwt>0</asrwt>
<pdfrwt beam="1">  1        1 0.92150104E-01 0.46275378E+03</pdfrwt>
<pdfrwt beam="2">  1       -1 0.13750466E-01 0.46275378E+03</pdfrwt>
<totfact> 0.13043961E+03</totfact>
</mgrwt>
</event>
<event>
 4    0  0.1264838E-002  0.5463663E+03  0.7546771E-02  0.1002339E+00
         -2   -1    0    0    0  501 -0.00000000000E+00  0.00000000000E+00  0.36552254688E+02  0.36552254688E+02  0.00000000000E+00 0.  1.
          2   -1    0    0  502    0  0.00000000000E+00 -0.00000000000E+00 -0.20417077902E+04  0.20417077902E+04  0.00000000000E+00 0. -1.
         25    1    1    2    0    0 -0.17359969484E+03  0.19203170018E+03 -0.10443250972E+04  0.10831680094E+04  0.12500000000E+03 0.  0.
         21    1    1    2  502  501  0.17359969484E+03 -0.19203170018E+03 -0.96083043827E+03  0.99509203545E+03  0.00000000000E+00 0.  1.
<mgrwt>
<rscale>  3 0.54636626E+03</rscale>
<asrwt>0</asrwt>
<pdfrwt beam="1">  1        2 0.31410899E+00 0.54636626E+03</pdfrwt>
<pdfrwt beam="2">  1       -2 0.56234220E-02 0.54636626E+03</pdfrwt>
<totfact> 0.11288106E+03</totfact>
</mgrwt>
</event>
<event>
 4    0  0.1264838E-002  0.5981198E+03  0.7546771E-02  0.9909315E-01
         -1   -1    0    0    0  501 -0.00000000000E+00  0.00000000000E+00  0.46989551761E+02  0.46989551761E+02  0.00000000000E+00 0.  1.
          1   -1    0    0  502    0  0.00000000000E+00 -0.00000000000E+00 -0.19033342051E+04  0.19033342051E+04  0.00000000000E+00 0. -1.
         25    1    1    2    0    0 -0.23914135695E+03  0.39055708075E+02 -0.47332290569E+03  0.54623576410E+03  0.12500000000E+03 0.  0.
         21    1    1    2  502  501  0.23914135695E+03 -0.39055708075E+02 -0.13830217477E+04  0.14040879928E+04  0.00000000000E+00 0. -1.
<mgrwt>
<rscale>  3 0.59811979E+03</rscale>
<asrwt>0</asrwt>
<pdfrwt beam="1">  1        1 0.29282054E+00 0.59811979E+03</pdfrwt>
<pdfrwt beam="2">  1       -1 0.72291645E-02 0.59811979E+03</pdfrwt>
<totfact> 0.37807657E+02</totfact>
</mgrwt>
</event>
<event>
 4    0  0.1264838E-002  0.5223589E+03  0.7546771E-02  0.1008102E+00
         -2   -1    0    0    0  501 -0.00000000000E+00  0.00000000000E+00  0.19229981247E+03  0.19229981247E+03  0.00000000000E+00 0.  1.
          2   -1    0    0  502    0  0.00000000000E+00 -0.00000000000E+00 -0.35473094856E+03  0.35473094856E+03  0.00000000000E+00 0. -1.
         25    1    1    2    0    0 -0.21430269769E+03 -0.12035046779E+03 -0.70475155750E+02  0.28460785110E+03  0.12500000000E+03 0.  0.
         21    1    1    2  502  501  0.21430269769E+03  0.12035046779E+03 -0.91955980343E+02  0.26242290992E+03  0.00000000000E+00 0.  1.
<mgrwt>
<rscale>  3 0.52235886E+03</rscale>
<asrwt>0</asrwt>
<pdfrwt beam="1">  1        2 0.54573991E-01 0.52235886E+03</pdfrwt>
<pdfrwt beam="2">  1       -2 0.29584587E-01 0.52235886E+03</pdfrwt>
<totfact> 0.96007632E+02</totfact>
</mgrwt>
</event>
<event>
 4    0  0.1693588E-002  0.7202467E+03  0.7546771E-02  0.9683221E-01
         -2   -1    0    0    0  501 -0.00000000000E+00  0.00000000000E+00  0.91319986118E+02  0.91319986118E+02  0.00000000000E+00 0. -1.
          2   -1    0    0  502    0  0.00000000000E+00 -0.00000000000E+00 -0.14201583725E+04  0.14201583725E+04  0.00000000000E+00 0.  1.
         25    1    1    2    0    0  0.62927925794E+02 -0.20317814857E+03 -0.10304168142E+03  0.26736467981E+03  0.12500000000E+03 0.  0.
         21    1    1    2  502  501 -0.62927925794E+02  0.20317814857E+03 -0.12257967049E+04  0.12441136788E+04  0.00000000000E+00 0.  1.
<mgrwt>
<rscale>  3 0.72024674E+03</rscale>
<asrwt>0</asrwt>
<pdfrwt beam="1">  1        2 0.21848592E+00 0.72024674E+03</pdfrwt>
<pdfrwt beam="2">  1       -2 0.14049228E-01 0.72024674E+03</pdfrwt>
<totfact> 0.55821086E+02</totfact>
</mgrwt>
</event>
<event>
 4    0  0.1264838E-002  0.4815244E+03  0.7546771E-02  0.1018717E+00
         -1   -1    0    0    0  501 -0.00000000000E+00  0.00000000000E+00  0.91468419965E+02  0.91468419965E+02  0.00000000000E+00 0. -1.
          1   -1    0    0  502    0  0.00000000000E+00 -0.00000000000E+00 -0.63373168002E+03  0.63373168002E+03  0.00000000000E+00 0.  1.
         25    1    1    2    0    0  0.40880899244E+02 -0.20971714271E+03 -0.18544544957E+03  0.30930170163E+03  0.12500000000E+03 0.  0.
         21    1    1    2  502  501 -0.40880899244E+02  0.20971714271E+03 -0.35681781049E+03  0.41589839836E+03  0.00000000000E+00 0.  1.
<mgrwt>
<rscale>  3 0.48152439E+03</rscale>
<asrwt>0</asrwt>
<pdfrwt beam="1">  1        1 0.97497180E-01 0.48152439E+03</pdfrwt>
<pdfrwt beam="2">  1       -1 0.14072065E-01 0.48152439E+03</pdfrwt>
<totfact> 0.11594483E+03</totfact>
</mgrwt>
</event>
<event>
 4    0  0.1264838E-002  0.4418873E+03  0.7546771E-02  0.1030169E+00
          1   -1    0    0  502    0  0.00000000000E+00  0.00000000000E+00  0.53849211362E+03  0.53849211362E+03  0.00000000000E+00 0.  1.
         -1   -1    0    0    0  501 -0.00000000000E+00 -0.00000000000E+00 -0.90653329357E+02  0.90653329357E+02  0.00000000000E+00 0. -1.
         25    1    1    2    0    0  0.17996119430E+03 -0.92666950105E+02  0.26820534005E+03  0.35851401580E+03  0.12500000000E+03 0.  0.
         21    1    1    2  502  501 -0.17996119430E+03  0.92666950105E+02  0.17963344421E+03  0.27063142717E+03  0.00000000000E+00 0. -1.
<mgrwt>
<rscale>  3 0.44188733E+03</rscale>
<asrwt>0</asrwt>
<pdfrwt beam="1">  1        1 0.82844939E-01 0.44188733E+03</pdfrwt>
<pdfrwt beam="2">  1       -1 0.13946666E-01 0.44188733E+03</pdfrwt>
<totfact> 0.14794043E+03</totfact>
</mgrwt>
</event>
<event>
 4    0  0.1264838E-002  0.6695812E+03  0.7546771E-02  0.9770715E-01
         -2   -1    0    0    0  501 -0.00000000000E+00  0.00000000000E+00  0.14971523784E+04  0.14971523784E+04  0.00000000000E+00 0. -1.
          2   -1    0    0  502    0  0.00000000000E+00 -0.00000000000E+00 -0.74865294518E+02  0.74865294518E+02  0.00000000000E+00 0.  1.
         25    1    1    2    0    0 -0.31544613676E+03 -0.10431037116E+02  0.89847200858E+03  0.96046448239E+03  0.12500000000E+03 0.  0.
         21    1    1    2  502  501  0.31544613676E+03  0.10431037116E+02  0.52381507533E+03  0.61155319055E+03  0.00000000000E+00 0.  1.
<mgrwt>
<rscale>  3 0.66958122E+03</rscale>
<asrwt>0</asrwt>
<pdfrwt beam="1">  1        2 0.11517739E-01 0.66958122E+03</pdfrwt>
<pdfrwt beam="2">  1       -2 0.23033111E+00 0.66958122E+03</pdfrwt>
<totfact> 0.48673175E+01</totfact>
</mgrwt>
</event>
<event>
 4    0  0.1264838E-002  0.5615957E+03  0.7546771E-02  0.9988451E-01
          2   -1    0    0  502    0  0.00000000000E+00  0.00000000000E+00  0.13666584401E+04  0.13666584401E+04  0.00000000000E+00 0. -1.
         -2   -1    0    0    0  501 -0.00000000000E+00 -0.00000000000E+00 -0.57693590064E+02  0.57693590064E+02  0.00000000000E+00 0.  1.
         25    1    1    2    0    0  0.16787824900E+03 -0.20635397950E+03  0.74150309048E+03  0.79763206087E+03  0.12500000000E+03 0.  0.
         21    1    1    2  502  501 -0.16787824900E+03  0.20635397950E+03  0.56746175952E+03  0.62671996926E+03  0.00000000000E+00 0.  1.
<mgrwt>
<rscale>  3 0.56159570E+03</rscale>
<asrwt>0</asrwt>
<pdfrwt beam="1">  1        2 0.21025512E+00 0.56159570E+03</pdfrwt>
<pdfrwt beam="2">  1       -2 0.88759380E-02 0.56159570E+03</pdfrwt>
<totfact> 0.12793921E+03</totfact>
</mgrwt>
</event>
<event>
 4    0  0.1264838E-002  0.4874297E+03  0.7546771E-02  0.1017113E+00
         -1   -1    0    0    0  501 -0.00000000000E+00  0.00000000000E+00  0.92197507998E+03  0.92197507998E+03  0.00000000000E+00 0.  1.
          1   -1    0    0  502    0  0.00000000000E+00 -0.00000000000E+00 -0.64423564802E+02  0.64423564802E+02  0.00000000000E+00 0. -1.
         25    1    1    2    0    0  0.87205876485E+02 -0.20942673499E+03  0.49626141070E+03  0.55978996951E+03  0.12500000000E+03 0.  0.
         21    1    1    2  502  501 -0.87205876485E+02  0.20942673499E+03  0.36129010448E+03  0.42660867527E+03  0.00000000000E+00 0.  1.
<mgrwt>
<rscale>  3 0.48742967E+03</rscale>
<asrwt>0</asrwt>
<pdfrwt beam="1">  1        1 0.99113184E-02 0.48742967E+03</pdfrwt>
<pdfrwt beam="2">  1       -1 0.14184231E+00 0.48742967E+03</pdfrwt>
<totfact> 0.28175092E+02</totfact>
</mgrwt>
</event>
