<event>
 5    0  0.1911311E+001  0.5309309E+03  0.7546771E-02  0.1006007E+00
         21   -1    0    0  502  501  0.00000000000E+00  0.00000000000E+00  0.96299353069E+03  0.96299353069E+03  0.00000000000E+00 0.  1.
         21   -1    0    0  504  502 -0.00000000000E+00 -0.00000000000E+00 -0.71836940694E+03  0.71836940694E+03  0.00000000000E+00 0.  1.
         25    1    1    2    0    0 -0.45389971866E+03  0.21938208326E+03 -0.33969548032E+03  0.62062184332E+03  0.12500000000E+03 0.  0.
         21    1    1    2  503  501  0.45956080182E+03 -0.23913736646E+03  0.74021678461E+03  0.90349526774E+03  0.00000000000E+00 0.  1.
         21    1    1    2  504  503 -0.56610831608E+01  0.19755283202E+02 -0.15589718054E+03  0.15724582658E+03  0.00000000000E+00 0. -1.
<mgrwt>
<rscale>  4 0.53093086E+03</rscale>
<asrwt>0</asrwt>
<pdfrwt beam="1">  1       21 0.14815285E+00 0.53093086E+03</pdfrwt>
<pdfrwt beam="2">  1       21 0.11051837E+00 0.53093086E+03</pdfrwt>
<totfact> 0.15576484E+02</totfact>
</mgrwt>
</event>
<event>
 5    0  0.1911311E+001  0.2427926E+03  0.7546771E-02  0.1117946E+00
         21   -1    0    0  502  501  0.00000000000E+00  0.00000000000E+00  0.10884433217E+04  0.10884433217E+04  0.00000000000E+00 0.  1.
         21   -1    0    0  504  502 -0.00000000000E+00 -0.00000000000E+00 -0.65131849341E+03  0.65131849341E+03  0.00000000000E+00 0.  1.
         25    1    1    2    0    0  0.66018092419E+02 -0.26028782106E+03  0.72329567184E+03  0.78159437512E+03  0.12500000000E+03 0.  0.
         21    1    1    2  503  501 -0.19392156460E+02  0.58855242726E+02  0.31572543036E+03  0.32174919224E+03  0.00000000000E+00 0.  1.
         21    1    1    2  504  503 -0.46625935959E+02  0.20143257834E+03 -0.60189627391E+03  0.63641824775E+03  0.00000000000E+00 0.  1.
<mgrwt>
<rscale>  4 0.24279265E+03</rscale>
<asrwt>0</asrwt>
<pdfrwt beam="1">  1       21 0.16745282E+00 0.24279265E+03</pdfrwt>
<pdfrwt beam="2">  1       21 0.10020285E+00 0.24279265E+03</pdfrwt>
<totfact> 0.17122874E+02</totfact>
</mgrwt>
</event>
<event>
 5    0  0.1911311E+001  0.2419991E+03  0.7546771E-02  0.1118468E+00
         21   -1    0    0  504  501  0.00000000000E+00  0.00000000000E+00  0.51061196379E+03  0.51061196379E+03  0.00000000000E+00 0. -1.
         21   -1    0    0  503  502 -0.00000000000E+00 -0.00000000000E+00 -0.12697182300E+03  0.12697182300E+03  0.00000000000E+00 0. -1.
         25    1    1    2    0    0  0.10327635843E+03 -0.19288449922E+03  0.18103391311E+03  0.31027199994E+03  0.12500000000E+03 0.  0.
         21    1    1    2  503  501 -0.11832542191E+03  0.16136514774E+03  0.11000714929E+03  0.22834445312E+03  0.00000000000E+00 0. -1.
         21    1    1    2  504  502  0.15049063476E+02  0.31519351481E+02  0.92599078378E+02  0.98967333731E+02  0.00000000000E+00 0. -1.
<mgrwt>
<rscale>  4 0.24199911E+03</rscale>
<asrwt>0</asrwt>
<pdfrwt beam="1">  1       21 0.78555686E-01 0.24199911E+03</pdfrwt>
<pdfrwt beam="2">  1       21 0.19534127E-01 0.24199911E+03</pdfrwt>
<totfact> 0.33716193E+04</totfact>
</mgrwt>
</event>
<event>
 5    0  0.3180616E+001  0.4075457E+03  0.7546771E-02  0.1041198E+00
         21   -1    0    0  504  501  0.00000000000E+00  0.00000000000E+00  0.24415670427E+03  0.24415670427E+03  0.00000000000E+00 0. -1.
         21   -1    0    0  503  502 -0.00000000000E+00 -0.00000000000E+00 -0.71491953720E+03  0.71491953720E+03  0.00000000000E+00 0. -1.
         25    1    1    2    0    0 -0.44815081134E+02  0.39505080376E+03 -0.25097825556E+03  0.48650654036E+03  0.12500000000E+03 0.  0.
         21    1    1    2  503  501  0.20458612423E+02 -0.15427336962E+02 -0.49609994891E+02  0.55836449933E+02  0.00000000000E+00 0.  1.
         21    1    1    2  504  502  0.24356468711E+02 -0.37962346680E+03 -0.17017458247E+03  0.41673325117E+03  0.00000000000E+00 0. -1.
<mgrwt>
<rscale>  4 0.40754572E+03</rscale>
<asrwt>0</asrwt>
<pdfrwt beam="1">  1       21 0.37562570E-01 0.40754572E+03</pdfrwt>
<pdfrwt beam="2">  1       21 0.10998762E+00 0.40754572E+03</pdfrwt>
<totfact> 0.39589219E+03</totfact>
</mgrwt>
</event>
