<LesHouchesEvents version="3.0">
  <!--
  <scalesfunctionalform>
    muR  H_T/2 := sum_i mT(i)/2, i=final state
    muF1 H_T/2 := sum_i mT(i)/2, i=final state
    muF2 H_T/2 := sum_i mT(i)/2, i=final state
    QES  H_T/2 := sum_i mT(i)/2, i=final state
  </scalesfunctionalform>
HERWIG6   
  -->
  <header>
      231
  </header>
  <init>
   2212   2212 0.65000000D+04 0.65000000D+04 -1 -1   244800   244800 -4   1
 0.35697128D-03 0.18603432D-04 0.16841828D-05     66
  </init>
  <event>
  7     66 0.16841828E-05 0.50331220E+02 0.75467711E-02 0.89506753E-01
       -1 -1    0    0    0  503 0.00000000E+00 0.00000000E+00 0.10988707E+04 0.10988707E+04 0.32000000E+00 0.0000E+00 0.9000E+01
        2 -1    0    0  501    0 0.00000000E+00 0.00000000E+00 -.81467003E+03 0.81467009E+03 0.32000000E+00 0.0000E+00 0.9000E+01
       24  2    1    2    0    0 0.44589439E+03 0.63903876E+03 -.25015404E+03 0.82292192E+03 0.86203903E+02 0.0000E+00 0.0000E+00
       25  1    1    2    0    0 -.41978570E+03 -.66455128E+03 0.29550938E+03 0.84899896E+03 0.12500000E+03 0.0000E+00 0.9000E+01
       -1  1    3    3    0  502 0.28590046E+03 0.38187299E+03 -.19352884E+03 0.51480051E+03 0.32000000E+00 0.0000E+00 0.9000E+01
        2  1    3    3  502    0 0.15999392E+03 0.25716577E+03 -.56625197E+02 0.30812141E+03 0.32000000E+00 0.0000E+00 0.9000E+01
       21  1    1    2  501  503 -.26108686E+02 0.25512520E+02 0.23884530E+03 0.24161994E+03 0.75000000E+00 0.0000E+00 0.9000E+01
#aMCatNLO 2  0  0  0  0 0.00000000D+00 0.00000000D+00  -5  6  0 0.00000000D+00 0.00000000D+00 0.00000000D+00 0.00000000D+00 0.00000000D+00
  <mgrwgt>
 0.4323064101D-03    1    2    0
 0.835453435438333D+03 0.000000000000000D+00 0.000000000000000D+00 0.835453435438333D+03
 0.835453435438333D+03 0.000000000000000D+00 0.000000000000000D+00 -.835453435438333D+03
 0.837905363675883D+03 -.432903248939461D+03 -.651733255486573D+03 0.272578317603117D+03
 0.521732367415941D+03 0.277762484501359D+03 0.389828560328243D+03 -.207572539044750D+03
 0.311269139784843D+03 0.155140764438103D+03 0.261904695158330D+03 -.650057785583667D+02
 0.000000000000000D+00 -.000000000000000D+00 0.000000000000000D+00 0.000000000000000D+00
 0.106945373488704D+04 0.000000000000000D+00 0.000000000000000D+00 0.106945373488704D+04
 0.837077666171495D+03 0.000000000000000D+00 0.000000000000000D+00 -.837077666171495D+03
 0.841292086459334D+03 -.419785698725931D+03 -.664551279177865D+03 0.272578317603117D+03
 0.520244864574810D+03 0.285902199494907D+03 0.381874707823067D+03 -.207572539044750D+03
 0.309768623454456D+03 0.159992185599524D+03 0.257164051488494D+03 -.650057785583667D+02
 0.235225826569934D+03 -.261086863685006D+02 0.255125198663042D+02 0.232376068715544D+03
0.345520606269D-03 0.000000000000D+00 0.000000000000D+00 0.557869110197D-05 0.258921074852D-07  6 -1 2 25 -1 2 21 2 0.16905692D+00 0.12533377D+00 0.64989947D+06 0.64989947D+06 0.64989947D+06 0.10605541D+01  1  2  1  1  6  1       -1 0.432306410071D-03 0.100000000000D+01
  </mgrwgt>
  </event>
  <event>
  6     66 0.16841828E-05 0.70512451E+02 0.75467711E-02 0.92440647E-01
       -1 -1    0    0    0  501 0.00000000E+00 0.00000000E+00 0.61815486E+03 0.61815494E+03 0.32000000E+00 0.0000E+00 0.9000E+01
        2 -1    0    0  501    0 -.00000000E+00 -.00000000E+00 -.67890421E+03 0.67890428E+03 0.32000000E+00 0.0000E+00 0.9000E+01
       25  1    1    2    0    0 0.41828410E+03 -.43112417E+03 0.17215574E+03 0.63725367E+03 0.12500000E+03 0.0000E+00 0.9000E+01
       -1  1    1    2    0  503 -.18459067E+03 0.23346638E+03 -.92283108E+02 0.31160318E+03 0.32000000E+00 0.0000E+00 0.9000E+01
        2  1    1    2  502    0 -.21969045E+03 0.19228361E+03 -.15219582E+03 0.32924239E+03 0.32000000E+00 0.0000E+00 0.9000E+01
       21  1    1    2  503  502 -.14002978E+02 0.53741821E+01 0.11573839E+02 0.18959997E+02 0.75000000E+00 0.0000E+00 0.9000E+01
#aMCatNLO 2  0  0  4  5 0.25144317D+01 0.00000000D+00  -5  6  0 0.00000000D+00 0.00000000D+00 0.00000000D+00 0.00000000D+00 0.00000000D+00
  <mgrwgt>
 0.6734466288D-01    1    2    0
 0.647817906175318D+03 0.000000000000000D+00 0.000000000000000D+00 0.647817906175318D+03
 0.647817906175318D+03 -.000000000000000D+00 -.000000000000000D+00 -.647817906175318D+03
 0.650776898369026D+03 0.421342791617341D+03 -.434802737226067D+03 0.203229926692983D+03
 0.324679504315534D+03 -.203139238049510D+03 0.244317702269459D+03 -.667839115732028D+02
 0.320179409666076D+03 -.218203553567831D+03 0.190485034956607D+03 -.136446015119780D+03
 0.000000000000000D+00 -.000000000000000D+00 0.000000000000000D+00 0.000000000000000D+00
 0.647817906175318D+03 0.000000000000000D+00 0.000000000000000D+00 0.647817906175318D+03
 0.647817906175318D+03 -.000000000000000D+00 -.000000000000000D+00 -.647817906175318D+03
 0.646015250031228D+03 0.418277376113294D+03 -.431115929696212D+03 0.202222142869813D+03
 0.307561958231999D+03 -.184532968761568D+03 0.233433536180097D+03 -.777864112682909D+02
 0.322515362694594D+03 -.219722784326588D+03 0.192312229799714D+03 -.136945476344634D+03
 0.195432413928149D+02 -.140216230251370D+02 0.537016371640132D+01 0.125097447431124D+02
0.897424075719D-02 0.000000000000D+00 0.000000000000D+00 0.392552710218D-05 0.241149350020D-05  6 -1 2 25 -1 2 21 2 0.95100760D-01 0.10444681D+00 0.37095591D+06 0.37095591D+06 0.37095591D+06 0.10777956D+01  1  2  1  3  6  4       -1 0.673446628793D-01 0.100000000000D+01
  </mgrwgt>
  </event>
  <event>
  7     66 0.16841828E-05 0.42343785E+02 0.75467711E-02 0.95398770E-01
       -1 -1    0    0    0  503 0.00000000E+00 0.00000000E+00 0.16066401E+03 0.16066433E+03 0.32000000E+00 0.0000E+00 0.9000E+01
        2 -1    0    0  501    0 0.00000000E+00 0.00000000E+00 -.16046300E+04 0.16046301E+04 0.32000000E+00 0.0000E+00 0.9000E+01
       24  2    1    2    0    0 -.22793725E+03 0.38299188E+03 -.49280839E+03 0.66935064E+03 0.80820755E+02 0.0000E+00 0.0000E+00
       25  1    1    2    0    0 0.24377417E+03 -.38517894E+03 -.96515580E+03 0.10746811E+04 0.12500000E+03 0.0000E+00 0.9000E+01
       -1  1    3    3    0  502 -.15758987E+03 0.27875176E+03 -.29767482E+03 0.43720420E+03 0.32000000E+00 0.0000E+00 0.9000E+01
        2  1    3    3  502    0 -.70347379E+02 0.10424013E+03 -.19513357E+03 0.23214644E+03 0.32000000E+00 0.0000E+00 0.9000E+01
       21  1    1    2  501  503 -.15836919E+02 0.21870593E+01 0.13998169E+02 0.21262702E+02 0.75000000E+00 0.0000E+00 0.9000E+01
#aMCatNLO 2  0  0  1  4 0.62906499D+02 0.00000000D+00  -5  6  0 0.00000000D+00 0.00000000D+00 0.00000000D+00 0.00000000D+00 0.00000000D+00
  <mgrwgt>
 0.8696574652D-02    1    2    0
 0.478469274691109D+03 0.000000000000000D+00 0.000000000000000D+00 0.478469274691109D+03
 0.478469274691109D+03 0.000000000000000D+00 0.000000000000000D+00 -.478469274691109D+03
 0.483220366383615D+03 0.235737534711077D+03 -.384069093411311D+03 -.121637447780164D+03
 0.346529482958765D+03 -.163298501630121D+03 0.279542657743906D+03 0.123580679826986D+03
 0.127188700039839D+03 -.724390330809564D+02 0.104526435667406D+03 -.194323204682124D+01
 0.000000000000000D+00 -.000000000000000D+00 0.000000000000000D+00 0.000000000000000D+00
 0.537518095533520D+03 0.000000000000000D+00 0.000000000000000D+00 0.537518095533520D+03
 0.479619386504543D+03 0.000000000000000D+00 0.000000000000000D+00 -.479619386504543D+03
 0.488066932596494D+03 0.243774166521788D+03 -.385178942477760D+03 -.121637447780164D+03
 0.343236432338680D+03 -.157591235919301D+03 0.278754491299266D+03 0.123580679826986D+03
 0.125768721451864D+03 -.703460111064589D+02 0.104237391881506D+03 -.194323204682124D+01
 0.600653956510262D+02 -.158369194960285D+02 0.218705929698847D+01 0.578987090289765D+02
0.337985411731D-03 0.000000000000D+00 0.000000000000D+00 0.269585525976D-03 0.678573278494D-05  6 -1 2 25 -1 2 21 2 0.24717447D-01 0.24686498D+00 0.21838083D+06 0.21838083D+06 0.21838083D+06 0.10949047D+01  1  2  1  1  6  1       -1 0.869657465196D-02 0.100000000000D+01
  </mgrwgt>
  </event>
  <event>
  7     66 0.16841828E-05 0.42771749E+02 0.75467711E-02 0.91560811E-01
       -1 -1    0    0    0  501 0.00000000E+00 0.00000000E+00 0.18681176E+03 0.18681203E+03 0.32000000E+00 0.0000E+00 0.9000E+01
        2 -1    0    0  503    0 0.00000000E+00 0.00000000E+00 -.28724383E+04 0.28724383E+04 0.32000000E+00 0.0000E+00 0.9000E+01
       24  2    1    2    0    0 -.64699370E+03 0.12034859E+02 -.18683435E+04 0.19790337E+04 0.84388413E+02 0.0000E+00 0.0000E+00
       25  1    1    2    0    0 0.64247957E+03 -.26652360E+02 -.68781119E+03 0.94984188E+03 0.12500000E+03 0.0000E+00 0.9000E+01
       -1  1    3    3    0  502 -.48054002E+03 -.26267314E+02 -.13433728E+04 0.14269755E+04 0.32000000E+00 0.0000E+00 0.9000E+01
        2  1    3    3  502    0 -.16645368E+03 0.38302173E+02 -.52497070E+03 0.55205817E+03 0.32000000E+00 0.0000E+00 0.9000E+01
       21  1    1    2  503  501 0.45141308E+01 0.14617501E+02 -.12947187E+03 0.13037475E+03 0.75000000E+00 0.0000E+00 0.9000E+01
#aMCatNLO 2  0  0  2  2 0.17026585D+03 0.00000000D+00  -5  6  0 0.00000000D+00 0.00000000D+00 0.00000000D+00 0.00000000D+00 0.00000000D+00
  <mgrwgt>
 0.4680761618D-03    1    2    0
 0.714869126259081D+03 0.000000000000000D+00 0.000000000000000D+00 0.714869126259081D+03
 0.714869126259081D+03 0.000000000000000D+00 0.000000000000000D+00 -.714869126259081D+03
 0.717842955906552D+03 0.644743126966657D+03 -.193226009665793D+02 0.289147793811055D+03
 0.519688682268670D+03 -.478900992889438D+03 -.209461728429663D+02 -.200727236146193D+03
 0.192206614342940D+03 -.165842134077219D+03 0.402687738095457D+02 -.884205576648616D+02
 0.000000000000000D+00 0.000000000000000D+00 0.000000000000000D+00 -.000000000000000D+00
 0.716637914460445D+03 0.000000000000000D+00 0.000000000000000D+00 0.716637914460445D+03
 0.748773923670708D+03 0.000000000000000D+00 0.000000000000000D+00 -.748773923670708D+03
 0.716045946703777D+03 0.642479573883475D+03 -.266523595130986D+02 0.289147793811055D+03
 0.521444624548456D+03 -.480544537589699D+03 -.262682418957474D+02 -.200727236146193D+03
 0.192329529117940D+03 -.166449167140618D+03 0.383031005423582D+02 -.884205576648616D+02
 0.355917377609793D+02 0.451413084684229D+01 0.146175008664879D+02 -.321360092102634D+02
0.131859942530D-03 0.000000000000D+00 0.000000000000D+00 0.121316447225D-04 0.318511669333D-06  6 -1 2 25 -1 2 21 2 0.28740135D-01 0.44191117D+00 0.43720463D+06 0.43720463D+06 0.43720463D+06 0.10726542D+01  1  2  1  2  6  2        2 0.468076161787D-03 0.100000000000D+01
  </mgrwgt>
  </event>
  <event>
  7     66 0.16841828E-05 0.40503743E+02 0.75467711E-02 0.94958560E-01
       -1 -1    0    0    0  503 0.00000000E+00 0.00000000E+00 0.27768631E+03 0.27768649E+03 0.32000000E+00 0.0000E+00 0.9000E+01
        2 -1    0    0  501    0 0.00000000E+00 0.00000000E+00 -.88172590E+03 0.88172596E+03 0.32000000E+00 0.0000E+00 0.9000E+01
       24  2    1    2    0    0 0.36267495E+03 -.30775220E+03 -.35286810E+03 0.59768177E+03 0.80393190E+02 0.0000E+00 0.0000E+00
       25  1    1    2    0    0 -.35133380E+03 0.30832745E+03 -.25810775E+03 0.54840301E+03 0.12500000E+03 0.0000E+00 0.9000E+01
       -1  1    3    3    0  502 0.27676050E+03 -.22525571E+03 -.21985552E+03 0.41913370E+03 0.32000000E+00 0.0000E+00 0.9000E+01
        2  1    3    3  502    0 0.85914455E+02 -.82496495E+02 -.13301257E+03 0.17854807E+03 0.32000000E+00 0.0000E+00 0.9000E+01
       21  1    1    2  501  503 -.11341153E+02 -.57524398E+00 0.69362508E+01 0.13327668E+02 0.75000000E+00 0.0000E+00 0.9000E+01
#aMCatNLO 2  0  0  1  2 0.63342299D+02 0.00000000D+00  -5  6  0 0.00000000D+00 0.00000000D+00 0.00000000D+00 0.00000000D+00 0.00000000D+00
  <mgrwgt>
 0.9698087001D-02    1    2    0
 0.484791164055170D+03 0.000000000000000D+00 0.000000000000000D+00 0.484791164055170D+03
 0.484791164055170D+03 0.000000000000000D+00 0.000000000000000D+00 -.484791164055170D+03
 0.489515845390418D+03 -.357036285615289D+03 0.308038206601625D+03 0.404761277296638D+02
 0.353792166946677D+03 0.272607367328747D+03 -.225468777897180D+03 0.423684605185834D+01
 0.126274315773245D+03 0.844289182865424D+02 -.825694287044448D+02 -.447129737815221D+02
 0.000000000000000D+00 -.000000000000000D+00 -.000000000000000D+00 0.000000000000000D+00
 0.503176910747272D+03 0.000000000000000D+00 0.000000000000000D+00 0.503176910747272D+03
 0.486581021627156D+03 0.000000000000000D+00 0.000000000000000D+00 -.486581021627156D+03
 0.485555939323463D+03 -.351333799492607D+03 0.308327447092196D+03 0.404761277296638D+02
 0.356871336595197D+03 0.276763521604130D+03 -.225257970176541D+03 0.423684605185834D+01
 0.127221548992276D+03 0.859114313421394D+02 -.824942329399565D+02 -.447129737815221D+02
 0.201091074634920D+02 -.113411534536620D+02 -.575243975699053D+00 0.165958891201159D+02
0.366713779773D-03 0.000000000000D+00 0.000000000000D+00 0.305713419626D-03 0.150955252367D-04  6 -1 2 25 -1 2 21 2 0.42720377D-01 0.13564821D+00 0.23579433D+06 0.23579433D+06 0.23579433D+06 0.10923756D+01  1  2  1  1  6  1       -1 0.969808700082D-02 0.100000000000D+01
  </mgrwgt>
  </event>
  <event>
  7     66 0.16841828E-05 0.77984561E+02 0.75467711E-02 0.94033346E-01
       -1 -1    0    0    0  503 0.00000000E+00 0.00000000E+00 0.19489077E+03 0.19489103E+03 0.32000000E+00 0.0000E+00 0.9000E+01
        2 -1    0    0  501    0 0.00000000E+00 0.00000000E+00 -.19749671E+04 0.19749671E+04 0.32000000E+00 0.0000E+00 0.9000E+01
       24  2    1    2    0    0 -.40388818E+03 0.27350469E+03 -.13234370E+04 0.14137682E+04 0.96563638E+02 0.0000E+00 0.0000E+00
       25  1    1    2    0    0 0.41320352E+03 -.30766696E+03 -.47878213E+03 0.71432026E+03 0.12500000E+03 0.0000E+00 0.9000E+01
       -1  1    3    3    0  502 -.20836899E+03 0.12570962E+03 -.79184257E+03 0.82839321E+03 0.32000000E+00 0.0000E+00 0.9000E+01
        2  1    3    3  502    0 -.19551919E+03 0.14779508E+03 -.53159444E+03 0.58537499E+03 0.32000000E+00 0.0000E+00 0.9000E+01
       21  1    1    2  501  503 -.93153398E+01 0.34162267E+02 0.22142844E+02 0.41769654E+02 0.75000000E+00 0.0000E+00 0.9000E+01
#aMCatNLO 2  0  0  1  4 0.81004705D+02 0.00000000D+00  -5  6  0 0.00000000D+00 0.00000000D+00 0.00000000D+00 0.00000000D+00 0.00000000D+00
  <mgrwgt>
 0.4306375019D-03    1    2    0
 0.565577766453525D+03 0.000000000000000D+00 0.000000000000000D+00 0.565577766453525D+03
 0.565577766453525D+03 0.000000000000000D+00 0.000000000000000D+00 -.565577766453525D+03
 0.568362738944615D+03 0.408472973350174D+03 -.290318566167326D+03 0.237225974972474D+03
 0.302395424939828D+03 -.210835531908861D+03 0.134754443048904D+03 -.169801683112468D+03
 0.260397369022606D+03 -.197637441441313D+03 0.155564123118422D+03 -.674242918600062D+02
 0.000000000000000D+00 -.000000000000000D+00 0.000000000000000D+00 0.000000000000000D+00
 0.676834015160282D+03 0.000000000000000D+00 0.000000000000000D+00 0.676834015160282D+03
 0.568679296749637D+03 0.000000000000000D+00 0.000000000000000D+00 -.568679296749637D+03
 0.580772995308565D+03 0.413203520284690D+03 -.307666962318642D+03 0.237225974972474D+03
 0.296737523197722D+03 -.208369133513355D+03 0.125709388211799D+03 -.169801683112468D+03
 0.254199106633574D+03 -.195519046975049D+03 0.147795307606340D+03 -.674242918600062D+02
 0.113803686770058D+03 -.931533979628588D+01 0.341622665005033D+02 0.108154718410645D+03
0.375795813145D-04 0.000000000000D+00 0.000000000000D+00 0.521269253399D-06 0.267122906592D-08  6 -1 2 25 -1 2 21 2 0.29983152D-01 0.30384045D+00 0.27771355D+06 0.27771355D+06 0.27771355D+06 0.10870409D+01  1  2  1  1  6  1       -1 0.430637501923D-03 0.100000000000D+01
  </mgrwgt>
  </event>
  <event>
  6     66 0.16841828E-05 0.10660071E+03 0.75467711E-02 0.93202884E-01
       -1 -1    0    0    0  501 0.00000000E+00 0.00000000E+00 0.12255436E+04 0.12255436E+04 0.32000000E+00 0.0000E+00 0.9000E+01
        2 -1    0    0  501    0 0.00000000E+00 0.00000000E+00 -.29841803E+03 0.29841821E+03 0.32000000E+00 0.0000E+00 0.9000E+01
       25  1    1    2    0    0 0.33787275E+03 0.43360889E+03 0.58840262E+03 0.81487257E+03 0.12500000E+03 0.0000E+00 0.9000E+01
       -1  1    1    2    0  503 -.15361744E+02 -.34102085E+02 0.10421392E+03 0.11072299E+03 0.32000000E+00 0.0000E+00 0.9000E+01
        2  1    1    2  502    0 -.18651419E+03 -.33652483E+03 0.10134369E+03 0.39787831E+03 0.32000000E+00 0.0000E+00 0.9000E+01
       21  1    1    2  503  502 -.13599682E+03 -.62981976E+02 0.13316532E+03 0.20048798E+03 0.75000000E+00 0.0000E+00 0.9000E+01
#aMCatNLO 2  0  0  4  1 0.39357103D+02 0.00000000D+00  -5  6  0 0.00000000D+00 0.00000000D+00 0.00000000D+00 0.00000000D+00 0.00000000D+00
  <mgrwgt>
 0.2899734622D-02    3    2    0
 0.604751580874571D+03 0.000000000000000D+00 0.000000000000000D+00 0.604751580874571D+03
 0.604751580874571D+03 -.000000000000000D+00 -.000000000000000D+00 -.604751580874571D+03
 0.583521995075663D+03 0.345749017780047D+03 0.438662158311917D+03 0.113604781177315D+03
 0.206777849490455D+03 -.164952671269847D+03 -.105804589931801D+03 0.659779056215230D+02
 0.419203317183023D+03 -.180796346510200D+03 -.332857568380117D+03 -.179582686798838D+03
 0.000000000000000D+00 -.000000000000000D+00 0.000000000000000D+00 0.000000000000000D+00
 0.604751580874571D+03 0.000000000000000D+00 0.000000000000000D+00 0.604751580874571D+03
 0.604751580874571D+03 -.000000000000000D+00 -.000000000000000D+00 -.604751580874571D+03
 0.575762552956690D+03 0.337934235813165D+03 0.433649570185595D+03 0.116730544119464D+03
 0.589670962194196D+02 -.150304143663321D+02 -.337030036966111D+02 0.459925278969625D+02
 0.423611059383289D+03 -.186477790813584D+03 -.336501782687847D+03 -.177310218016387D+03
 0.151162453189743D+03 -.136426030633249D+03 -.634447838011365D+02 0.145871459999608D+02
-.148027270612D-03 0.000000000000D+00 0.000000000000D+00 0.458520774830D-08 0.000000000000D+00  6 -1 2 25 -1 2 21 2 0.18854519D+00 0.45910483D-01 0.32255716D+06 0.32255716D+06 0.32255716D+06 0.10822301D+01  1  2 13  3  6  4       -1 -.446097767802D-03 0.100000000000D+01
-.114255696827D-03 0.000000000000D+00 0.000000000000D+00 0.458520774830D-08 0.000000000000D+00  6 -1 2 25 -1 2 21 2 0.18854519D+00 0.45910483D-01 0.32255716D+06 0.32255716D+06 0.32255716D+06 0.10822301D+01  1  2 13  3  6  4       -1 -.344323117641D-03 0.100000000000D+01
0.122449312100D-02 0.000000000000D+00 0.000000000000D+00 0.458520774830D-08 0.135278622024D-10  6 -1 2 25 -1 2 21 2 0.18854519D+00 0.45910483D-01 0.32255716D+06 0.32255716D+06 0.32255716D+06 0.10822301D+01  1  2  1  3  6  4       -1 0.369015550789D-02 0.100000000000D+01
  </mgrwgt>
  </event>
  <event>
  7     66 0.16841828E-05 0.42034590E+02 0.75467711E-02 0.91950689E-01
       -1 -1    0    0    0  501 0.00000000E+00 0.00000000E+00 0.17152970E+03 0.17153000E+03 0.32000000E+00 0.0000E+00 0.9000E+01
        2 -1    0    0  503    0 0.00000000E+00 0.00000000E+00 -.29684495E+04 0.29684495E+04 0.32000000E+00 0.0000E+00 0.9000E+01
       24  2    1    2    0    0 -.57924683E+03 0.21086282E+03 -.10484101E+04 0.12188505E+04 0.80265776E+02 0.0000E+00 0.0000E+00
       25  1    1    2    0    0 0.59010445E+03 -.19361880E+03 -.10784277E+04 0.12507369E+04 0.12500000E+03 0.0000E+00 0.9000E+01
       -1  1    3    3    0  502 -.15817211E+03 0.94090942E+02 -.33615820E+03 0.38324138E+03 0.32000000E+00 0.0000E+00 0.9000E+01
        2  1    3    3  502    0 -.42107472E+03 0.11677188E+03 -.71225195E+03 0.83560908E+03 0.32000000E+00 0.0000E+00 0.9000E+01
       21  1    1    2  503  501 -.10857616E+02 -.17244024E+02 -.67008191E+03 0.67039210E+03 0.75000000E+00 0.0000E+00 0.9000E+01
#aMCatNLO 2  0  0  2  1 0.33170246D+03 0.00000000D+00  -5  6  0 0.00000000D+00 0.00000000D+00 0.00000000D+00 0.00000000D+00 0.00000000D+00
  <mgrwgt>
 0.7343341764D-03    1    2    0
 0.627496473407580D+03 0.000000000000000D+00 0.000000000000000D+00 0.627496473407580D+03
 0.627496473407580D+03 0.000000000000000D+00 0.000000000000000D+00 -.627496473407580D+03
 0.631154822735200D+03 0.584634135875123D+03 -.202306726736926D+03 -.251510406171499D+01
 0.184530029496313D+03 -.159763862457604D+03 0.915559297384367D+02 -.120146480709407D+02
 0.439308094583647D+03 -.424870273417519D+03 0.110750796998489D+03 0.145297521326557D+02
 0.000000000000000D+00 -.000000000000000D+00 -.000000000000000D+00 -.000000000000000D+00
 0.628146390241445D+03 0.000000000000000D+00 0.000000000000000D+00 0.628146390241445D+03
 0.810601644369714D+03 0.000000000000000D+00 0.000000000000000D+00 -.810601644369714D+03
 0.633516238460660D+03 0.590104448419937D+03 -.193618797124413D+03 -.251510406171499D+01
 0.184430159682791D+03 -.158167931615718D+03 0.940905810416591D+02 -.120146480709407D+02
 0.437211974625543D+03 -.421078901196317D+03 0.116772239964096D+03 0.145297521326557D+02
 0.183589661842164D+03 -.108576156079023D+02 -.172440238813428D+02 -.182455254128268D+03
0.204045551773D-03 0.000000000000D+00 0.000000000000D+00 0.212605990067D-03 0.326289252960D-05  6 -1 2 25 -1 2 21 2 0.26389176D-01 0.45668400D+00 0.40634101D+06 0.40634101D+06 0.40634101D+06 0.10749356D+01  1  2  1  2  6  2        2 0.734334176395D-03 0.100000000000D+01
  </mgrwgt>
  </event>
  <event>
  7     66 0.16841828E-05 0.57078157E+02 0.75467711E-02 0.93697556E-01
       21 -1    0    0  503  501 0.00000000E+00 0.00000000E+00 0.11378013E+03 0.11378260E+03 0.75000000E+00 0.0000E+00 0.9000E+01
        2 -1    0    0  501    0 0.00000000E+00 0.00000000E+00 -.33948525E+04 0.33948525E+04 0.32000000E+00 0.0000E+00 0.9000E+01
       24  2    1    2    0    0 0.53317664E+02 -.53255082E+03 -.95349013E+03 0.10964425E+04 0.81176461E+02 0.0000E+00 0.0000E+00
       25  1    1    2    0    0 -.47080810E+02 0.51828704E+03 -.23345619E+04 0.23951289E+04 0.12500000E+03 0.0000E+00 0.9000E+01
       -1  1    3    3    0  502 0.14232494E+02 -.20909748E+03 -.29636794E+03 0.36298537E+03 0.32000000E+00 0.0000E+00 0.9000E+01
        2  1    3    3  502    0 0.39085171E+02 -.32345334E+03 -.65712218E+03 0.73345714E+03 0.32000000E+00 0.0000E+00 0.9000E+01
        1  1    1    2  503    0 -.62368548E+01 0.14263777E+02 0.69796382E+01 0.17063746E+02 0.32000000E+00 0.0000E+00 0.9000E+01
#aMCatNLO 2  0  0  1  1 0.12330254D+03 0.00000000D+00  -5  6  0 0.00000000D+00 0.00000000D+00 0.00000000D+00 0.00000000D+00 0.00000000D+00
  <mgrwgt>
 0.6661875406D-03    1    2    0
 0.587269591536428D+03 0.000000000000000D+00 0.000000000000000D+00 0.587269591536428D+03
 0.587269591536428D+03 0.000000000000000D+00 0.000000000000000D+00 -.587269591536428D+03
 0.591115943491110D+03 -.502020131332630D+02 0.525425281600134D+03 -.234949122114072D+03
 0.246771848679454D+03 0.129149115839770D+02 -.206083261175983D+03 0.135126754651050D+03
 0.336651390902293D+03 0.372871015492860D+02 -.319342020424151D+03 0.998223674630223D+02
 0.000000000000000D+00 -.000000000000000D+00 0.000000000000000D+00 0.000000000000000D+00
 0.656705756076109D+03 0.000000000000000D+00 0.000000000000000D+00 0.656705756076109D+03
 0.588194400092023D+03 0.000000000000000D+00 0.000000000000000D+00 -.588194400092023D+03
 0.584520447148385D+03 -.470808097133608D+02 0.518287044512121D+03 -.234949122114072D+03
 0.249364807950456D+03 0.142321074803798D+02 -.209095707125493D+03 0.135126754651050D+03
 0.340757093129415D+03 0.390855570018944D+02 -.323455113896716D+03 0.998223674630223D+02
 0.702578079398757D+02 -.623685476891342D+01 0.142637765100882D+02 0.685113559840863D+02
0.142584592179D-04 0.000000000000D+00 0.000000000000D+00 0.197339354314D-03 0.912712192640D-07  6 21 2 25 -1 2 1 2 0.17504816D-01 0.52228487D+00 0.29494551D+06 0.29494551D+06 0.29494551D+06 0.10850983D+01  1  2  1  5  6  1       -1 0.666187540576D-03 0.100000000000D+01
  </mgrwgt>
  </event>
  <event>
  7     66 0.16841828E-05 0.71379726E+02 0.75467711E-02 0.85069208E-01
       21 -1    0    0  503  501 0.00000000E+00 0.00000000E+00 0.17136848E+04 0.17136849E+04 0.75000000E+00 0.0000E+00 0.9000E+01
        2 -1    0    0  501    0 0.00000000E+00 0.00000000E+00 -.12967547E+04 0.12967547E+04 0.32000000E+00 0.0000E+00 0.9000E+01
       24  2    1    2    0    0 0.63377297E+03 0.11067074E+04 -.21377636E+03 0.12956354E+04 0.80630913E+02 0.0000E+00 0.0000E+00
       25  1    1    2    0    0 -.57985286E+03 -.10252165E+04 0.11511103E+03 0.11900310E+04 0.12500000E+03 0.0000E+00 0.9000E+01
       -1  1    3    3    0  502 0.17872045E+03 0.33744245E+03 -.99345515E+02 0.39456057E+03 0.32000000E+00 0.0000E+00 0.9000E+01
        2  1    3    3  502    0 0.45505252E+03 0.76926498E+03 -.11443084E+03 0.90107487E+03 0.32000000E+00 0.0000E+00 0.9000E+01
        1  1    1    2  503    0 -.53920108E+02 -.81490913E+02 0.51559545E+03 0.52477320E+03 0.32000000E+00 0.0000E+00 0.9000E+01
#aMCatNLO 2  0  0  1  2 0.11698757D+02 0.00000000D+00  -5  6  0 0.00000000D+00 0.00000000D+00 0.00000000D+00 0.00000000D+00 0.00000000D+00
  <mgrwgt>
 0.8933945066D-04    1    2    0
 0.124089228604969D+04 0.000000000000000D+00 0.000000000000000D+00 0.124089228604969D+04
 0.124089228604969D+04 0.000000000000000D+00 0.000000000000000D+00 -.124089228604969D+04
 0.124273041009419D+04 -.606329981723539D+03 -.106523210252430D+04 0.162475823394310D+03
 0.376257420514201D+03 0.170385373835759D+03 0.324845200655646D+03 -.837500237960700D+02
 0.862796741490997D+03 0.435944607887780D+03 0.740386901868658D+03 -.787257995982403D+02
 0.000000000000000D+00 -.000000000000000D+00 -.000000000000000D+00 0.000000000000000D+00
 0.178311261191403D+04 0.000000000000000D+00 0.000000000000000D+00 0.178311261191403D+04
 0.124626389349736D+04 0.000000000000000D+00 0.000000000000000D+00 -.124626389349736D+04
 0.119554240309895D+04 -.579852860547625D+03 -.102521651592953D+04 0.162475823394310D+03
 0.390917288939174D+03 0.178716097795516D+03 0.337435648227118D+03 -.837500237960700D+02
 0.897247780523118D+03 0.455056871221161D+03 0.769271780377836D+03 -.787257995982403D+02
 0.545669032850144D+03 -.539201084690530D+02 -.814909126754259D+02 0.536848718416672D+03
0.134659094041D-03 0.000000000000D+00 0.000000000000D+00 0.199035656408D-03 0.560046152655D-08  6 21 2 25 -1 2 1 2 0.26364382D+00 0.19950073D+00 0.16355765D+07 0.16355765D+07 0.16355765D+07 0.10339300D+01  1  2  1  5  6  1       -1 0.893394506595D-04 0.100000000000D+01
  </mgrwgt>
  </event>
  <event>
  7     66 0.16841828E-05 0.22384378E+03 0.75467711E-02 0.93511080E-01
       -1 -1    0    0    0  501 0.00000000E+00 0.00000000E+00 0.40367640E+03 0.40367653E+03 0.32000000E+00 0.0000E+00 0.9000E+01
        2 -1    0    0  503    0 0.00000000E+00 0.00000000E+00 -.11013298E+04 0.11013298E+04 0.32000000E+00 0.0000E+00 0.9000E+01
       24  2    1    2    0    0 -.28489901E+03 0.22535650E+03 -.14441078E+02 0.37219811E+03 0.79811559E+02 0.0000E+00 0.0000E+00
       25  1    1    2    0    0 0.13673898E+03 -.43682242E+03 -.86064630E+02 0.48222764E+03 0.12500000E+03 0.0000E+00 0.9000E+01
       -1  1    3    3    0  502 -.94695736E+02 0.12508278E+03 -.77701572E+01 0.15707789E+03 0.32000000E+00 0.0000E+00 0.9000E+01
        2  1    3    3  502    0 -.19020328E+03 0.10027372E+03 -.66709205E+01 0.21512022E+03 0.32000000E+00 0.0000E+00 0.9000E+01
       21  1    1    2  503  501 0.14816003E+03 0.21146592E+03 -.59714766E+03 0.65058060E+03 0.75000000E+00 0.0000E+00 0.9000E+01
#aMCatNLO 2  0  0  2  2 0.25440325D+02 0.00000000D+00  -5  6  0 0.00000000D+00 0.00000000D+00 0.00000000D+00 0.00000000D+00 0.00000000D+00
  <mgrwgt>
 0.1597323762D-01    1    2    0
 0.404126443285596D+03 0.000000000000000D+00 0.000000000000000D+00 0.404126443285596D+03
 0.404126443285596D+03 0.000000000000000D+00 0.000000000000000D+00 -.404126443285596D+03
 0.409851826502115D+03 0.215905926907392D+03 -.323828985577752D+03 -.295455328783130D+02
 0.180451664901288D+03 -.644937000752700D+02 0.168187763721724D+03 0.107815653099799D+02
 0.217949395167789D+03 -.151412226832122D+03 0.155641221856028D+03 0.187639675683331D+02
 0.000000000000000D+00 0.000000000000000D+00 0.000000000000000D+00 -.000000000000000D+00
 0.454314603281587D+03 0.000000000000000D+00 0.000000000000000D+00 0.454314603281587D+03
 0.978574149521598D+03 0.000000000000000D+00 0.000000000000000D+00 -.978574149521598D+03
 0.475404370194792D+03 0.136738980613895D+03 -.436822421434519D+03 -.295455328783130D+02
 0.157254683562508D+03 -.946942007343577D+02 0.125083179121305D+03 0.107815653099799D+02
 0.215834882000021D+03 -.190204812189495D+03 0.100273322618813D+03 0.187639675683331D+02
 0.584394817045864D+03 0.148160032309958D+03 0.211465919694401D+03 -.524259546240011D+03
0.168248507338D-02 0.000000000000D+00 0.000000000000D+00 0.204365340263D-03 0.256921635535D-07  6 -1 2 25 -1 2 21 2 0.62104044D-01 0.16943528D+00 0.30503064D+06 0.30503064D+06 0.30503064D+06 0.10840179D+01  1  2  1  2  6  2        2 0.159732376172D-01 0.100000000000D+01
  </mgrwgt>
  </event>
  <event>
  7     66 0.16841828E-05 0.30246035E+02 0.75467711E-02 0.94977556E-01
       -1 -1    0    0    0  503 0.00000000E+00 0.00000000E+00 0.74919621E+03 0.74919627E+03 0.32000000E+00 0.0000E+00 0.9000E+01
        2 -1    0    0  501    0 0.00000000E+00 0.00000000E+00 -.76313517E+03 0.76313524E+03 0.32000000E+00 0.0000E+00 0.9000E+01
       24  2    1    2    0    0 0.43151450E+03 0.18377051E+03 -.57164349E+03 0.74374101E+03 0.79987796E+02 0.0000E+00 0.0000E+00
       25  1    1    2    0    0 -.42524669E+03 -.19498001E+03 0.45296632E+03 0.66306518E+03 0.12500000E+03 0.0000E+00 0.9000E+01
       -1  1    3    3    0  502 0.81252654E+02 0.11196831E+02 -.68526331E+02 0.10687995E+03 0.32000000E+00 0.0000E+00 0.9000E+01
        2  1    3    3  502    0 0.35026184E+03 0.17257368E+03 -.50311716E+03 0.63686106E+03 0.32000000E+00 0.0000E+00 0.9000E+01
       21  1    1    2  501  503 -.62678069E+01 0.11209499E+02 0.10473821E+03 0.10552532E+03 0.75000000E+00 0.0000E+00 0.9000E+01
#aMCatNLO 2  0  0  1  2 0.22089366D+01 0.00000000D+00  -5  6  0 0.00000000D+00 0.00000000D+00 0.00000000D+00 0.00000000D+00 0.00000000D+00
  <mgrwgt>
 0.1932785174D-02    1    2    0
 0.700866329640867D+03 0.000000000000000D+00 0.000000000000000D+00 0.700866329640867D+03
 0.700866329640867D+03 0.000000000000000D+00 0.000000000000000D+00 -.700866329640867D+03
 0.704157596501482D+03 -.428394411531613D+03 -.189350548347334D+03 0.510722545732799D+03
 0.101183335404892D+03 0.807953165830586D+02 0.120044609535693D+02 -.597166400521367D+02
 0.596391727375359D+03 0.347599094948554D+03 0.177346087393765D+03 -.451005905680662D+03
 0.000000000000000D+00 -.000000000000000D+00 0.000000000000000D+00 0.000000000000000D+00
 0.815302747419268D+03 0.000000000000000D+00 0.000000000000000D+00 0.815302747419268D+03
 0.701256165834004D+03 0.000000000000000D+00 0.000000000000000D+00 -.701256165834004D+03
 0.703785812782933D+03 -.425246688542777D+03 -.194980012919647D+03 0.510722545732799D+03
 0.101452857782473D+03 0.812483480042506D+02 0.111942485095930D+02 -.597166400521367D+02
 0.596552821191706D+03 0.350266147441693D+03 0.172576265660442D+03 -.451005905680662D+03
 0.114767421496160D+03 -.626780690316659D+01 0.112094987496121D+02 0.114046581585264D+03
0.441756395747D-03 0.000000000000D+00 0.000000000000D+00 0.877061297149D-04 0.342099730656D-05  6 -1 2 25 -1 2 21 2 0.11526076D+00 0.11740522D+00 0.23501147D+06 0.23501147D+06 0.23501147D+06 0.10924849D+01  1  2  1  1  6  1       -1 0.193278517411D-02 0.100000000000D+01
  </mgrwgt>
  </event>
  <event>
  7     66 0.16841828E-05 0.46960911E+02 0.75467711E-02 0.93866895E-01
       21 -1    0    0  503  501 0.00000000E+00 0.00000000E+00 0.25786475E+03 0.25786584E+03 0.75000000E+00 0.0000E+00 0.9000E+01
        2 -1    0    0  501    0 0.00000000E+00 0.00000000E+00 -.18258338E+04 0.18258338E+04 0.32000000E+00 0.0000E+00 0.9000E+01
       24  2    1    2    0    0 -.16944950E+03 0.45957471E+03 -.15366264E+03 0.51918821E+03 0.77602452E+02 0.0000E+00 0.0000E+00
       25  1    1    2    0    0 0.15362276E+03 -.49697681E+03 -.14253328E+04 0.15224272E+04 0.12500000E+03 0.0000E+00 0.9000E+01
       -1  1    3    3    0  502 -.91993045E+01 0.10115331E+03 -.49501138E+02 0.11299153E+03 0.32000000E+00 0.0000E+00 0.9000E+01
        2  1    3    3  502    0 -.16025019E+03 0.35842140E+03 -.10416150E+03 0.40619668E+03 0.32000000E+00 0.0000E+00 0.9000E+01
        1  1    1    2  503    0 0.15826737E+02 0.37402103E+02 0.11026401E+02 0.42084283E+02 0.32000000E+00 0.0000E+00 0.9000E+01
#aMCatNLO 2  0  0  1  4 0.16292045D+03 0.00000000D+00  -5  6  0 0.00000000D+00 0.00000000D+00 0.00000000D+00 0.00000000D+00 0.00000000D+00
  <mgrwgt>
 0.3704972237D-03    1    2    0
 0.646783838535020D+03 0.000000000000000D+00 0.000000000000000D+00 0.646783838535020D+03
 0.646783838535020D+03 0.000000000000000D+00 0.000000000000000D+00 -.646783838535020D+03
 0.650495611668448D+03 0.161653973509783D+03 -.477997267567358D+03 -.391032154491861D+03
 0.120714273556884D+03 -.773772025814166D+01 0.104596916895801D+03 0.597624338649770D+02
 0.522357791844707D+03 -.153916253251642D+03 0.373400350671556D+03 0.331269720626884D+03
 0.000000000000000D+00 0.000000000000000D+00 0.000000000000000D+00 0.000000000000000D+00
 0.721392226733980D+03 0.000000000000000D+00 0.000000000000000D+00 0.721392226733980D+03
 0.652653107817589D+03 0.000000000000000D+00 0.000000000000000D+00 -.652653107817589D+03
 0.662659075135653D+03 0.153622760591066D+03 -.496976811774425D+03 -.391032154491861D+03
 0.117844117919648D+03 -.919673590553470D+01 0.101148938083789D+03 0.597624338649770D+02
 0.513701867236480D+03 -.160252761663172D+03 0.358425770526282D+03 0.331269720626884D+03
 0.798402742597877D+02 0.158267369776403D+02 0.374021031643545D+02 0.687391189163907D+02
0.447123037373D-05 0.000000000000D+00 0.000000000000D+00 0.116152456855D-04 0.811500113086D-09  6 21 2 25 -1 2 1 2 0.39671567D-01 0.28089745D+00 0.28611011D+06 0.28611011D+06 0.28611011D+06 0.10860784D+01  1  2  1  5  6  1       -1 0.370497223691D-03 0.100000000000D+01
  </mgrwgt>
  </event>
  <event>
  7     66 0.16841828E-05 0.49109001E+02 0.75467711E-02 0.94332468E-01
       -1 -1    0    0    0  503 0.00000000E+00 0.00000000E+00 0.45458281E+03 0.45458292E+03 0.32000000E+00 0.0000E+00 0.9000E+01
        2 -1    0    0  501    0 0.00000000E+00 0.00000000E+00 -.78531163E+03 0.78531169E+03 0.32000000E+00 0.0000E+00 0.9000E+01
       24  2    1    2    0    0 0.38114293E+03 -.31674289E+03 -.41059301E+03 0.64854599E+03 0.80182795E+02 0.0000E+00 0.0000E+00
       25  1    1    2    0    0 -.38018386E+03 0.32744446E+03 0.64337754E+01 0.51713251E+03 0.12500000E+03 0.0000E+00 0.9000E+01
       -1  1    3    3    0  502 0.24564445E+03 -.23634692E+03 -.24372581E+03 0.41905064E+03 0.32000000E+00 0.0000E+00 0.9000E+01
        2  1    3    3  502    0 0.13549848E+03 -.80395975E+02 -.16686720E+03 0.22949535E+03 0.32000000E+00 0.0000E+00 0.9000E+01
       21  1    1    2  501  503 -.95907169E+00 -.10701566E+02 0.73430413E+02 0.74216113E+02 0.75000000E+00 0.0000E+00 0.9000E+01
#aMCatNLO 2  0  0  1  4 0.16292045D+03 0.00000000D+00  -5  6  0 0.00000000D+00 0.00000000D+00 0.00000000D+00 0.00000000D+00 0.00000000D+00
  <mgrwgt>
 0.9095767719D-03    1    2    0
 0.546659453669158D+03 0.000000000000000D+00 0.000000000000000D+00 0.546659453669158D+03
 0.546659453669158D+03 0.000000000000000D+00 0.000000000000000D+00 -.546659453669158D+03
 0.550864868612875D+03 -.380668321117947D+03 0.322038722348206D+03 0.198014630968165D+03
 0.358789205486495D+03 0.245332407039276D+03 -.239850849233424D+03 -.104944147773714D+03
 0.183664833238946D+03 0.135335914078671D+03 -.821878731147826D+02 -.930704831944511D+02
 0.000000000000000D+00 -.000000000000000D+00 -.000000000000000D+00 0.000000000000000D+00
 0.652678000768998D+03 0.000000000000000D+00 0.000000000000000D+00 0.652678000768998D+03
 0.546958142674006D+03 0.000000000000000D+00 0.000000000000000D+00 -.546958142674006D+03
 0.553709704319465D+03 -.380183860171837D+03 0.327444461008172D+03 0.198014630968165D+03
 0.356674043492962D+03 0.245646205682664D+03 -.236349404025858D+03 -.104944147773714D+03
 0.182987953157528D+03 0.135496726177867D+03 -.803934907428024D+02 -.930704831944511D+02
 0.106264442473049D+03 -.959071688693343D+00 -.107015662395110D+02 0.105719858094992D+03
0.744859587963D-04 0.000000000000D+00 0.000000000000D+00 0.261439259270D-03 0.145579015312D-04  6 -1 2 25 -1 2 21 2 0.69935661D-01 0.12081689D+00 0.26330969D+06 0.26330969D+06 0.26330969D+06 0.10887685D+01  1  2  1  1  6  1       -1 0.909576771863D-03 0.100000000000D+01
  </mgrwgt>
  </event>
  <event>
  7     66 0.16841828E-05 0.24584016E+02 0.75467711E-02 0.94383052E-01
       -1 -1    0    0    0  501 0.00000000E+00 0.00000000E+00 0.88380963E+03 0.88380969E+03 0.32000000E+00 0.0000E+00 0.9000E+01
        2 -1    0    0  503    0 0.00000000E+00 0.00000000E+00 -.10119783E+04 0.10119783E+04 0.32000000E+00 0.0000E+00 0.9000E+01
       24  2    1    2    0    0 0.34365086E+03 -.29926884E+03 -.27085769E+03 0.53622467E+03 0.80717145E+02 0.0000E+00 0.0000E+00
       25  1    1    2    0    0 -.38761191E+03 0.31268056E+03 0.66224545E+03 0.83797742E+03 0.12500000E+03 0.0000E+00 0.9000E+01
       -1  1    3    3    0  502 0.28040825E+03 -.19949066E+03 -.19034396E+03 0.39326357E+03 0.32000000E+00 0.0000E+00 0.9000E+01
        2  1    3    3  502    0 0.63242609E+02 -.99778189E+02 -.80513723E+02 0.14296110E+03 0.32000000E+00 0.0000E+00 0.9000E+01
       21  1    1    2  503  501 0.43961051E+02 -.13411711E+02 -.51955643E+03 0.52158594E+03 0.75000000E+00 0.0000E+00 0.9000E+01
#aMCatNLO 2  0  0  2  1 0.43724043D+01 0.00000000D+00  -5  6  0 0.00000000D+00 0.00000000D+00 0.00000000D+00 0.00000000D+00 0.00000000D+00
  <mgrwgt>
 0.6837769157D-02    1    2    0
 0.658242842346510D+03 0.000000000000000D+00 0.000000000000000D+00 0.658242842346510D+03
 0.658242842346510D+03 0.000000000000000D+00 0.000000000000000D+00 -.658242842346510D+03
 0.661702713841740D+03 -.365260255455276D+03 0.305861475321367D+03 0.441881415319209D+03
 0.478494167485803D+03 0.296190061406150D+03 -.204305922814957D+03 -.315415925002023D+03
 0.176288803365478D+03 0.690701940491260D+02 -.101555552506409D+03 -.126465490317186D+03
 0.000000000000000D+00 0.000000000000000D+00 -.000000000000000D+00 -.000000000000000D+00
 0.659400770413636D+03 0.000000000000000D+00 0.000000000000000D+00 0.659400770413636D+03
 0.135637651410503D+04 0.000000000000000D+00 0.000000000000000D+00 -.135637651410503D+04
 0.677418856354352D+03 -.387611909171045D+03 0.312680555213639D+03 0.441881415319209D+03
 0.466813723962199D+03 0.280411662256522D+03 -.199492222417588D+03 -.315415925002023D+03
 0.173055165774167D+03 0.632391958786176D+02 -.997766218338955D+02 -.126465490317186D+03
 0.698489538427945D+03 0.439610510359048D+02 -.134117109621555D+02 -.696975743691393D+03
0.350240716920D-02 0.000000000000D+00 0.000000000000D+00 0.122499042846D-03 0.449171931930D-06  6 -1 2 25 -1 2 21 2 0.13597068D+00 0.15568893D+00 0.26095769D+06 0.26095769D+06 0.26095769D+06 0.10890603D+01  1  2  1  2  6  2        2 0.683776915673D-02 0.100000000000D+01
  </mgrwgt>
  </event>
  <event>
  7     66 0.16841828E-05 0.37559122E+02 0.75467711E-02 0.90378888E-01
       -1 -1    0    0    0  503 0.00000000E+00 0.00000000E+00 0.59355047E+03 0.59355056E+03 0.32000000E+00 0.0000E+00 0.9000E+01
        2 -1    0    0  501    0 0.00000000E+00 0.00000000E+00 -.18820852E+04 0.18820853E+04 0.32000000E+00 0.0000E+00 0.9000E+01
       24  2    1    2    0    0 -.37146274E+03 -.63105332E+03 -.96454128E+03 0.12137227E+04 0.81055239E+02 0.0000E+00 0.0000E+00
       25  1    1    2    0    0 0.36258278E+03 0.60146936E+03 -.63159181E+03 0.95276696E+03 0.12500000E+03 0.0000E+00 0.9000E+01
       -1  1    3    3    0  502 -.14046742E+03 -.16924542E+03 -.30747181E+03 0.37803984E+03 0.32000000E+00 0.0000E+00 0.9000E+01
        2  1    3    3  502    0 -.23099532E+03 -.46180790E+03 -.65706947E+03 0.83568281E+03 0.32000000E+00 0.0000E+00 0.9000E+01
       21  1    1    2  501  503 0.88799536E+01 0.29583961E+02 0.30759834E+03 0.30914619E+03 0.75000000E+00 0.0000E+00 0.9000E+01
#aMCatNLO 2  0  0  1  4 0.16292045D+03 0.00000000D+00  -5  6  0 0.00000000D+00 0.00000000D+00 0.00000000D+00 0.00000000D+00 0.00000000D+00
  <mgrwgt>
 0.1700660993D-02    1    2    0
 0.732304984573407D+03 0.000000000000000D+00 0.000000000000000D+00 0.732304984573407D+03
 0.732304984573407D+03 0.000000000000000D+00 0.000000000000000D+00 -.732304984573407D+03
 0.735396267699427D+03 0.366997032309084D+03 0.616175622966141D+03 0.104035813472385D+03
 0.219848675626654D+03 -.139120413854666D+03 -.164757963942823D+03 -.428224700492116D+02
 0.509365025820733D+03 -.227876618454418D+03 -.451417659023318D+03 -.612133434231730D+02
 0.000000000000000D+00 0.000000000000000D+00 0.000000000000000D+00 0.000000000000000D+00
 0.152450803500451D+04 0.000000000000000D+00 0.000000000000000D+00 0.152450803500451D+04
 0.732768960823405D+03 0.000000000000000D+00 0.000000000000000D+00 -.732768960823405D+03
 0.720888421557888D+03 0.362582784443942D+03 0.601469359382704D+03 0.104035813472385D+03
 0.224069030695410D+03 -.140466004316398D+03 -.169240858562732D+03 -.428224700492116D+02
 0.519978186628560D+03 -.230996733711806D+03 -.461812462121757D+03 -.612133434231730D+02
 0.792341356946052D+03 0.887995358426192D+01 0.295839613017843D+02 0.791739074181101D+03
0.114164310901D-02 0.000000000000D+00 0.000000000000D+00 0.157938089920D-03 0.127999612605D-05  6 -1 2 25 -1 2 21 2 0.91315443D-01 0.28955151D+00 0.54799327D+06 0.54799327D+06 0.54799327D+06 0.10657085D+01  1  2  1  1  6  1       -1 0.170066099259D-02 0.100000000000D+01
  </mgrwgt>
  </event>
  <event>
  7     66 0.16841828E-05 0.45041152E+02 0.75467711E-02 0.93535356E-01
       -1 -1    0    0    0  503 0.00000000E+00 0.00000000E+00 0.69152926E+03 0.69152933E+03 0.32000000E+00 0.0000E+00 0.9000E+01
        2 -1    0    0  501    0 0.00000000E+00 0.00000000E+00 -.55102925E+03 0.55102934E+03 0.32000000E+00 0.0000E+00 0.9000E+01
       24  2    1    2    0    0 -.49872566E+03 -.18810505E+03 -.15895307E+03 0.56218264E+03 0.81685050E+02 0.0000E+00 0.0000E+00
       25  1    1    2    0    0 0.50980670E+03 0.18915791E+03 0.21938069E+03 0.59953021E+03 0.12500000E+03 0.0000E+00 0.9000E+01
       -1  1    3    3    0  502 -.35810496E+03 -.13923581E+03 -.75676656E+02 0.39160290E+03 0.32000000E+00 0.0000E+00 0.9000E+01
        2  1    3    3  502    0 -.14062071E+03 -.48869235E+02 -.83276412E+02 0.17057974E+03 0.32000000E+00 0.0000E+00 0.9000E+01
       21  1    1    2  501  503 -.11081032E+02 -.10528620E+01 0.80072387E+02 0.80845825E+02 0.75000000E+00 0.0000E+00 0.9000E+01
#aMCatNLO 2  0  0  1  2 0.18226673D+02 0.00000000D+00  -5  6  0 0.00000000D+00 0.00000000D+00 0.00000000D+00 0.00000000D+00 0.00000000D+00
  <mgrwgt>
 0.2457231046D-02    1    2    0
 0.580043392288320D+03 0.000000000000000D+00 0.000000000000000D+00 0.580043392288320D+03
 0.580043392288320D+03 0.000000000000000D+00 0.000000000000000D+00 -.580043392288320D+03
 0.583901962486794D+03 0.504205504777172D+03 0.188625714941706D+03 0.188450657762335D+03
 0.399644083212394D+03 -.361908538971543D+03 -.139598280127202D+03 -.961765192325299D+02
 0.176540738877452D+03 -.142296965805630D+03 -.490274348145033D+02 -.922741385298047D+02
 0.000000000000000D+00 -.000000000000000D+00 -.000000000000000D+00 0.000000000000000D+00
 0.656445365308764D+03 0.000000000000000D+00 0.000000000000000D+00 0.656445365308764D+03
 0.580475647777393D+03 0.000000000000000D+00 0.000000000000000D+00 -.580475647777393D+03
 0.588916151303207D+03 0.509806696278966D+03 0.189157910973481D+03 0.188450657762335D+03
 0.396078869433036D+03 -.358108293573100D+03 -.139237200610429D+03 -.961765192325299D+02
 0.175145162839790D+03 -.140617370256382D+03 -.488678483968613D+02 -.922741385298047D+02
 0.767808295101239D+02 -.110810324494843D+02 -.105286196619129D+01 0.759697175313713D+02
0.323086207285D-03 0.000000000000D+00 0.000000000000D+00 0.110886118601D-03 0.565712147083D-05  6 -1 2 25 -1 2 21 2 0.10638879D+00 0.84773476D-01 0.30369613D+06 0.30369613D+06 0.30369613D+06 0.10841586D+01  1  2  1  1  6  1       -1 0.245723104648D-02 0.100000000000D+01
  </mgrwgt>
  </event>
  <event>
  7     66 0.16841828E-05 0.43046480E+02 0.75467711E-02 0.94034765E-01
       -1 -1    0    0    0  503 0.00000000E+00 0.00000000E+00 0.35211507E+03 0.35211522E+03 0.32000000E+00 0.0000E+00 0.9000E+01
        2 -1    0    0  501    0 0.00000000E+00 0.00000000E+00 -.11465452E+04 0.11465452E+04 0.32000000E+00 0.0000E+00 0.9000E+01
       24  2    1    2    0    0 0.16278172E+03 -.49019978E+03 -.97078671E+02 0.53177487E+03 0.81034123E+02 0.0000E+00 0.0000E+00
       25  1    1    2    0    0 -.15751054E+03 0.48100103E+03 -.74987595E+03 0.91329650E+03 0.12500000E+03 0.0000E+00 0.9000E+01
       -1  1    3    3    0  502 0.15213198E+03 -.35434834E+03 -.85688803E+02 0.39503108E+03 0.32000000E+00 0.0000E+00 0.9000E+01
        2  1    3    3  502    0 0.10649744E+02 -.13585144E+03 -.11389868E+02 0.13674378E+03 0.32000000E+00 0.0000E+00 0.9000E+01
       21  1    1    2  501  503 -.52711860E+01 0.91987496E+01 0.52524513E+02 0.53589078E+02 0.75000000E+00 0.0000E+00 0.9000E+01
#aMCatNLO 2  0  0  1  2 0.14283248D+01 0.00000000D+00  -5  6  0 0.00000000D+00 0.00000000D+00 0.00000000D+00 0.00000000D+00 0.00000000D+00
  <mgrwgt>
 0.4215268809D-02    1    2    0
 0.585403006742888D+03 0.000000000000000D+00 0.000000000000000D+00 0.585403006742888D+03
 0.585403006742888D+03 0.000000000000000D+00 0.000000000000000D+00 -.585403006742888D+03
 0.589271483147673D+03 -.160153333563440D+03 0.485612975911380D+03 -.264852465017922D+03
 0.422116808178698D+03 0.150226005407409D+03 -.351021781005262D+03 0.179995711910585D+03
 0.159417722159406D+03 0.992732815603068D+01 -.134591194906118D+03 0.848567531073371D+02
 0.000000000000000D+00 -.000000000000000D+00 0.000000000000000D+00 0.000000000000000D+00
 0.689287687436871D+03 0.000000000000000D+00 0.000000000000000D+00 0.689287687436871D+03
 0.585697567837663D+03 0.000000000000000D+00 0.000000000000000D+00 -.585697567837663D+03
 0.584759254469154D+03 -.157510535577308D+03 0.481001027694745D+03 -.264852465017922D+03
 0.425568355864673D+03 0.152134184275840D+03 -.354351744996250D+03 0.179995711910585D+03
 0.160526404311413D+03 0.106475373175287D+02 -.135848032309281D+03 0.848567531073371D+02
 0.104131240629294D+03 -.527118601606042D+01 0.919874961078617D+01 0.103590119599207D+03
0.362153605157D-03 0.000000000000D+00 0.000000000000D+00 0.112259929672D-03 0.638763664573D-05  6 -1 2 25 -1 2 21 2 0.54171440D-01 0.17639117D+00 0.27764315D+06 0.27764315D+06 0.27764315D+06 0.10870491D+01  1  2  1  1  6  1       -1 0.421526880899D-02 0.100000000000D+01
  </mgrwgt>
  </event>
  <event>
  6     66 0.16841828E-05 0.39313940E+02 0.75467711E-02 0.93866187E-01
       -1 -1    0    0    0  501 0.00000000E+00 0.00000000E+00 0.21069693E+03 0.21069717E+03 0.32000000E+00 0.0000E+00 0.9000E+01
        2 -1    0    0  501    0 -.00000000E+00 -.00000000E+00 -.24042371E+04 0.24042371E+04 0.32000000E+00 0.0000E+00 0.9000E+01
       25  1    1    2    0    0 -.45108053E+03 -.26272411E+03 -.23919546E+03 0.58765387E+03 0.12500000E+03 0.0000E+00 0.9000E+01
       -1  1    1    2    0  502 0.33225836E+03 0.19453379E+03 -.12824870E+04 0.13390340E+04 0.32000000E+00 0.0000E+00 0.9000E+01
        2  1    1    2  503    0 0.12121332E+03 0.52395242E+02 -.62287134E+03 0.63671559E+03 0.32000000E+00 0.0000E+00 0.9000E+01
       21  1    1    2  502  503 -.23911576E+01 0.15795075E+02 -.48986301E+02 0.51530789E+02 0.75000000E+00 0.0000E+00 0.9000E+01
#aMCatNLO 2  0  0  5  4 0.83272904D+00 0.00000000D+00  -5  6  0 0.00000000D+00 0.00000000D+00 0.00000000D+00 0.00000000D+00 0.00000000D+00
  <mgrwgt>
 0.5230040842D-01    1    2    0
 0.711734304019701D+03 0.000000000000000D+00 0.000000000000000D+00 0.711734304019701D+03
 0.711734304019701D+03 -.000000000000000D+00 -.000000000000000D+00 -.711734304019701D+03
 0.714741701630845D+03 -.453190310299010D+03 -.263934883333591D+03 0.469241537015775D+03
 0.481039604638313D+03 0.330882905765726D+03 0.193745062172764D+03 -.290479697717907D+03
 0.227687301770244D+03 0.122307404533284D+03 0.701898211608273D+02 -.178761839297868D+03
 0.000000000000000D+00 0.000000000000000D+00 0.000000000000000D+00 -.000000000000000D+00
 0.711734304019701D+03 0.000000000000000D+00 0.000000000000000D+00 0.711734304019701D+03
 0.711734304019701D+03 -.000000000000000D+00 -.000000000000000D+00 -.711734304019701D+03
 0.710920862573511D+03 -.451073769472557D+03 -.262720242056104D+03 0.466148047030195D+03
 0.483620168021177D+03 0.332315041141751D+03 0.194566936582615D+03 -.292572875599644D+03
 0.209712464837378D+03 0.121171064878109D+03 0.523096791511683D+02 -.162974195538974D+03
 0.192151126073359D+02 -.241233654730303D+01 0.158436263223208D+02 -.106009758915776D+02
0.906764575756D-02 0.000000000000D+00 0.000000000000D+00 0.125858641877D-04 0.268701290809D-05  6 -1 2 25 -1 2 21 2 0.32414933D-01 0.36988265D+00 0.28614640D+06 0.28614640D+06 0.28614640D+06 0.10860743D+01  1  2  1  4  6  5        2 0.523004084174D-01 0.100000000000D+01
  </mgrwgt>
  </event>
  <event>
  7     66 0.16841828E-05 0.43498429E+02 0.75467711E-02 0.93709287E-01
       -1 -1    0    0    0  501 0.00000000E+00 0.00000000E+00 0.63387646E+03 0.63387654E+03 0.32000000E+00 0.0000E+00 0.9000E+01
        2 -1    0    0  503    0 0.00000000E+00 0.00000000E+00 -.10341685E+04 0.10341685E+04 0.32000000E+00 0.0000E+00 0.9000E+01
       24  2    1    2    0    0 -.16208932E+03 0.50639551E+03 -.23521792E+03 0.58687761E+03 0.79928059E+02 0.0000E+00 0.0000E+00
       25  1    1    2    0    0 0.15440900E+03 -.49711453E+03 0.30152234E+03 0.61441494E+03 0.12500000E+03 0.0000E+00 0.9000E+01
       -1  1    3    3    0  502 -.84424698E+02 0.38023259E+03 -.17333413E+03 0.42632051E+03 0.32000000E+00 0.0000E+00 0.9000E+01
        2  1    3    3  502    0 -.77664626E+02 0.12616292E+03 -.61883794E+02 0.16055710E+03 0.32000000E+00 0.0000E+00 0.9000E+01
       21  1    1    2  503  501 0.76803233E+01 -.92809856E+01 -.46659645E+03 0.46675254E+03 0.75000000E+00 0.0000E+00 0.9000E+01
#aMCatNLO 2  0  0  2  5 0.29245525D+03 0.00000000D+00  -5  6  0 0.00000000D+00 0.00000000D+00 0.00000000D+00 0.00000000D+00 0.00000000D+00
  <mgrwgt>
 0.1332100873D-01    1    2    0
 0.599700422589744D+03 0.000000000000000D+00 0.000000000000000D+00 0.599700422589744D+03
 0.599700422589744D+03 0.000000000000000D+00 0.000000000000000D+00 -.599700422589744D+03
 0.603550888994236D+03 0.158258143169909D+03 -.501765873408993D+03 0.268018738166301D+03
 0.433096513297883D+03 -.816404768508478D+02 0.376872050228254D+03 -.197167137543511D+03
 0.162753442887369D+03 -.766176663190612D+02 0.124893823180739D+03 -.708516006227898D+02
 0.000000000000000D+00 0.000000000000000D+00 -.000000000000000D+00 -.000000000000000D+00
 0.599804236050309D+03 0.000000000000000D+00 0.000000000000000D+00 0.599804236050309D+03
 0.109291417419507D+04 0.000000000000000D+00 0.000000000000000D+00 -.109291417419507D+04
 0.598685257499082D+03 0.154409000697809D+03 -.497114528093870D+03 0.268018738166301D+03
 0.436557383293753D+03 -.844248065011931D+02 0.380236664234819D+03 -.197167137543511D+03
 0.164218701426258D+03 -.776645175317304D+02 0.126158849486981D+03 -.708516006227898D+02
 0.493257068026286D+03 0.768032333511472D+01 -.928098562793043D+01 -.493109938144762D+03
0.319587832622D-02 0.000000000000D+00 0.000000000000D+00 0.145846365389D-03 0.751583523159D-05  6 -1 2 25 -1 2 21 2 0.97519419D-01 0.15910278D+00 0.29432371D+06 0.29432371D+06 0.29432371D+06 0.10851662D+01  1  2  1  2  6  2        2 0.133210087277D-01 0.100000000000D+01
  </mgrwgt>
  </event>
  <event>
  7     66 0.16841828E-05 0.59543683E+02 0.75467711E-02 0.95205401E-01
       -1 -1    0    0    0  501 0.00000000E+00 0.00000000E+00 0.23123348E+03 0.23123370E+03 0.32000000E+00 0.0000E+00 0.9000E+01
        2 -1    0    0  501    0 -.00000000E+00 -.00000000E+00 -.99144144E+03 0.99144149E+03 0.32000000E+00 0.0000E+00 0.9000E+01
       24  2    1    2    0    0 0.35816539E+03 -.29611863E+03 -.38390701E+03 0.61177742E+03 0.10449080E+03 0.0000E+00 0.0000E+00
       25  1    1    2    0    0 -.35816539E+03 0.29611863E+03 -.37630095E+03 0.61089778E+03 0.12500000E+03 0.0000E+00 0.9000E+01
       -1  1    3    3    0  502 0.21903066E+03 -.18817667E+03 -.28093706E+03 0.40287793E+03 0.32000000E+00 0.0000E+00 0.9000E+01
        2  1    3    3  503    0 0.13777370E+03 -.94805555E+02 -.88207830E+02 0.18907779E+03 0.32000000E+00 0.0000E+00 0.9000E+01
       21  1    3    3  502  503 0.13610355E+01 -.13136400E+02 -.14762113E+02 0.19821703E+02 0.75000000E+00 0.0000E+00 0.9000E+01
#aMCatNLO 2  0  0  5  4 0.83272904D+00 0.00000000D+00  -5  6  0 0.00000000D+00 0.00000000D+00 0.00000000D+00 0.00000000D+00 0.00000000D+00
  <mgrwgt>
 0.2485409824D-01    1    2    0
 0.478805413443873D+03 0.000000000000000D+00 0.000000000000000D+00 0.478805413443873D+03
 0.478805413443873D+03 -.000000000000000D+00 -.000000000000000D+00 -.478805413443873D+03
 0.483919571661713D+03 -.360343593340843D+03 0.297808490785372D+03 0.396855031506815D+01
 0.289823563667909D+03 0.217759419891636D+03 -.187194014866159D+03 -.392037485951624D+02
 0.183867691558124D+03 0.142584173449207D+03 -.110614475919213D+03 0.352351982800942D+02
 0.000000000000000D+00 0.000000000000000D+00 -.000000000000000D+00 0.000000000000000D+00
 0.478805413443873D+03 0.000000000000000D+00 0.000000000000000D+00 0.478805413443873D+03
 0.478805413443873D+03 -.000000000000000D+00 -.000000000000000D+00 -.478805413443873D+03
 0.481252124962627D+03 -.358156510297539D+03 0.296111787436223D+03 0.450901916810898D+01
 0.291429655883253D+03 0.219076542083255D+03 -.188215816777431D+03 -.388782632312672D+02
 0.171323375127816D+03 0.137741529055489D+03 -.947236818583540D+02 0.375019217352851D+02
 0.136056709140486D+02 0.133843915879411D+01 -.131722888004383D+02 -.313267767212690D+01
0.799692725100D-03 0.000000000000D+00 0.000000000000D+00 0.119902183209D-04 0.155843029268D-05  6 -1 2 25 -1 2 21 2 0.35574403D-01 0.15252947D+00 0.22584561D+06 0.22584561D+06 0.22584561D+06 0.10937945D+01  1  2  1  4  6  5        2 0.248540982376D-01 0.100000000000D+01
  </mgrwgt>
  </event>
  <event>
  7     66 0.16841828E-05 0.42958864E+02 0.75467711E-02 0.84382375E-01
       -1 -1    0    0    0  501 0.00000000E+00 0.00000000E+00 0.10858574E+04 0.10858574E+04 0.32000000E+00 0.0000E+00 0.9000E+01
        2 -1    0    0  503    0 0.00000000E+00 0.00000000E+00 -.24462222E+04 0.24462223E+04 0.32000000E+00 0.0000E+00 0.9000E+01
       24  2    1    2    0    0 -.47971234E+03 -.12723970E+04 -.51825711E+03 0.14573576E+04 0.78629919E+02 0.0000E+00 0.0000E+00
       25  1    1    2    0    0 0.48396104E+03 0.12882186E+04 -.15842722E+03 0.13908449E+04 0.12500000E+03 0.0000E+00 0.9000E+01
       -1  1    3    3    0  502 -.16800438E+03 -.36815183E+03 -.12925986E+03 0.42481697E+03 0.32000000E+00 0.0000E+00 0.9000E+01
        2  1    3    3  502    0 -.31170796E+03 -.90424516E+03 -.38899725E+03 0.10325406E+04 0.32000000E+00 0.0000E+00 0.9000E+01
       21  1    1    2  503  501 -.42487015E+01 -.15821613E+02 -.68368053E+03 0.68387718E+03 0.75000000E+00 0.0000E+00 0.9000E+01
#aMCatNLO 2  0  0  2  5 0.29245525D+03 0.00000000D+00  -5  6  0 0.00000000D+00 0.00000000D+00 0.00000000D+00 0.00000000D+00 0.00000000D+00
  <mgrwgt>
 0.4313509677D-02    1    2    0
 0.138330108826511D+04 0.000000000000000D+00 0.000000000000000D+00 0.138330108826511D+04
 0.138330108826511D+04 0.000000000000000D+00 0.000000000000000D+00 -.138330108826511D+04
 0.138500757428311D+04 0.481827878543545D+03 0.128027499273273D+04 0.177084215171804D+03
 0.408085157641707D+03 -.168626871125534D+03 -.370469906521431D+03 -.291637203365994D+02
 0.973509444605395D+03 -.313201007418011D+03 -.909805086211303D+03 -.147920494835204D+03
 0.000000000000000D+00 -.000000000000000D+00 -.000000000000000D+00 -.000000000000000D+00
 0.138345035299328D+04 0.000000000000000D+00 0.000000000000000D+00 0.138345035299328D+04
 0.192001659301565D+04 0.000000000000000D+00 0.000000000000000D+00 -.192001659301565D+04
 0.139309342557713D+04 0.483961040054819D+03 0.128821860910029D+04 0.177084215171804D+03
 0.405714710729475D+03 -.168001995875435D+03 -.368142952262162D+03 -.291637203365994D+02
 0.967842542415536D+03 -.311710342629814D+03 -.904254044179334D+03 -.147920494835204D+03
 0.536816267286787D+03 -.424870154957049D+01 -.158216126587909D+02 -.536566240022364D+03
0.342277231589D-01 0.000000000000D+00 0.000000000000D+00 0.646511011312D-04 0.143566318023D-05  6 -1 2 25 -1 2 21 2 0.16705496D+00 0.37634182D+00 0.19034504D+07 0.19034504D+07 0.19034504D+07 0.10297476D+01  1  2  1  2  6  2        2 0.431350967674D-02 0.100000000000D+01
  </mgrwgt>
  </event>
  <event>
  7     66 0.16841828E-05 0.64063781E+02 0.75467711E-02 0.88752134E-01
       21 -1    0    0  503  501 0.00000000E+00 0.00000000E+00 0.32229890E+03 0.32229977E+03 0.75000000E+00 0.0000E+00 0.9000E+01
        2 -1    0    0  501    0 0.00000000E+00 0.00000000E+00 -.40849517E+04 0.40849517E+04 0.32000000E+00 0.0000E+00 0.9000E+01
       24  2    1    2    0    0 -.56787504E+03 0.56432141E+03 -.25616457E+04 0.26850593E+04 0.81080095E+02 0.0000E+00 0.0000E+00
       25  1    1    2    0    0 0.52639537E+03 -.64555687E+03 -.13239103E+04 0.15691397E+04 0.12500000E+03 0.0000E+00 0.9000E+01
       -1  1    3    3    0  502 -.41999934E+03 0.36465235E+03 -.17756026E+04 0.18606815E+04 0.32000000E+00 0.0000E+00 0.9000E+01
        2  1    3    3  502    0 -.14787570E+03 0.19966906E+03 -.78604313E+03 0.82437786E+03 0.32000000E+00 0.0000E+00 0.9000E+01
        1  1    1    2  503    0 0.41479668E+02 0.81235466E+02 0.12290324E+03 0.15305251E+03 0.32000000E+00 0.0000E+00 0.9000E+01
#aMCatNLO 2  0  0  1  5 0.14009679D+03 0.00000000D+00  -5  6  0 0.00000000D+00 0.00000000D+00 0.00000000D+00 0.00000000D+00 0.00000000D+00
  <mgrwgt>
 0.2685464257D-03    1    2    0
 0.864919565575203D+03 0.000000000000000D+00 0.000000000000000D+00 0.864919565575203D+03
 0.864919565575203D+03 0.000000000000000D+00 0.000000000000000D+00 -.864919565575203D+03
 0.867535710069090D+03 0.547380776265892D+03 -.604458202200256D+03 0.268324012739194D+03
 0.594688718205965D+03 -.405847765074301D+03 0.392378242966799D+03 -.187033626901515D+03
 0.267614702875351D+03 -.141533011191591D+03 0.212079959233457D+03 -.812903858376790D+02
 0.000000000000000D+00 0.000000000000000D+00 0.000000000000000D+00 0.000000000000000D+00
 0.151447500378014D+04 0.000000000000000D+00 0.000000000000000D+00 0.151447500378014D+04
 0.869329154242999D+03 0.000000000000000D+00 0.000000000000000D+00 -.869329154242999D+03
 0.884001434751220D+03 0.526395371335634D+03 -.645556871132337D+03 0.268324012739194D+03
 0.586820069670253D+03 -.420003582674610D+03 0.364654915113395D+03 -.187033626901515D+03
 0.261420737143665D+03 -.147871456804399D+03 0.199666490031861D+03 -.812903858376790D+02
 0.651561916458002D+03 0.414796681433753D+02 0.812354659870810D+02 0.645145849537143D+03
0.180391928942D-03 0.000000000000D+00 0.000000000000D+00 0.155673947914D-03 0.808122864788D-08  6 21 2 25 -1 2 1 2 0.49584512D-01 0.62845415D+00 0.75532114D+06 0.75532114D+06 0.75532114D+06 0.10560740D+01  1  2  1  5  6  1       -1 0.268546425734D-03 0.100000000000D+01
  </mgrwgt>
  </event>
  <event>
  7     66 0.16841828E-05 0.38112434E+02 0.75467711E-02 0.93011333E-01
       -1 -1    0    0    0  501 0.00000000E+00 0.00000000E+00 0.32304267E+03 0.32304283E+03 0.32000000E+00 0.0000E+00 0.9000E+01
        2 -1    0    0  503    0 0.00000000E+00 0.00000000E+00 -.15500122E+04 0.15500122E+04 0.32000000E+00 0.0000E+00 0.9000E+01
       24  2    1    2    0    0 0.49970204E+03 0.12872037E+03 -.68669248E+03 0.86286588E+03 0.81975053E+02 0.0000E+00 0.0000E+00
       25  1    1    2    0    0 -.54596536E+03 -.15916920E+03 -.13053751E+03 0.59672276E+03 0.12500000E+03 0.0000E+00 0.9000E+01
       -1  1    3    3    0  502 0.42978414E+03 0.93059324E+02 -.53911668E+03 0.69571643E+03 0.32000000E+00 0.0000E+00 0.9000E+01
        2  1    3    3  502    0 0.69917896E+02 0.35661045E+02 -.14757580E+03 0.16714945E+03 0.32000000E+00 0.0000E+00 0.9000E+01
       21  1    1    2  503  501 0.46263324E+02 0.30448833E+02 -.40973955E+03 0.41346643E+03 0.75000000E+00 0.0000E+00 0.9000E+01
#aMCatNLO 2  0  0  2  1 0.22862291D-01 0.00000000D+00  -5  6  0 0.00000000D+00 0.00000000D+00 0.00000000D+00 0.00000000D+00 0.00000000D+00
  <mgrwgt>
 0.8133811549D-03    1    2    0
 0.604041954413456D+03 0.000000000000000D+00 0.000000000000000D+00 0.604041954413456D+03
 0.604041954413456D+03 0.000000000000000D+00 0.000000000000000D+00 -.604041954413456D+03
 0.607727580369593D+03 -.522240589898073D+03 -.143554420005255D+03 0.245692300859729D+03
 0.494668809835589D+03 0.448353507006920D+03 0.105278266917010D+03 -.180534901594414D+03
 0.105687518621730D+03 0.738870828911535D+02 0.382761530882443D+02 -.651573992653153D+02
 0.000000000000000D+00 0.000000000000000D+00 0.000000000000000D+00 -.000000000000000D+00
 0.608184014261476D+03 0.000000000000000D+00 0.000000000000000D+00 0.608184014261476D+03
 0.823302186402375D+03 0.000000000000000D+00 0.000000000000000D+00 -.823302186402375D+03
 0.631983164635514D+03 -.545965364333032D+03 -.159169201259766D+03 0.245692300859729D+03
 0.475365307270055D+03 0.429789627718731D+03 0.930601986224140D+02 -.180534901594414D+03
 0.102004312587442D+03 0.699124122937790D+02 0.356601698633295D+02 -.651573992653153D+02
 0.222133416170840D+03 0.462633243205212D+02 0.304488327740224D+02 -.215118172140899D+03
0.102624865033D-03 0.000000000000D+00 0.000000000000D+00 0.511033105004D-04 0.107326005339D-06  6 -1 2 25 -1 2 21 2 0.49698836D-01 0.23846319D+00 0.33401755D+06 0.33401755D+06 0.33401755D+06 0.10811174D+01  1  2  1  2  6  2        2 0.813381154893D-03 0.100000000000D+01
  </mgrwgt>
  </event>
  <event>
  5     66 -.16841828E-05 0.72671005E+02 0.75467711E-02 0.94576807E-01
       -1 -1    0    0    0  501 0.00000000E+00 0.00000000E+00 0.36017442E+03 0.36017456E+03 0.32000000E+00 0.0000E+00 0.9000E+01
        2 -1    0    0  501    0 -.00000000E+00 -.00000000E+00 -.76898732E+03 0.76898739E+03 0.32000000E+00 0.0000E+00 0.9000E+01
       25  1    1    2    0    0 -.10537548E+03 -.47753817E+03 -.34549202E+03 0.61166693E+03 0.12500000E+03 0.0000E+00 0.9000E+01
       -1  1    1    2    0  502 0.12565340E+03 0.39118721E+03 -.41939944E+01 0.41089403E+03 0.32000000E+00 0.0000E+00 0.9000E+01
        2  1    1    2  502    0 -.20277923E+02 0.86350951E+02 -.59126882E+02 0.10660099E+03 0.32000000E+00 0.0000E+00 0.9000E+01
#aMCatNLO 1  0  0  5  4 0.16332272D+01 0.00000000D+00  -5  6  0 0.00000000D+00 0.00000000D+00 0.00000000D+00 0.00000000D+00 0.00000000D+00
  <mgrwgt>
 -.1500247006D-03    9    2    0
 0.526279090960304D+03 0.000000000000000D+00 0.000000000000000D+00 0.526279090960304D+03
 0.526279090960304D+03 -.000000000000000D+00 -.000000000000000D+00 -.526279090960304D+03
 0.521994605514953D+03 -.105375534446777D+03 -.477538412568479D+03 -.133065508109142D+03
 0.439170811837880D+03 0.125653636389221D+03 0.391188730401591D+03 0.155092046344418D+03
 0.913927645677753D+02 -.202781019424438D+02 0.863496821668881D+02 -.220265382352759D+02
 0.000000000000000D+00 0.000000000000000D+00 0.000000000000000D+00 0.000000000000000D+00
 0.526279090960304D+03 0.000000000000000D+00 0.000000000000000D+00 0.526279090960304D+03
 0.526279090960304D+03 -.000000000000000D+00 -.000000000000000D+00 -.526279090960304D+03
 0.521960988330122D+03 -.105385373345606D+03 -.477496515856987D+03 -.133076195346136D+03
 0.439196668396943D+03 0.125645358097670D+03 0.391223981622161D+03 0.155083054274752D+03
 0.725905322153711D+02 -.175841114099582D+02 0.680930307353370D+02 -.179867606452487D+02
 0.188099929781724D+02 -.267587334210649D+01 0.181795034994898D+02 -.402009828336759D+01
0.157747053136D-06 0.000000000000D+00 0.000000000000D+00 0.211956729438D-07 0.000000000000D+00  6 -1 2 25 -1 2 21 0 0.55411466D-01 0.11830576D+00 0.25216575D+06 0.25216575D+06 0.25216575D+06 0.10901774D+01  1  2  2  4  6  5        2 0.260317040760D-05 0.100000000000D+01
0.122312905666D-07 0.000000000000D+00 -.605790219796D-09 0.211956729438D-07 0.000000000000D+00  6 -1 2 25 -1 2 21 2 0.55411466D-01 0.11830576D+00 0.25216575D+06 0.25216575D+06 0.25216575D+06 0.10901774D+01  1  2  3  4  6  5        2 0.239887698880D-06 0.100000000000D+01
-.393170653823D-07 0.000000000000D+00 0.000000000000D+00 0.211956729438D-07 0.000000000000D+00  6 -1 2 25 -1 2 21 2 0.55411466D-01 0.11830576D+00 0.25216575D+06 0.25216575D+06 0.25216575D+06 0.10901774D+01  1  2 15  4  6  5        2 -.771110807150D-06 0.100000000000D+01
0.336227015994D-08 0.000000000000D+00 0.000000000000D+00 0.211956729438D-07 0.000000000000D+00  6 -1 2 25 -1 2 21 2 0.55411466D-01 0.11830576D+00 0.25216419D+06 0.25216419D+06 0.25216419D+06 0.10901776D+01  1  2 12  4  6  5        2 0.659429746131D-07 0.100000000000D+01
0.573355088804D-09 0.000000000000D+00 0.000000000000D+00 0.211956729438D-07 0.000000000000D+00  6 -1 2 25 -1 2 21 2 0.55411466D-01 0.11830576D+00 0.25216419D+06 0.25216419D+06 0.25216419D+06 0.10901776D+01  1  2 12  4  6  5        2 0.112450036038D-07 0.100000000000D+01
-.921567071031D-04 0.000000000000D+00 0.000000000000D+00 0.211956729438D-07 0.000000000000D+00  6 -1 2 25 -1 2 21 2 0.55411466D-01 0.11830576D+00 0.25216575D+06 0.25216575D+06 0.25216575D+06 0.10901774D+01  1  2  4  4  6  5        2 -.180743481507D-02 0.100000000000D+01
-.494414048361D-04 0.000000000000D+00 0.000000000000D+00 0.211956729438D-07 0.000000000000D+00  6 -1 2 25 -1 2 21 2 0.55411466D-01 0.11830576D+00 0.25216575D+06 0.25216575D+06 0.25216575D+06 0.10901774D+01  1  2  5  4  6  5        2 -.969675666763D-03 0.100000000000D+01
0.738383934779D-04 0.000000000000D+00 -.000000000000D+00 0.211956729438D-07 0.000000000000D+00  6 -1 2 25 -1 2 21 2 0.55411466D-01 0.11830576D+00 0.25216575D+06 0.25216575D+06 0.25216575D+06 0.10901774D+01  1  2  6  4  6  5        2 0.144816462367D-02 0.100000000000D+01
0.600007124135D-04 0.000000000000D+00 0.000000000000D+00 0.211956729438D-07 0.395479244436D-07  6 -1 2 25 -1 2 21 2 0.55411466D-01 0.11830576D+00 0.25216419D+06 0.25216419D+06 0.25216419D+06 0.10901776D+01  1  2 11  4  6  5        2 0.117677202225D-02 0.100000000000D+01
  </mgrwgt>
  </event>
  <event>
  7     66 0.16841828E-05 0.13980846E+03 0.75467711E-02 0.92440529E-01
       -1 -1    0    0    0  501 0.00000000E+00 0.00000000E+00 0.30795559E+03 0.30795576E+03 0.32000000E+00 0.0000E+00 0.9000E+01
        2 -1    0    0  503    0 0.00000000E+00 0.00000000E+00 -.16178031E+04 0.16178031E+04 0.32000000E+00 0.0000E+00 0.9000E+01
       24  2    1    2    0    0 -.32585617E+03 0.29603685E+03 -.12631963E+03 0.46512312E+03 0.81011190E+02 0.0000E+00 0.0000E+00
       25  1    1    2    0    0 0.39174699E+03 -.44606068E+03 -.59512660E+03 0.84984499E+03 0.12500000E+03 0.0000E+00 0.9000E+01
       -1  1    3    3    0  502 -.57729909E+02 0.99943101E+02 -.29815100E+02 0.11920742E+03 0.32000000E+00 0.0000E+00 0.9000E+01
        2  1    3    3  502    0 -.26812626E+03 0.19609375E+03 -.96504533E+02 0.34591571E+03 0.32000000E+00 0.0000E+00 0.9000E+01
       21  1    1    2  503  501 -.65890819E+02 0.15002383E+03 -.58840125E+03 0.61079075E+03 0.75000000E+00 0.0000E+00 0.9000E+01
#aMCatNLO 2  0  0  2  1 0.22862291D-01 0.00000000D+00  -5  6  0 0.00000000D+00 0.00000000D+00 0.00000000D+00 0.00000000D+00 0.00000000D+00
  <mgrwgt>
 0.4580997219D-03    1    2    0
 0.543554900642599D+03 0.000000000000000D+00 0.000000000000000D+00 0.543554900642599D+03
 0.543554900642599D+03 0.000000000000000D+00 0.000000000000000D+00 -.543554900642599D+03
 0.547722918940754D+03 0.356377868428709D+03 -.365530324244101D+03 -.154135631458764D+03
 0.141694368504070D+03 -.657036891299330D+02 0.118104214662226D+03 0.425642312218045D+02
 0.397692513840372D+03 -.290674179298776D+03 0.247426109581875D+03 0.111571400236959D+03
 0.000000000000000D+00 -.000000000000000D+00 0.000000000000000D+00 -.000000000000000D+00
 0.570430371190233D+03 0.000000000000000D+00 0.000000000000000D+00 0.570430371190233D+03
 0.873394945057033D+03 0.000000000000000D+00 0.000000000000000D+00 -.873394945057033D+03
 0.625954171777942D+03 0.391746988958841D+03 -.446060678521094D+03 -.154135631458764D+03
 0.123013822892240D+03 -.577266262726556D+02 0.999416002585377D+02 0.425642312218045D+02
 0.350421140270324D+03 -.268129543971289D+03 0.196095246875764D+03 0.111571400236959D+03
 0.344436181306761D+03 -.658908187148968D+02 0.150023831386792D+03 -.302964573866800D+03
0.583550654649D-04 0.000000000000D+00 0.000000000000D+00 0.156194692811D-03 0.406483139037D-07  6 -1 2 25 -1 2 21 2 0.47377766D-01 0.24889262D+00 0.37096396D+06 0.37096396D+06 0.37096396D+06 0.10777949D+01  1  2  1  2  6  2        2 0.458099721870D-03 0.100000000000D+01
  </mgrwgt>
  </event>
  <event>
  7     66 0.16841828E-05 0.11521120E+03 0.75467711E-02 0.91818310E-01
       -1 -1    0    0    0  501 0.00000000E+00 0.00000000E+00 0.30094805E+03 0.30094822E+03 0.32000000E+00 0.0000E+00 0.9000E+01
        2 -1    0    0  503    0 0.00000000E+00 0.00000000E+00 -.15297962E+04 0.15297962E+04 0.32000000E+00 0.0000E+00 0.9000E+01
       24  2    1    2    0    0 -.51738500E+03 -.34077109E+03 -.32032062E+03 0.70201619E+03 0.80057747E+02 0.0000E+00 0.0000E+00
       25  1    1    2    0    0 0.45973345E+03 0.19979331E+03 -.72484277E+03 0.89010912E+03 0.12500000E+03 0.0000E+00 0.9000E+01
       -1  1    3    3    0  502 -.29317539E+03 -.16093057E+03 -.20533503E+03 0.39244494E+03 0.32000000E+00 0.0000E+00 0.9000E+01
        2  1    3    3  502    0 -.22420962E+03 -.17984052E+03 -.11498560E+03 0.30957125E+03 0.32000000E+00 0.0000E+00 0.9000E+01
       21  1    1    2  503  501 0.57651558E+02 0.14097778E+03 -.18368474E+03 0.23861912E+03 0.75000000E+00 0.0000E+00 0.9000E+01
#aMCatNLO 2  0  0  2  1 0.22862291D-01 0.00000000D+00  -5  6  0 0.00000000D+00 0.00000000D+00 0.00000000D+00 0.00000000D+00 0.00000000D+00
  <mgrwgt>
 0.8230925220D-03    1    2    0
 0.595671478740649D+03 0.000000000000000D+00 0.000000000000000D+00 0.595671478740649D+03
 0.595671478740649D+03 0.000000000000000D+00 0.000000000000000D+00 -.595671478740649D+03
 0.599539280672482D+03 0.487415227232202D+03 0.267484735887756D+03 -.186281135380145D+03
 0.311097483010779D+03 -.277449044469494D+03 -.122471289213552D+03 0.693141758731721D+02
 0.280706193798037D+03 -.209966182762708D+03 -.145013446674204D+03 0.116966959506973D+03
 0.000000000000000D+00 0.000000000000000D+00 0.000000000000000D+00 -.000000000000000D+00
 0.660832493227297D+03 0.000000000000000D+00 0.000000000000000D+00 0.660832493227297D+03
 0.696679014142646D+03 0.000000000000000D+00 0.000000000000000D+00 -.696679014142646D+03
 0.549179269199924D+03 0.459733446162800D+03 0.199793310197622D+03 -.186281135380145D+03
 0.341548620669794D+03 -.293176488376351D+03 -.160930270514198D+03 0.693141758731721D+02
 0.310311859781455D+03 -.224208515986167D+03 -.179840824241883D+03 0.116966959506973D+03
 0.156471757718771D+03 0.576515581997177D+02 0.140977784558460D+03 -.358465209153486D+02
0.910341448247D-04 0.000000000000D+00 0.000000000000D+00 0.182597137879D-03 0.486677318811D-07  6 -1 2 25 -1 2 21 2 0.46299653D-01 0.23535296D+00 0.41653856D+06 0.41653856D+06 0.41653856D+06 0.10741615D+01  1  2  1  2  6  2        2 0.823092522036D-03 0.100000000000D+01
  </mgrwgt>
  </event>
  <event>
  7     66 0.16841828E-05 0.19798125E+02 0.75467711E-02 0.91975794E-01
       -1 -1    0    0    0  501 0.00000000E+00 0.00000000E+00 0.17057324E+03 0.17057354E+03 0.32000000E+00 0.0000E+00 0.9000E+01
        2 -1    0    0  503    0 0.00000000E+00 0.00000000E+00 -.25791888E+04 0.25791889E+04 0.32000000E+00 0.0000E+00 0.9000E+01
       24  2    1    2    0    0 -.52049562E+03 0.33196886E+03 -.11330909E+04 0.12929155E+04 0.81341562E+02 0.0000E+00 0.0000E+00
       25  1    1    2    0    0 0.53010494E+03 -.33828924E+03 -.10448352E+04 0.12258697E+04 0.12500000E+03 0.0000E+00 0.9000E+01
       -1  1    3    3    0  502 -.48229765E+03 0.29120731E+03 -.10650178E+04 0.12048550E+04 0.32000000E+00 0.0000E+00 0.9000E+01
        2  1    3    3  502    0 -.38197972E+02 0.40761550E+02 -.68073172E+02 0.88060480E+02 0.32000000E+00 0.0000E+00 0.9000E+01
       21  1    1    2  503  501 -.96093211E+01 0.63203777E+01 -.23068944E+03 0.23097720E+03 0.75000000E+00 0.0000E+00 0.9000E+01
#aMCatNLO 2  0  0  2  1 0.22862291D-01 0.00000000D+00  -5  6  0 0.00000000D+00 0.00000000D+00 0.00000000D+00 0.00000000D+00 0.00000000D+00
  <mgrwgt>
 0.5247986138D-03    1    2    0
 0.632610518577465D+03 0.000000000000000D+00 0.000000000000000D+00 0.632610518577465D+03
 0.632610518577465D+03 0.000000000000000D+00 0.000000000000000D+00 -.632610518577465D+03
 0.636170588343085D+03 0.525251734328610D+03 -.335097118274256D+03 0.301422358471226D+02
 0.570434797124785D+03 -.486617344642093D+03 0.294047876256566D+03 -.462089183305151D+02
 0.586156516870596D+02 -.386343896865165D+02 0.410492420176906D+02 0.160666824833925D+02
 0.000000000000000D+00 -.000000000000000D+00 0.000000000000000D+00 -.000000000000000D+00
 0.633168499248787D+03 0.000000000000000D+00 0.000000000000000D+00 0.633168499248787D+03
 0.694819675274587D+03 0.000000000000000D+00 0.000000000000000D+00 -.694819675274587D+03
 0.641860115874661D+03 0.530104939177722D+03 -.338289236346877D+03 0.301422358471226D+02
 0.565293612101609D+03 -.482304519758668D+03 0.291211184486395D+03 -.462089183305151D+02
 0.581195860101589D+02 -.381910982853126D+02 0.407576741698015D+02 0.160666824833925D+02
 0.627148605369448D+02 -.960932113374083D+01 0.632037769068072D+01 -.616511760258004D+02
0.836546931589D-04 0.000000000000D+00 0.000000000000D+00 0.356975718200D-04 0.167081586271D-05  6 -1 2 25 -1 2 21 2 0.26241969D-01 0.39679690D+00 0.40443880D+06 0.40443880D+06 0.40443880D+06 0.10750823D+01  1  2  1  2  6  2        2 0.524798613772D-03 0.100000000000D+01
  </mgrwgt>
  </event>
  <event>
  7     66 0.16841828E-05 0.76221182E+02 0.75467711E-02 0.93563130E-01
       -1 -1    0    0    0  503 0.00000000E+00 0.00000000E+00 0.58681526E+03 0.58681535E+03 0.32000000E+00 0.0000E+00 0.9000E+01
        2 -1    0    0  501    0 0.00000000E+00 0.00000000E+00 -.55260294E+03 0.55260303E+03 0.32000000E+00 0.0000E+00 0.9000E+01
       24  2    1    2    0    0 0.12351376E+03 -.51772408E+03 -.94744193E+02 0.54702351E+03 0.83452897E+02 0.0000E+00 0.0000E+00
       25  1    1    2    0    0 -.13550391E+03 0.52046181E+03 0.10027545E+03 0.56117909E+03 0.12500000E+03 0.0000E+00 0.9000E+01
       -1  1    3    3    0  502 0.88698342E+02 -.25585744E+03 -.15571637E+02 0.27124344E+03 0.32000000E+00 0.0000E+00 0.9000E+01
        2  1    3    3  502    0 0.34815413E+02 -.26186664E+03 -.79172556E+02 0.27578007E+03 0.32000000E+00 0.0000E+00 0.9000E+01
       21  1    1    2  501  503 0.11990151E+02 -.27377303E+01 0.28681064E+02 0.31215778E+02 0.75000000E+00 0.0000E+00 0.9000E+01
#aMCatNLO 2  0  0  1  5 0.14009679D+03 0.00000000D+00  -5  6  0 0.00000000D+00 0.00000000D+00 0.00000000D+00 0.00000000D+00 0.00000000D+00
  <mgrwgt>
 0.2202698904D-02    1    2    0
 0.554060273458535D+03 0.000000000000000D+00 0.000000000000000D+00 0.554060273458535D+03
 0.554060273458535D+03 0.000000000000000D+00 0.000000000000000D+00 -.554060273458535D+03
 0.557968067794483D+03 -.129452031744389D+03 0.519079976359395D+03 0.974757113248666D+02
 0.272933046276727D+03 0.916435463639658D+02 -.256529649769889D+03 -.169247436810017D+02
 0.277219432845860D+03 0.378084853804229D+02 -.262550326589505D+03 -.805509676438649D+02
 0.000000000000000D+00 0.000000000000000D+00 -.000000000000000D+00 0.000000000000000D+00
 0.583888962584447D+03 0.000000000000000D+00 0.000000000000000D+00 0.583888962584447D+03
 0.555363579414933D+03 0.000000000000000D+00 0.000000000000000D+00 -.555363579414933D+03
 0.560685579584840D+03 -.135503906396656D+03 0.520461810517684D+03 0.974757113248666D+02
 0.271324465147306D+03 0.886991334570667D+02 -.255857347290965D+03 -.169247436810017D+02
 0.276178750280542D+03 0.348146217793703D+02 -.261866732954987D+03 -.805509676438649D+02
 0.310637469866925D+02 0.119901511602194D+02 -.273773027173207D+01 0.285253831695137D+02
0.201592632073D-03 0.000000000000D+00 0.000000000000D+00 0.344319498970D-04 0.142944109539D-05  6 -1 2 25 -1 2 21 2 0.90278551D-01 0.85015159D-01 0.30217731D+06 0.30217731D+06 0.30217731D+06 0.10843196D+01  1  2  1  1  6  1       -1 0.220269890355D-02 0.100000000000D+01
  </mgrwgt>
  </event>
  <event>
  6     66 0.16841828E-05 0.22509587E+02 0.75467711E-02 0.94400915E-01
       -1 -1    0    0    0  501 0.00000000E+00 0.00000000E+00 0.37459045E+03 0.37459059E+03 0.32000000E+00 0.0000E+00 0.9000E+01
        2 -1    0    0  501    0 0.00000000E+00 0.00000000E+00 -.72919480E+03 0.72919488E+03 0.32000000E+00 0.0000E+00 0.9000E+01
       24  2    1    2    0    0 -.49807351E+03 -.74616168E+01 -.29808503E+03 0.58711117E+03 0.87817674E+02 0.0000E+00 0.0000E+00
       25  1    1    2    0    0 0.49807351E+03 0.74616168E+01 -.56519325E+02 0.51667430E+03 0.12500000E+03 0.0000E+00 0.9000E+01
       -1  1    3    3    0  502 -.47290444E+03 -.24483595E+02 -.29134690E+03 0.55598667E+03 0.32000000E+00 0.0000E+00 0.9000E+01
        2  1    3    3  502    0 -.25169065E+02 0.17021978E+02 -.67381273E+01 0.31124497E+02 0.32000000E+00 0.0000E+00 0.9000E+01
#aMCatNLO 1  0  0  2  4 0.25651084D+01 0.00000000D+00  -5  6  0 0.00000000D+00 0.00000000D+00 0.00000000D+00 0.00000000D+00 0.00000000D+00
  <mgrwgt>
 0.6306281823D-03    6    2    0
 0.522637088154383D+03 0.000000000000000D+00 0.000000000000000D+00 0.522637088154383D+03
 0.522637088154383D+03 0.000000000000000D+00 0.000000000000000D+00 -.522637088154383D+03
 0.526422247474864D+03 0.498073509143158D+03 0.746161677335572D+01 0.115596221397736D+03
 0.488277133138281D+03 -.472910388715496D+03 -.244841429202247D+02 -.119041378252098D+03
 0.305747956956222D+02 -.251631204276625D+02 0.170225261468689D+02 0.344515685436219D+01
 0.000000000000000D+00 -.000000000000000D+00 0.000000000000000D+00 0.000000000000000D+00
 0.526895282905608D+03 0.000000000000000D+00 0.000000000000000D+00 0.526895282905608D+03
 0.523025105770125D+03 0.000000000000000D+00 0.000000000000000D+00 -.523025105770125D+03
 0.526946788590260D+03 0.498643879961801D+03 0.630179187176801D+01 0.115596221397736D+03
 0.487820383467460D+03 -.472381858332923D+03 -.255588870672201D+02 -.119041378252098D+03
 0.305101516412531D+02 -.251300445822309D+02 0.169552678161151D+02 0.344515685436219D+01
 0.464306497675993D+01 -.113197704664670D+01 0.230182737933697D+01 0.387017713548287D+01
0.391208156357D-04 0.000000000000D+00 0.000000000000D+00 0.728114822918D-06 0.000000000000D+00  6 -1 2 25 -1 2 21 0 0.57629316D-01 0.11218383D+00 0.25882529D+06 0.25882529D+06 0.25882529D+06 0.10893275D+01  1  2  2  2  6  2        2 0.640813369501D-03 0.100000000000D+01
0.119787378901D-04 0.000000000000D+00 -.150234232788D-06 0.728114822918D-06 0.000000000000D+00  6 -1 2 25 -1 2 21 2 0.57629316D-01 0.11218383D+00 0.25882529D+06 0.25882529D+06 0.25882529D+06 0.10893275D+01  1  2  3  2  6  2        2 0.232836800151D-03 0.100000000000D+01
-.123525989630D-04 0.000000000000D+00 0.000000000000D+00 0.728114822918D-06 0.000000000000D+00  6 -1 2 25 -1 2 21 2 0.57629316D-01 0.11218383D+00 0.25882529D+06 0.25882529D+06 0.25882529D+06 0.10893275D+01  1  2 15  2  6  2        2 -.240103727327D-03 0.100000000000D+01
-.991748700002D-05 0.000000000000D+00 0.000000000000D+00 0.728114822918D-06 0.000000000000D+00  6 -1 2 25 -1 2 21 2 0.57629316D-01 0.11218383D+00 0.25882529D+06 0.25882529D+06 0.25882529D+06 0.10893275D+01  1  2  4  2  6  2        2 -.192771221794D-03 0.100000000000D+01
0.907861211616D-05 0.000000000000D+00 0.000000000000D+00 0.728114822918D-06 0.707067491102D-06  6 -1 2 25 -1 2 21 2 0.58098852D-01 0.11226712D+00 0.26013276D+06 0.26013276D+06 0.26013276D+06 0.10891634D+01  1  2 11  2  6  2        2 0.173570937475D-03 0.100000000000D+01
0.754301395557D-06 0.000000000000D+00 0.000000000000D+00 0.728114822918D-06 0.996152558142D-10  6 -1 21 25 -1 2 -2 2 0.58098852D-01 0.11226712D+00 0.26013276D+06 0.26013276D+06 0.26013276D+06 0.10891634D+01  1  2 11  6  6  2        2 0.162820243089D-04 0.100000000000D+01
  </mgrwgt>
  </event>
  <event>
  7     66 0.16841828E-05 0.45450273E+02 0.75467711E-02 0.92842097E-01
       -1 -1    0    0    0  501 0.00000000E+00 0.00000000E+00 0.55127543E+03 0.55127552E+03 0.32000000E+00 0.0000E+00 0.9000E+01
        2 -1    0    0  503    0 0.00000000E+00 0.00000000E+00 -.76711280E+03 0.76711287E+03 0.32000000E+00 0.0000E+00 0.9000E+01
       24  2    1    2    0    0 0.57193820E+03 -.84760258E+01 0.94957939E+02 0.58506912E+03 0.78126250E+02 0.0000E+00 0.0000E+00
       25  1    1    2    0    0 -.56653760E+03 -.10082480E+02 -.18938156E+03 0.61037438E+03 0.12500000E+03 0.0000E+00 0.9000E+01
       -1  1    3    3    0  502 0.18901105E+03 -.27197071E+02 0.37987041E+01 0.19099579E+03 0.32000000E+00 0.0000E+00 0.9000E+01
        2  1    3    3  502    0 0.38292715E+03 0.18721045E+02 0.91159235E+02 0.39407333E+03 0.32000000E+00 0.0000E+00 0.9000E+01
       21  1    1    2  503  501 -.54006003E+01 0.18558505E+02 -.12141375E+03 0.12294489E+03 0.75000000E+00 0.0000E+00 0.9000E+01
#aMCatNLO 2  0  0  2  4 0.25651084D+01 0.00000000D+00  -5  6  0 0.00000000D+00 0.00000000D+00 0.00000000D+00 0.00000000D+00 0.00000000D+00
  <mgrwgt>
 0.1652140014D-02    1    2    0
 0.595775912216730D+03 0.000000000000000D+00 0.000000000000000D+00 0.595775912216730D+03
 0.595775912216730D+03 0.000000000000000D+00 0.000000000000000D+00 -.595775912216730D+03
 0.599771243741010D+03 -.569250190428279D+03 -.760998096604453D+00 -.141612804498407D+03
 0.190636812757819D+03 0.188140967726619D+03 -.242190814769205D+02 0.189421945340379D+02
 0.401143767934632D+03 0.381109222701660D+03 0.249800795735250D+02 0.122670609964369D+03
 0.000000000000000D+00 -.000000000000000D+00 0.000000000000000D+00 -.000000000000000D+00
 0.596681681940817D+03 0.000000000000000D+00 0.000000000000000D+00 0.596681681940817D+03
 0.708734332898729D+03 0.000000000000000D+00 0.000000000000000D+00 -.708734332898729D+03
 0.597281923987474D+03 -.566537601515729D+03 -.100824795105107D+02 -.141612804498407D+03
 0.191891837590313D+03 0.189007798878017D+03 -.271978411516249D+02 0.189421945340379D+02
 0.402534816436710D+03 0.382930402976682D+03 0.187218153719543D+02 0.122670609964369D+03
 0.113707436825049D+03 -.540060033896992D+01 0.185585052901814D+02 -.112052650957912D+03
0.199006144199D-03 0.000000000000D+00 0.000000000000D+00 0.327645426742D-04 0.554069825101D-06  6 -1 2 25 -1 2 21 2 0.84811441D-01 0.11801712D+00 0.34452322D+06 0.34452322D+06 0.34452322D+06 0.10801334D+01  1  2  1  2  6  2        2 0.165214001446D-02 0.100000000000D+01
  </mgrwgt>
  </event>
  <event>
  7     66 0.16841828E-05 0.76436824E+02 0.75467711E-02 0.93781803E-01
       -1 -1    0    0    0  501 0.00000000E+00 0.00000000E+00 0.23974624E+03 0.23974646E+03 0.32000000E+00 0.0000E+00 0.9000E+01
        2 -1    0    0  503    0 0.00000000E+00 0.00000000E+00 -.17586678E+04 0.17586678E+04 0.32000000E+00 0.0000E+00 0.9000E+01
       24  2    1    2    0    0 -.47998279E+03 -.91249550E+02 -.16668031E+03 0.52228296E+03 0.79291933E+02 0.0000E+00 0.0000E+00
       25  1    1    2    0    0 0.41606490E+03 0.18481776E+03 -.99454181E+03 0.11009114E+04 0.12500000E+03 0.0000E+00 0.9000E+01
       -1  1    3    3    0  502 -.21630618E+03 -.72811033E+02 -.51575742E+02 0.23398711E+03 0.32000000E+00 0.0000E+00 0.9000E+01
        2  1    3    3  502    0 -.26367661E+03 -.18438517E+02 -.11510457E+03 0.28829585E+03 0.32000000E+00 0.0000E+00 0.9000E+01
       21  1    1    2  503  501 0.63917887E+02 -.93568210E+02 -.35769945E+03 0.37521989E+03 0.75000000E+00 0.0000E+00 0.9000E+01
#aMCatNLO 2  0  0  2  4 0.25651084D+01 0.00000000D+00  -5  6  0 0.00000000D+00 0.00000000D+00 0.00000000D+00 0.00000000D+00 0.00000000D+00
  <mgrwgt>
 0.1416363819D-02    1    2    0
 0.564243469699503D+03 0.000000000000000D+00 0.000000000000000D+00 0.564243469699503D+03
 0.564243469699503D+03 0.000000000000000D+00 0.000000000000000D+00 -.564243469699503D+03
 0.568380774743273D+03 0.447865433096571D+03 0.138265547938526D+03 -.296194019501143D+03
 0.277276178450779D+03 -.200504300231664D+03 -.959428685890291D+02 0.165756057783080D+03
 0.282829986204952D+03 -.247361132864907D+03 -.423226793494966D+02 0.130437961718063D+03
 0.000000000000000D+00 0.000000000000000D+00 -.000000000000000D+00 -.000000000000000D+00
 0.588586879945451D+03 0.000000000000000D+00 0.000000000000000D+00 0.588586879945451D+03
 0.716348103525317D+03 0.000000000000000D+00 0.000000000000000D+00 -.716348103525317D+03
 0.557336076432996D+03 0.416064899102193D+03 0.184817760619927D+03 -.296194019501143D+03
 0.282072111451281D+03 -.216305408911117D+03 -.728119182729789D+02 0.165756057783080D+03
 0.294753739998344D+03 -.263677376954649D+03 -.184376318480430D+02 0.130437961718063D+03
 0.170773055588148D+03 0.639178867635732D+02 -.935682104989049D+02 -.127761223579866D+03
0.134875319199D-03 0.000000000000D+00 0.000000000000D+00 0.113180070060D-03 0.564630305094D-07  6 -1 2 25 -1 2 21 2 0.36884006D-01 0.27056393D+00 0.29051220D+06 0.29051220D+06 0.29051220D+06 0.10855860D+01  1  2  1  2  6  2        2 0.141636381866D-02 0.100000000000D+01
  </mgrwgt>
  </event>
  <event>
  7     66 0.16841828E-05 0.54802143E+02 0.75467711E-02 0.95379916E-01
       -1 -1    0    0    0  503 0.00000000E+00 0.00000000E+00 0.12045296E+03 0.12045339E+03 0.32000000E+00 0.0000E+00 0.9000E+01
        2 -1    0    0  501    0 0.00000000E+00 0.00000000E+00 -.20391460E+04 0.20391460E+04 0.32000000E+00 0.0000E+00 0.9000E+01
       24  2    1    2    0    0 -.45407607E+03 0.11879728E+01 -.83801891E+03 0.95665643E+03 0.82032589E+02 0.0000E+00 0.0000E+00
       25  1    1    2    0    0 0.45113749E+03 0.94438235E+01 -.10913625E+04 0.11875653E+04 0.12500000E+03 0.0000E+00 0.9000E+01
       -1  1    3    3    0  502 -.29534806E+03 -.23397110E+02 -.60491181E+03 0.67356982E+03 0.32000000E+00 0.0000E+00 0.9000E+01
        2  1    3    3  502    0 -.15872801E+03 0.24585083E+02 -.23310710E+03 0.28308661E+03 0.32000000E+00 0.0000E+00 0.9000E+01
       21  1    1    2  501  503 0.29385845E+01 -.10631796E+02 0.10688357E+02 0.15377706E+02 0.75000000E+00 0.0000E+00 0.9000E+01
#aMCatNLO 2  0  0  1  4 0.76386400D+02 0.00000000D+00  -5  6  0 0.00000000D+00 0.00000000D+00 0.00000000D+00 0.00000000D+00 0.00000000D+00
  <mgrwgt>
 0.6440678498D-02    1    2    0
 0.467721205779223D+03 0.000000000000000D+00 0.000000000000000D+00 0.467721205779223D+03
 0.467721205779223D+03 0.000000000000000D+00 0.000000000000000D+00 -.467721205779223D+03
 0.472475990513191D+03 0.452619554313308D+03 0.408170087854009D+01 -.522249019394160D+02
 0.295646328129183D+03 -.294420426338397D+03 -.267615439860615D+02 0.268023403217480D+01
 0.167320092916072D+03 -.158199127974911D+03 0.226798431075214D+02 0.495446679072412D+02
 0.000000000000000D+00 0.000000000000000D+00 -.000000000000000D+00 0.000000000000000D+00
 0.524502418798186D+03 0.000000000000000D+00 0.000000000000000D+00 0.524502418798186D+03
 0.468289726583301D+03 0.000000000000000D+00 0.000000000000000D+00 -.468289726583301D+03
 0.471133375250605D+03 0.451137485794928D+03 0.944382354116731D+01 -.522249019394160D+02
 0.296287610041861D+03 -.295350140144294D+03 -.233978402122272D+02 0.268023403217480D+01
 0.168086457604176D+03 -.158725930174444D+03 0.245858130257857D+02 0.495446679072412D+02
 0.572847024848458D+02 0.293858452381037D+01 -.106317963547259D+02 0.562126922148846D+02
0.269679806415D-03 0.000000000000D+00 0.000000000000D+00 0.533568043558D-04 0.282319011737D-05  6 -1 2 25 -1 2 21 2 0.18531163D-01 0.31371317D+00 0.21909633D+06 0.21909633D+06 0.21909633D+06 0.10947965D+01  1  2  1  1  6  1       -1 0.644067849795D-02 0.100000000000D+01
  </mgrwgt>
  </event>
  <event>
  7     66 0.16841828E-05 0.32707091E+02 0.75467711E-02 0.93792818E-01
       -1 -1    0    0    0  501 0.00000000E+00 0.00000000E+00 0.31187770E+03 0.31187786E+03 0.32000000E+00 0.0000E+00 0.9000E+01
        2 -1    0    0  503    0 0.00000000E+00 0.00000000E+00 -.11556910E+04 0.11556910E+04 0.32000000E+00 0.0000E+00 0.9000E+01
       24  2    1    2    0    0 -.15070945E+03 -.47744837E+03 -.38612369E+03 0.63751729E+03 0.81648736E+02 0.0000E+00 0.0000E+00
       25  1    1    2    0    0 0.88647515E+02 0.48398461E+03 -.16954979E+03 0.53523043E+03 0.12500000E+03 0.0000E+00 0.9000E+01
       -1  1    3    3    0  502 -.86979792E+02 -.15120937E+03 -.14556071E+03 0.22719547E+03 0.32000000E+00 0.0000E+00 0.9000E+01
        2  1    3    3  502    0 -.63729660E+02 -.32623900E+03 -.24056298E+03 0.41032183E+03 0.32000000E+00 0.0000E+00 0.9000E+01
       21  1    1    2  503  501 0.62061937E+02 -.65362399E+01 -.28813983E+03 0.29482118E+03 0.75000000E+00 0.0000E+00 0.9000E+01
#aMCatNLO 2  0  0  2  2 0.47549171D+03 0.00000000D+00  -5  6  0 0.00000000D+00 0.00000000D+00 0.00000000D+00 0.00000000D+00 0.00000000D+00
  <mgrwgt>
 0.1668735934D-02    1    2    0
 0.515429386148306D+03 0.000000000000000D+00 0.000000000000000D+00 0.515429386148306D+03
 0.515429386148306D+03 0.000000000000000D+00 0.000000000000000D+00 -.515429386148306D+03
 0.519774541968132D+03 0.119814806834214D+03 0.480702130976469D+03 0.954486658688508D+02
 0.175723798912998D+03 -.762917669043107D+02 -.152332359867641D+03 -.430496451110781D+02
 0.335360431415481D+03 -.435230399299029D+02 -.328369771108828D+03 -.523990207577727D+02
 0.000000000000000D+00 0.000000000000000D+00 -.000000000000000D+00 -.000000000000000D+00
 0.521963218649620D+03 0.000000000000000D+00 0.000000000000000D+00 0.521963218649620D+03
 0.690533966762779D+03 0.000000000000000D+00 0.000000000000000D+00 -.690533966762779D+03
 0.516560674776664D+03 0.886475150155953D+02 0.483984608217182D+03 0.954486658688508D+02
 0.179672698243059D+03 -.869801485777333D+02 -.151206680749056D+03 -.430496451110781D+02
 0.336512585513216D+03 -.637293033525120D+02 -.326241687597737D+03 -.523990207577727D+02
 0.179751226879461D+03 0.620619369146500D+02 -.653623987038893D+01 -.168570748113159D+03
0.116761785808D-03 0.000000000000D+00 0.000000000000D+00 0.920202886387D-04 0.156126736427D-06  6 -1 2 25 -1 2 21 2 0.47981129D-01 0.17779837D+00 0.28993809D+06 0.28993809D+06 0.28993809D+06 0.10856497D+01  1  2  1  2  6  2        2 0.166873593360D-02 0.100000000000D+01
  </mgrwgt>
  </event>
  <event>
  7     66 0.16841828E-05 0.51014328E+02 0.75467711E-02 0.89367390E-01
       -1 -1    0    0    0  501 0.00000000E+00 0.00000000E+00 0.78680174E+03 0.78680181E+03 0.32000000E+00 0.0000E+00 0.9000E+01
        2 -1    0    0  503    0 0.00000000E+00 0.00000000E+00 -.10064444E+04 0.10064445E+04 0.32000000E+00 0.0000E+00 0.9000E+01
       24  2    1    2    0    0 -.71999658E+03 -.11210802E+03 0.21358781E+03 0.76364392E+03 0.81049380E+02 0.0000E+00 0.0000E+00
       25  1    1    2    0    0 0.80259795E+03 0.87946395E+02 -.29872748E+03 0.86992019E+03 0.12500000E+03 0.0000E+00 0.9000E+01
       -1  1    3    3    0  502 -.41754674E+03 -.32161586E+02 0.97682374E+02 0.43002511E+03 0.32000000E+00 0.0000E+00 0.9000E+01
        2  1    3    3  502    0 -.30244985E+03 -.79946433E+02 0.11590544E+03 0.33361882E+03 0.32000000E+00 0.0000E+00 0.9000E+01
       21  1    1    2  503  501 -.82601362E+02 0.24161623E+02 -.13450301E+03 0.15968215E+03 0.75000000E+00 0.0000E+00 0.9000E+01
#aMCatNLO 2  0  0  2  2 0.47549171D+03 0.00000000D+00  -5  6  0 0.00000000D+00 0.00000000D+00 0.00000000D+00 0.00000000D+00 0.00000000D+00
  <mgrwgt>
 0.7501973105D-03    1    2    0
 0.814536092834961D+03 0.000000000000000D+00 0.000000000000000D+00 0.814536092834961D+03
 0.814536092834961D+03 0.000000000000000D+00 0.000000000000000D+00 -.814536092834961D+03
 0.817315588438390D+03 0.760217475974717D+03 0.100343054511628D+03 -.253732993003075D+03
 0.457012086373084D+03 -.440165290569682D+03 -.255452399013931D+02 0.120258075766937D+03
 0.354744510858448D+03 -.320052185405035D+03 -.747978146102344D+02 0.133474917236137D+03
 0.000000000000000D+00 -.000000000000000D+00 0.000000000000000D+00 -.000000000000000D+00
 0.828934803829786D+03 0.000000000000000D+00 0.000000000000000D+00 0.828934803829786D+03
 0.955286930150086D+03 0.000000000000000D+00 0.000000000000000D+00 -.955286930150086D+03
 0.855513566781877D+03 0.802597945912073D+03 0.879463951920284D+02 -.253732993003075D+03
 0.435709879836511D+03 -.417548530015685D+03 -.321608408117956D+02 0.120258075766937D+03
 0.340120464129402D+03 -.302448054050021D+03 -.799471774971527D+02 0.133474917236137D+03
 0.152877823232082D+03 -.826013618463669D+02 0.241616231169200D+02 -.126352126320300D+03
0.314158987513D-03 0.000000000000D+00 0.000000000000D+00 0.162096698938D-03 0.133056894034D-06  6 -1 2 25 -1 2 21 2 0.12104630D+00 0.15483744D+00 0.66806486D+06 0.66806486D+06 0.66806486D+06 0.10597281D+01  1  2  1  2  6  2        2 0.750197310505D-03 0.100000000000D+01
  </mgrwgt>
  </event>
  <event>
  7     66 0.16841828E-05 0.49993216E+02 0.75467711E-02 0.92131878E-01
       -1 -1    0    0    0  503 0.00000000E+00 0.00000000E+00 0.67359068E+03 0.67359075E+03 0.32000000E+00 0.0000E+00 0.9000E+01
        2 -1    0    0  501    0 0.00000000E+00 0.00000000E+00 -.60869843E+03 0.60869851E+03 0.32000000E+00 0.0000E+00 0.9000E+01
       24  2    1    2    0    0 -.51372386E+03 -.31637916E+03 0.10069207E+03 0.61702890E+03 0.81103631E+02 0.0000E+00 0.0000E+00
       25  1    1    2    0    0 0.52686299E+03 0.32422411E+03 -.62763549E+02 0.63424770E+03 0.12500000E+03 0.0000E+00 0.9000E+01
       -1  1    3    3    0  502 -.32597439E+03 -.23811952E+03 0.88408791E+02 0.41325105E+03 0.32000000E+00 0.0000E+00 0.9000E+01
        2  1    3    3  502    0 -.18774947E+03 -.78259635E+02 0.12283277E+02 0.20377786E+03 0.32000000E+00 0.0000E+00 0.9000E+01
       21  1    1    2  501  503 -.13139124E+02 -.78449516E+01 0.26963733E+02 0.31012663E+02 0.75000000E+00 0.0000E+00 0.9000E+01
#aMCatNLO 2  0  0  1  2 0.26760667D+01 0.00000000D+00  -5  6  0 0.00000000D+00 0.00000000D+00 0.00000000D+00 0.00000000D+00 0.00000000D+00
  <mgrwgt>
 0.1166746081D-02    1    2    0
 0.625304002027673D+03 0.000000000000000D+00 0.000000000000000D+00 0.625304002027673D+03
 0.625304002027673D+03 0.000000000000000D+00 0.000000000000000D+00 -.625304002027673D+03
 0.628921123068814D+03 0.520216158693792D+03 0.320255500990925D+03 -.820264674423105D+02
 0.415712426001353D+03 -.330317935012298D+03 -.240714117334741D+03 0.759183552041137D+02
 0.205974454985179D+03 -.189898223681495D+03 -.795413836561835D+02 0.610811223819673D+01
 0.000000000000000D+00 -.000000000000000D+00 -.000000000000000D+00 0.000000000000000D+00
 0.653468412594650D+03 0.000000000000000D+00 0.000000000000000D+00 0.653468412594650D+03
 0.627432959920948D+03 0.000000000000000D+00 0.000000000000000D+00 -.627432959920948D+03
 0.636442628396592D+03 0.526862985066285D+03 0.324224108983804D+03 -.820264674423105D+02
 0.410763186445955D+03 -.325976543147172D+03 -.238122010742720D+03 0.759183552041137D+02
 0.203495812102855D+03 -.187747318246690D+03 -.782571466350661D+02 0.610811223819673D+01
 0.301997455701961D+02 -.131391236724225D+02 -.784495160601790D+01 0.260354526737025D+02
0.166260768236D-03 0.000000000000D+00 0.000000000000D+00 0.202172056718D-03 0.533430021607D-05  6 -1 2 25 -1 2 21 2 0.10362858D+00 0.93645231D-01 0.39283321D+06 0.39283321D+06 0.39283321D+06 0.10759941D+01  1  2  1  1  6  1       -1 0.116674608063D-02 0.100000000000D+01
  </mgrwgt>
  </event>
  <event>
  7     66 0.16841828E-05 0.40089013E+02 0.75467711E-02 0.91159127E-01
       -1 -1    0    0    0  503 0.00000000E+00 0.00000000E+00 0.28387992E+03 0.28388010E+03 0.32000000E+00 0.0000E+00 0.9000E+01
        2 -1    0    0  501    0 0.00000000E+00 0.00000000E+00 -.18037529E+04 0.18037529E+04 0.32000000E+00 0.0000E+00 0.9000E+01
       24  2    1    2    0    0 -.42719477E+03 -.51206046E+03 -.48373222E+03 0.82708117E+03 0.73246932E+02 0.0000E+00 0.0000E+00
       25  1    1    2    0    0 0.44846054E+03 0.49052088E+03 -.92814931E+03 0.11483962E+04 0.12500000E+03 0.0000E+00 0.9000E+01
       -1  1    3    3    0  502 -.14768147E+03 -.19216627E+03 -.21821917E+03 0.32612482E+03 0.32000000E+00 0.0000E+00 0.9000E+01
        2  1    3    3  502    0 -.27951330E+03 -.31989419E+03 -.26551305E+03 0.50095634E+03 0.32000000E+00 0.0000E+00 0.9000E+01
       21  1    1    2  501  503 -.21265765E+02 0.21539580E+02 -.10799144E+03 0.11215570E+03 0.75000000E+00 0.0000E+00 0.9000E+01
#aMCatNLO 2  0  0  1  2 0.26760667D+01 0.00000000D+00  -5  6  0 0.00000000D+00 0.00000000D+00 0.00000000D+00 0.00000000D+00 0.00000000D+00
  <mgrwgt>
 0.1225802479D-03    1    2    0
 0.690685349128480D+03 0.000000000000000D+00 0.000000000000000D+00 0.690685349128480D+03
 0.690685349128480D+03 0.000000000000000D+00 0.000000000000000D+00 -.690685349128480D+03
 0.694399010872976D+03 0.437778777861018D+03 0.501340171936818D+03 -.153534230574953D+03
 0.242620344850028D+03 -.151418684102581D+03 -.188375948032135D+03 0.212489068609127D+02
 0.444351342533957D+03 -.286360093758437D+03 -.312964223904683D+03 0.132285323714040D+03
 0.000000000000000D+00 -.000000000000000D+00 0.000000000000000D+00 -.000000000000000D+00
 0.695952853867576D+03 0.000000000000000D+00 0.000000000000000D+00 0.695952853867576D+03
 0.735747147600232D+03 0.000000000000000D+00 0.000000000000000D+00 -.735747147600232D+03
 0.693487810112692D+03 0.448460535021808D+03 0.490520877582808D+03 -.153534230574953D+03
 0.243284868438034D+03 -.147678954455304D+03 -.192163830049040D+03 0.212489068609127D+02
 0.444929602072314D+03 -.279515815857408D+03 -.319896628015469D+03 0.132285323714040D+03
 0.499977208447669D+02 -.212657647090967D+02 0.215395804817006D+02 -.397942937326562D+02
0.174839235569D-04 0.000000000000D+00 0.000000000000D+00 0.440749753153D-05 0.294513573933D-07  6 -1 2 25 -1 2 21 2 0.43673674D-01 0.27749935D+00 0.47177081D+06 0.47177081D+06 0.47177081D+06 0.10702987D+01  1  2  1  1  6  1       -1 0.122580247884D-03 0.100000000000D+01
  </mgrwgt>
  </event>
  <event>
  6     66 0.16841828E-05 0.38696922E+02 0.75467711E-02 0.91435611E-01
       -1 -1    0    0    0  501 0.00000000E+00 0.00000000E+00 0.35456784E+03 0.35456799E+03 0.32000000E+00 0.0000E+00 0.9000E+01
        2 -1    0    0  501    0 -.00000000E+00 -.00000000E+00 -.21498087E+04 0.21498087E+04 0.32000000E+00 0.0000E+00 0.9000E+01
       25  1    1    2    0    0 -.61732070E+03 -.22717268E+03 -.94152077E+02 0.67615227E+03 0.12500000E+03 0.0000E+00 0.9000E+01
       -1  1    1    2    0  503 0.12703463E+03 0.28106790E+02 -.29316641E+03 0.32074044E+03 0.32000000E+00 0.0000E+00 0.9000E+01
        2  1    1    2  502    0 0.46930737E+03 0.21075205E+03 -.13344288E+04 0.14301630E+04 0.32000000E+00 0.0000E+00 0.9000E+01
       21  1    1    2  503  502 0.20978699E+02 -.11686153E+02 -.73493581E+02 0.77321025E+02 0.75000000E+00 0.0000E+00 0.9000E+01
#aMCatNLO 2  0  0  4  1 0.96872623D+00 0.00000000D+00  -5  6  0 0.00000000D+00 0.00000000D+00 0.00000000D+00 0.00000000D+00 0.00000000D+00
  <mgrwgt>
 0.2737278044D-03    1    2    0
 0.873071155870725D+03 0.000000000000000D+00 0.000000000000000D+00 0.873071155870725D+03
 0.873071155870725D+03 -.000000000000000D+00 -.000000000000000D+00 -.873071155870725D+03
 0.875293742120208D+03 -.619199301238024D+03 -.227381097640485D+03 0.561608579686019D+03
 0.193321979321275D+03 0.151283584932437D+03 0.167603330493537D+02 -.119187901461349D+03
 0.677526590299968D+03 0.467915716305587D+03 0.210620764591132D+03 -.442420678224670D+03
 0.000000000000000D+00 0.000000000000000D+00 0.000000000000000D+00 -.000000000000000D+00
 0.873071155870725D+03 0.000000000000000D+00 0.000000000000000D+00 0.873071155870725D+03
 0.873071155870725D+03 -.000000000000000D+00 -.000000000000000D+00 -.873071155870725D+03
 0.872953565659380D+03 -.617314493344345D+03 -.227172284450038D+03 0.560123644637674D+03
 0.158387258812145D+03 0.126877590315668D+03 0.281205735445718D+02 -.905418918138963D+02
 0.679339982273083D+03 0.469378571598013D+03 0.210782830699725D+03 -.443573180345265D+03
 0.354615049968415D+02 0.210583314306643D+02 -.117311197942592D+02 -.260085724785128D+02
0.904298757989D-04 0.000000000000D+00 0.000000000000D+00 0.172851088377D-05 0.554539011415D-08  6 -1 2 25 -1 2 21 2 0.54548912D-01 0.33073981D+00 0.44766501D+06 0.44766501D+06 0.44766501D+06 0.10719206D+01  1  2  1  3  6  4       -1 0.273727804418D-03 0.100000000000D+01
  </mgrwgt>
  </event>
  <event>
  7     66 0.16841828E-05 0.34722551E+02 0.75467711E-02 0.90905997E-01
       -1 -1    0    0    0  501 0.00000000E+00 0.00000000E+00 0.46270321E+03 0.46270332E+03 0.32000000E+00 0.0000E+00 0.9000E+01
        2 -1    0    0  503    0 0.00000000E+00 0.00000000E+00 -.15850569E+04 0.15850570E+04 0.32000000E+00 0.0000E+00 0.9000E+01
       24  2    1    2    0    0 0.47756927E+03 -.41834293E+03 0.32061278E+02 0.64143890E+03 0.85631343E+02 0.0000E+00 0.0000E+00
       25  1    1    2    0    0 -.53798024E+03 0.43621306E+03 -.89077330E+03 0.11352562E+04 0.12500000E+03 0.0000E+00 0.9000E+01
       -1  1    3    3    0  502 0.27367221E+03 -.29406695E+03 0.26593405E+02 0.40259057E+03 0.32000000E+00 0.0000E+00 0.9000E+01
        2  1    3    3  502    0 0.20389706E+03 -.12427598E+03 0.54678734E+01 0.23884834E+03 0.32000000E+00 0.0000E+00 0.9000E+01
       21  1    1    2  503  501 0.60410969E+02 -.17870131E+02 -.26364171E+03 0.27106519E+03 0.75000000E+00 0.0000E+00 0.9000E+01
#aMCatNLO 2  0  0  2  2 0.78066527D+02 0.00000000D+00  -5  6  0 0.00000000D+00 0.00000000D+00 0.00000000D+00 0.00000000D+00 0.00000000D+00
  <mgrwgt>
 0.1803713674D-02    1    2    0
 0.777060219286018D+03 0.000000000000000D+00 0.000000000000000D+00 0.777060219286018D+03
 0.777060219286018D+03 0.000000000000000D+00 0.000000000000000D+00 -.777060219286018D+03
 0.779728054149015D+03 -.507192615055653D+03 0.427105793600346D+03 -.390752006690991D+03
 0.488964035800249D+03 0.292392207477670D+03 -.299606582428780D+03 0.252643070512035D+03
 0.285428348622771D+03 0.214800407577983D+03 -.127499211171566D+03 0.138108936178955D+03
 0.000000000000000D+00 0.000000000000000D+00 -.000000000000000D+00 -.000000000000000D+00
 0.783986583546116D+03 0.000000000000000D+00 0.000000000000000D+00 0.783986583546116D+03
 0.935487305291618D+03 0.000000000000000D+00 0.000000000000000D+00 -.935487305291618D+03
 0.804994846370703D+03 -.537980238583555D+03 0.436213061294521D+03 -.390752006690991D+03
 0.474554845585250D+03 0.273673189425749D+03 -.294069321385671D+03 0.252643070512035D+03
 0.275847094821733D+03 0.203896080365599D+03 -.124273608946761D+03 0.138108936178955D+03
 0.164077102060048D+03 0.604109687922067D+02 -.178701309620886D+02 -.151500721745503D+03
0.490391249962D-03 0.000000000000D+00 0.000000000000D+00 0.733979761878D-05 0.115396180442D-07  6 -1 2 25 -1 2 21 2 0.71185043D-01 0.24385466D+00 0.49511782D+06 0.49511782D+06 0.49511782D+06 0.10688117D+01  1  2  1  2  6  2        2 0.180371367444D-02 0.100000000000D+01
  </mgrwgt>
  </event>
  <event>
  7     66 0.16841828E-05 0.21124805E+03 0.75467711E-02 0.92385994E-01
       21 -1    0    0  503  501 0.00000000E+00 0.00000000E+00 0.19940965E+03 0.19941106E+03 0.75000000E+00 0.0000E+00 0.9000E+01
        2 -1    0    0  501    0 0.00000000E+00 0.00000000E+00 -.27699368E+04 0.27699369E+04 0.32000000E+00 0.0000E+00 0.9000E+01
       24  2    1    2    0    0 -.42233406E+03 -.30173887E+02 -.14139024E+04 0.14781170E+04 0.80208927E+02 0.0000E+00 0.0000E+00
       25  1    1    2    0    0 0.48418547E+03 0.25422908E+03 -.37251285E+03 0.67339351E+03 0.12500000E+03 0.0000E+00 0.9000E+01
       -1  1    3    3    0  502 -.33801068E+03 0.85018176E+01 -.10998883E+04 0.11506858E+04 0.32000000E+00 0.0000E+00 0.9000E+01
        2  1    3    3  502    0 -.84323385E+02 -.38675705E+02 -.31401408E+03 0.32743120E+03 0.32000000E+00 0.0000E+00 0.9000E+01
        1  1    1    2  503    0 -.61851406E+02 -.22405519E+03 -.78411196E+03 0.81783739E+03 0.32000000E+00 0.0000E+00 0.9000E+01
#aMCatNLO 2  0  0  1  2 0.15965789D+03 0.00000000D+00  -5  6  0 0.00000000D+00 0.00000000D+00 0.00000000D+00 0.00000000D+00 0.00000000D+00
  <mgrwgt>
 0.4231713956D-04    1    2    0
 0.588152163121546D+03 0.000000000000000D+00 0.000000000000000D+00 0.588152163121546D+03
 0.588152163121546D+03 0.000000000000000D+00 0.000000000000000D+00 -.588152163121546D+03
 0.592059114668571D+03 0.451757521689301D+03 0.136759637900374D+03 0.334844648009539D+03
 0.450447170038574D+03 -.360837814808125D+03 -.741735422616066D+02 -.259223860839667D+03
 0.133798041535947D+03 -.909197068811760D+02 -.625860956387679D+02 -.756207871698713D+02
 0.000000000000000D+00 -.000000000000000D+00 -.000000000000000D+00 -.000000000000000D+00
 0.654905012872679D+03 0.000000000000000D+00 0.000000000000000D+00 0.654905012872679D+03
 0.843411044900971D+03 0.000000000000000D+00 0.000000000000000D+00 -.843411044900971D+03
 0.653309981445015D+03 0.484185469765463D+03 0.254229078633918D+03 0.334844648009539D+03
 0.426055456576278D+03 -.338014716215758D+03 0.850256851650926D+01 -.259223860839667D+03
 0.119683432264640D+03 -.843193471192979D+02 -.386764554713732D+02 -.756207871698713D+02
 0.299267187487717D+03 -.618514064304074D+02 -.224055191679054D+03 -.188506032028292D+03
0.108136997293D-05 0.000000000000D+00 0.000000000000D+00 0.129922842630D-03 0.310665986129D-09  6 21 2 25 -1 2 1 2 0.30678514D-01 0.42614419D+00 0.37472689D+06 0.37472689D+06 0.37472689D+06 0.10774770D+01  1  2  1  5  6  1       -1 0.423171395579D-04 0.100000000000D+01
  </mgrwgt>
  </event>
  <event>
  7     66 0.16841828E-05 0.36943501E+02 0.75467711E-02 0.94442194E-01
       -1 -1    0    0    0  503 0.00000000E+00 0.00000000E+00 0.23799342E+03 0.23799364E+03 0.32000000E+00 0.0000E+00 0.9000E+01
        2 -1    0    0  501    0 0.00000000E+00 0.00000000E+00 -.18842231E+04 0.18842231E+04 0.32000000E+00 0.0000E+00 0.9000E+01
       24  2    1    2    0    0 -.47142435E+03 0.11619615E+03 -.14931436E+04 0.15721187E+04 0.79604356E+02 0.0000E+00 0.0000E+00
       25  1    1    2    0    0 0.45414721E+03 -.14584522E+03 -.15104660E+03 0.51571367E+03 0.12500000E+03 0.0000E+00 0.9000E+01
       -1  1    3    3    0  502 -.15407504E+03 0.10470295E+02 -.55687714E+03 0.57789359E+03 0.32000000E+00 0.0000E+00 0.9000E+01
        2  1    3    3  502    0 -.31734930E+03 0.10572585E+03 -.93626645E+03 0.99422508E+03 0.32000000E+00 0.0000E+00 0.9000E+01
       21  1    1    2  501  503 0.17277142E+02 0.29649070E+02 -.20394870E+01 0.34384429E+02 0.75000000E+00 0.0000E+00 0.9000E+01
#aMCatNLO 2  0  0  1  2 0.15965789D+03 0.00000000D+00  -5  6  0 0.00000000D+00 0.00000000D+00 0.00000000D+00 0.00000000D+00 0.00000000D+00
  <mgrwgt>
 0.2061159928D-02    1    2    0
 0.643137797862969D+03 0.000000000000000D+00 0.000000000000000D+00 0.643137797862969D+03
 0.643137797862969D+03 0.000000000000000D+00 0.000000000000000D+00 -.643137797862969D+03
 0.646748278567831D+03 0.462812803952878D+03 -.130974304994383D+03 0.413894160092851D+03
 0.224351203488045D+03 -.151047740689605D+03 0.156593427357607D+02 -.165144868295034D+03
 0.415176113670061D+03 -.311765063263272D+03 0.115314962258622D+03 -.248749291797817D+03
 0.000000000000000D+00 0.000000000000000D+00 0.000000000000000D+00 0.000000000000000D+00
 0.690270241416481D+03 0.000000000000000D+00 0.000000000000000D+00 0.690270241416481D+03
 0.649643154603506D+03 0.000000000000000D+00 0.000000000000000D+00 -.649643154603506D+03
 0.643780932794926D+03 0.454147207473553D+03 -.145845218006326D+03 0.413894160092851D+03
 0.226098935642272D+03 -.154072406156602D+03 0.104687552029525D+02 -.165144868295034D+03
 0.416853388746979D+03 -.317351943330269D+03 0.105727392876331D+03 -.248749291797817D+03
 0.531801388358096D+02 0.172771420133175D+02 0.296490699270416D+02 0.406270868129755D+02
0.224050726167D-03 0.000000000000D+00 0.000000000000D+00 0.682387636653D-04 0.367390377673D-06  6 -1 2 25 -1 2 21 2 0.36614243D-01 0.28987932D+00 0.25823759D+06 0.25823759D+06 0.25823759D+06 0.10894015D+01  1  2  1  1  6  1       -1 0.206115992770D-02 0.100000000000D+01
  </mgrwgt>
  </event>
  <event>
  7     66 0.16841828E-05 0.63962877E+02 0.75467711E-02 0.89477284E-01
       -1 -1    0    0    0  501 0.00000000E+00 0.00000000E+00 0.91406506E+03 0.91406511E+03 0.32000000E+00 0.0000E+00 0.9000E+01
        2 -1    0    0  503    0 0.00000000E+00 0.00000000E+00 -.77637755E+03 0.77637762E+03 0.32000000E+00 0.0000E+00 0.9000E+01
       24  2    1    2    0    0 0.78088517E+03 -.18651204E+03 -.12806061E+02 0.80709753E+03 0.81694806E+02 0.0000E+00 0.0000E+00
       25  1    1    2    0    0 -.75884972E+03 0.18410983E+03 0.21135973E+03 0.81856415E+03 0.12500000E+03 0.0000E+00 0.9000E+01
       -1  1    3    3    0  502 0.41823204E+03 -.12243247E+03 0.27361936E+02 0.43664234E+03 0.32000000E+00 0.0000E+00 0.9000E+01
        2  1    3    3  502    0 0.36265312E+03 -.64079568E+02 -.40167997E+02 0.37045519E+03 0.32000000E+00 0.0000E+00 0.9000E+01
       21  1    1    2  503  501 -.22035444E+02 0.24022076E+01 -.60866169E+02 0.64781050E+02 0.75000000E+00 0.0000E+00 0.9000E+01
#aMCatNLO 2  0  0  2  2 0.18932628D+02 0.00000000D+00  -5  6  0 0.00000000D+00 0.00000000D+00 0.00000000D+00 0.00000000D+00 0.00000000D+00
  <mgrwgt>
 0.1661748601D-02    1    2    0
 0.806669231989085D+03 0.000000000000000D+00 0.000000000000000D+00 0.806669231989085D+03
 0.806669231989085D+03 0.000000000000000D+00 0.000000000000000D+00 -.806669231989085D+03
 0.809443280637570D+03 -.769831645756472D+03 0.185307035322763D+03 0.112222833777626D+03
 0.430716369451273D+03 0.412310350627427D+03 -.121787719279385D+03 -.261632779196193D+02
 0.373178813889328D+03 0.357521295129045D+03 -.635193160433776D+02 -.860595558580069D+02
 0.000000000000000D+00 -.000000000000000D+00 0.000000000000000D+00 -.000000000000000D+00
 0.808474761735289D+03 0.000000000000000D+00 0.000000000000000D+00 0.808474761735289D+03
 0.877771749159136D+03 0.000000000000000D+00 0.000000000000000D+00 -.877771749159136D+03
 0.798729174834142D+03 -.758849721169005D+03 0.184109834044442D+03 0.112222833777626D+03
 0.436569812002415D+03 0.418232894200457D+03 -.122433369017741D+03 -.261632779196193D+02
 0.378191741604669D+03 0.362652271442937D+03 -.640786725890450D+02 -.860595558580069D+02
 0.727557824531996D+02 -.220354444743891D+02 0.240220756234432D+01 -.692969874238472D+02
0.722256022120D-03 0.000000000000D+00 0.000000000000D+00 0.128868236574D-03 0.157875805299D-05  6 -1 2 25 -1 2 21 2 0.14062507D+00 0.11944242D+00 0.65369424D+06 0.65369424D+06 0.65369424D+06 0.10603795D+01  1  2  1  2  6  2        2 0.166174860121D-02 0.100000000000D+01
  </mgrwgt>
  </event>
  <event>
  5     66 0.16841828E-05 0.30257326E+03 0.75467711E-02 0.90620977E-01
       -1 -1    0    0    0  501 0.00000000E+00 0.00000000E+00 0.11929149E+04 0.11929149E+04 0.32000000E+00 0.0000E+00 0.9000E+01
        2 -1    0    0  501    0 0.00000000E+00 0.00000000E+00 -.47883911E+03 0.47883922E+03 0.32000000E+00 0.0000E+00 0.9000E+01
       25  1    1    2    0    0 0.71708703E+02 0.64292975E+03 0.84961046E+02 0.66433740E+03 0.12500000E+03 0.0000E+00 0.9000E+01
       -1  1    1    2    0  502 0.68631263E+02 -.36271950E+03 0.58386368E+03 0.69077680E+03 0.32000000E+00 0.0000E+00 0.9000E+01
        2  1    1    2  502    0 -.14033997E+03 -.28021025E+03 0.45251043E+02 0.31663994E+03 0.32000000E+00 0.0000E+00 0.9000E+01
#aMCatNLO 1  0  0  1  2 0.10085944D+03 0.00000000D+00  -5  6  0 0.00000000D+00 0.00000000D+00 0.00000000D+00 0.00000000D+00 0.00000000D+00
  <mgrwgt>
 0.2852885350D-03    9    2    0
 0.755787288454253D+03 0.000000000000000D+00 0.000000000000000D+00 0.755787288454253D+03
 0.755787288454253D+03 0.000000000000000D+00 0.000000000000000D+00 -.755787288454253D+03
 0.694606337557297D+03 0.717093449229438D+02 0.642935513340790D+03 -.219874190642509D+03
 0.488155020330804D+03 0.686259285914477D+02 -.362723958378526D+03 0.319401214489462D+03
 0.328813219020405D+03 -.140335273514392D+03 -.280211554962264D+03 -.995270238469522D+02
 0.000000000000000D+00 0.000000000000000D+00 0.000000000000000D+00 0.000000000000000D+00
 0.827970426416365D+03 0.000000000000000D+00 0.000000000000000D+00 0.827970426416365D+03
 0.793539717412897D+03 0.000000000000000D+00 0.000000000000000D+00 -.793539717412897D+03
 0.681506854815233D+03 0.271108874148303D+02 0.632255433533816D+03 -.219874190642509D+03
 0.490423847656719D+03 0.369111624630632D+02 -.370318755423896D+03 0.319401214489462D+03
 0.343005048337682D+03 -.162108234209788D+03 -.285425568424920D+03 -.995270238469522D+02
 0.106574393019627D+03 0.980861843318947D+02 0.234888903149997D+02 0.344307090034677D+02
0.751415885644D-04 0.000000000000D+00 0.000000000000D+00 0.285422808646D-08 0.000000000000D+00  6 -1 2 25 -1 2 21 0 0.18352538D+00 0.73667567D-01 0.44986225D+06 0.44986225D+06 0.44986225D+06 0.10717689D+01  1  2  2  1  6  1       -1 0.123260884435D-03 0.100000000000D+01
0.281034884916D-07 0.000000000000D+00 -.288563485322D-06 0.285422808646D-08 0.000000000000D+00  6 -1 2 25 -1 2 21 2 0.18352538D+00 0.73667567D-01 0.44986225D+06 0.44986225D+06 0.44986225D+06 0.10717689D+01  1  2  3  1  6  1       -1 0.529550548459D-07 0.100000000000D+01
-.240570913127D-04 0.000000000000D+00 0.000000000000D+00 0.285422808646D-08 0.000000000000D+00  6 -1 2 25 -1 2 21 2 0.18352538D+00 0.73667567D-01 0.44986225D+06 0.44986225D+06 0.44986225D+06 0.10717689D+01  1  2 15  1  6  1       -1 -.453304788222D-04 0.100000000000D+01
0.202167561931D-04 0.000000000000D+00 0.000000000000D+00 0.285422808646D-08 0.000000000000D+00  6 -1 2 25 -1 2 21 2 0.20529562D+00 0.73667567D-01 0.52296388D+06 0.52296388D+06 0.52296388D+06 0.10671348D+01  1  2 12  1  6  1       -1 0.249001801748D-04 0.100000000000D+01
-.275627967620D-04 0.000000000000D+00 0.000000000000D+00 0.285422808646D-08 0.000000000000D+00  6 -1 2 25 -1 2 21 2 0.18352538D+00 0.73667567D-01 0.44986225D+06 0.44986225D+06 0.44986225D+06 0.10717689D+01  1  2  4  1  6  1       -1 -.519362361251D-04 0.100000000000D+01
-.408585068514D-03 0.000000000000D+00 -.863263694062D-04 0.285422808646D-08 0.000000000000D+00  6 -1 2 25 -1 2 21 2 0.20697095D+00 0.73667567D-01 0.44986225D+06 0.44986225D+06 0.44986225D+06 0.10717689D+01  1  2  5  1  6  1       -1 -.496145540940D-03 0.100000000000D+01
0.416569638774D-03 0.000000000000D+00 0.857062170016D-04 0.285422808646D-08 0.000000000000D+00  6 -1 2 25 -1 2 21 2 0.18352538D+00 0.73667567D-01 0.44986225D+06 0.44986225D+06 0.44986225D+06 0.10717689D+01  1  2  6  1  6  1       -1 0.784937004350D-03 0.100000000000D+01
0.362124803921D-06 0.000000000000D+00 0.000000000000D+00 0.285422808646D-08 0.000000000000D+00  6 21 2 25 -1 2 1 2 0.20529562D+00 0.73667567D-01 0.52296388D+06 0.52296388D+06 0.52296388D+06 0.10671348D+01  1  2 12  5  6  1       -1 0.283780786888D-05 0.100000000000D+01
-.736399998546D-05 0.000000000000D+00 -.164052319088D-05 0.285422808646D-08 0.000000000000D+00  6 21 2 25 -1 2 1 2 0.20697095D+00 0.73667567D-01 0.44986225D+06 0.44986225D+06 0.44986225D+06 0.10717689D+01  1  2  5  5  6  1       -1 -.572880409737D-04 0.100000000000D+01
  </mgrwgt>
  </event>
  <event>
  7     66 0.16841828E-05 0.70455626E+02 0.75467711E-02 0.92157277E-01
       -1 -1    0    0    0  503 0.00000000E+00 0.00000000E+00 0.11650862E+03 0.11650906E+03 0.32000000E+00 0.0000E+00 0.9000E+01
        2 -1    0    0  501    0 0.00000000E+00 0.00000000E+00 -.33755387E+04 0.33755387E+04 0.32000000E+00 0.0000E+00 0.9000E+01
       24  2    1    2    0    0 -.32413300E+03 -.51537219E+03 -.16625520E+04 0.17724312E+04 0.82235054E+02 0.0000E+00 0.0000E+00
       25  1    1    2    0    0 0.30725123E+03 0.52287942E+03 -.15658427E+04 0.16838333E+04 0.12500000E+03 0.0000E+00 0.9000E+01
       -1  1    3    3    0  502 -.12694002E+03 -.26783306E+03 -.74267792E+03 0.79963674E+03 0.32000000E+00 0.0000E+00 0.9000E+01
        2  1    3    3  502    0 -.19719298E+03 -.24753913E+03 -.91987407E+03 0.97279448E+03 0.32000000E+00 0.0000E+00 0.9000E+01
       21  1    1    2  501  503 0.16881775E+02 -.75072277E+01 -.30635460E+02 0.35783330E+02 0.75000000E+00 0.0000E+00 0.9000E+01
#aMCatNLO 2  0  0  1  2 0.10085944D+03 0.00000000D+00  -5  6  0 0.00000000D+00 0.00000000D+00 0.00000000D+00 0.00000000D+00 0.00000000D+00
  <mgrwgt>
 0.3295604600D-02    1    2    0
 0.617027301747687D+03 0.000000000000000D+00 0.000000000000000D+00 0.617027301747687D+03
 0.617027301747687D+03 0.000000000000000D+00 0.000000000000000D+00 -.617027301747687D+03
 0.620618065043904D+03 0.315733293004508D+03 0.519107495651167D+03 0.195365889075526D+02
 0.296555728692582D+03 -.122881818472972D+03 -.269637556834060D+03 0.118721040141463D+02
 0.316880809758887D+03 -.192851474531537D+03 -.249469938817106D+03 -.314086929216989D+02
 0.000000000000000D+00 0.000000000000000D+00 -.000000000000000D+00 0.000000000000000D+00
 0.631030376958154D+03 0.000000000000000D+00 0.000000000000000D+00 0.631030376958154D+03
 0.623220940872340D+03 0.000000000000000D+00 0.000000000000000D+00 -.623220940872340D+03
 0.619526338503170D+03 0.307251226878834D+03 0.522879421448629D+03 0.195365889075526D+02
 0.296629668373038D+03 -.126938957099977D+03 -.267833370728418D+03 0.118721040141463D+02
 0.318036894252591D+03 -.197194044585785D+03 -.247538823004966D+03 -.314086929216989D+02
 0.200584167016938D+02 0.168817748069280D+02 -.750722771524535D+01 0.780943608581388D+01
0.896539859520D-03 0.000000000000D+00 0.000000000000D+00 0.780522491237D-04 0.141292506154D-05  6 -1 2 25 -1 2 21 2 0.17924237D-01 0.51930787D+00 0.39098015D+06 0.39098015D+06 0.39098015D+06 0.10761424D+01  1  2  1  1  6  1       -1 0.329560460030D-02 0.100000000000D+01
  </mgrwgt>
  </event>
  <event>
  7     66 0.16841828E-05 0.44674707E+02 0.75467711E-02 0.94617903E-01
       21 -1    0    0  503  501 0.00000000E+00 0.00000000E+00 0.15531742E+03 0.15531923E+03 0.75000000E+00 0.0000E+00 0.9000E+01
        2 -1    0    0  501    0 0.00000000E+00 0.00000000E+00 -.29109821E+04 0.29109821E+04 0.32000000E+00 0.0000E+00 0.9000E+01
       24  2    1    2    0    0 0.41905195E+03 -.17035994E+02 -.16910032E+04 0.17440339E+04 0.79168385E+02 0.0000E+00 0.0000E+00
       25  1    1    2    0    0 -.48572291E+03 -.22671631E+02 -.11197151E+04 0.12271217E+04 0.12500000E+03 0.0000E+00 0.9000E+01
       -1  1    3    3    0  502 0.17249803E+03 0.11177243E+02 -.55754447E+03 0.58372634E+03 0.32000000E+00 0.0000E+00 0.9000E+01
        2  1    3    3  502    0 0.24655393E+03 -.28213237E+02 -.11334587E+04 0.11603076E+04 0.32000000E+00 0.0000E+00 0.9000E+01
        1  1    1    2  503    0 0.66670957E+02 0.39707625E+02 0.55053618E+02 0.95145758E+02 0.32000000E+00 0.0000E+00 0.9000E+01
#aMCatNLO 2  0  0  1  2 0.19774584D+02 0.00000000D+00  -5  6  0 0.00000000D+00 0.00000000D+00 0.00000000D+00 0.00000000D+00 0.00000000D+00
  <mgrwgt>
 0.5665533043D-03    1    2    0
 0.480001682714242D+03 0.000000000000000D+00 0.000000000000000D+00 0.480001682714242D+03
 0.480001682714242D+03 0.000000000000000D+00 0.000000000000000D+00 -.480001682714242D+03
 0.484875294160087D+03 -.450960398464817D+03 -.196791100158127D+01 0.126924769960693D+03
 0.186649516458127D+03 0.184987302816613D+03 0.186169199250940D+02 -.164666354544549D+02
 0.288478554810270D+03 0.265973095648203D+03 -.166490089235127D+02 -.110458134506238D+03
 0.000000000000000D+00 0.000000000000000D+00 0.000000000000000D+00 0.000000000000000D+00
 0.932404406440989D+03 0.000000000000000D+00 0.000000000000000D+00 0.932404406440989D+03
 0.484906461850707D+03 0.000000000000000D+00 0.000000000000000D+00 -.484906461850707D+03
 0.517856781995266D+03 -.485722911307259D+03 -.226716311746246D+02 0.126924769960693D+03
 0.173641146598417D+03 0.172496818968189D+03 0.111778868610642D+02 -.164666354544549D+02
 0.271636627726308D+03 0.246555135767205D+03 -.282138808166840D+02 -.110458134506238D+03
 0.454176311971705D+03 0.666709565718654D+02 0.397076251302444D+02 0.447497944590283D+03
0.102472105541D-04 0.000000000000D+00 0.000000000000D+00 0.140424484890D-03 0.135008220067D-07  6 21 2 25 -1 2 1 2 0.23895125D-01 0.44784349D+00 0.25034210D+06 0.25034210D+06 0.25034210D+06 0.10904144D+01  1  2  1  5  6  1       -1 0.566553304309D-03 0.100000000000D+01
  </mgrwgt>
  </event>
  <event>
  7     66 0.16841828E-05 0.98063686E+02 0.75467711E-02 0.93981580E-01
       21 -1    0    0  503  501 0.00000000E+00 0.00000000E+00 0.21760758E+03 0.21760887E+03 0.75000000E+00 0.0000E+00 0.9000E+01
        2 -1    0    0  501    0 0.00000000E+00 0.00000000E+00 -.16455490E+04 0.16455491E+04 0.32000000E+00 0.0000E+00 0.9000E+01
       24  2    1    2    0    0 -.35554008E+02 0.42266667E+03 -.83548516E+03 0.94036498E+03 0.79621869E+02 0.0000E+00 0.0000E+00
       25  1    1    2    0    0 -.82108009E+02 -.48062623E+03 -.60955241E+03 0.79052036E+03 0.12500000E+03 0.0000E+00 0.9000E+01
       -1  1    3    3    0  502 -.85914940E+01 0.17439253E+03 -.43062965E+03 0.46468114E+03 0.32000000E+00 0.0000E+00 0.9000E+01
        2  1    3    3  502    0 -.26962514E+02 0.24827414E+03 -.40485552E+03 0.47568384E+03 0.32000000E+00 0.0000E+00 0.9000E+01
        1  1    1    2  503    0 0.11766202E+03 0.57959554E+02 0.17096121E+02 0.13227260E+03 0.32000000E+00 0.0000E+00 0.9000E+01
#aMCatNLO 2  0  0  1  5 0.73581916D+02 0.00000000D+00  -5  6  0 0.00000000D+00 0.00000000D+00 0.00000000D+00 0.00000000D+00 0.00000000D+00
  <mgrwgt>
 0.5086324893D-03    1    2    0
 0.471865133953168D+03 0.000000000000000D+00 0.000000000000000D+00 0.471865133953168D+03
 0.471865133953168D+03 0.000000000000000D+00 0.000000000000000D+00 -.471865133953168D+03
 0.476784631741099D+03 -.207866518189824D+02 -.450419720093341D+03 0.915891692378940D+02
 0.202525704200480D+03 0.158264966855869D+02 0.186419339704047D+03 -.775500654343279D+02
 0.264419931964757D+03 0.496015513339556D+01 0.264000380389294D+03 -.140391038035661D+02
 0.000000000000000D+00 0.000000000000000D+00 0.000000000000000D+00 0.000000000000000D+00
 0.725342015515040D+03 0.000000000000000D+00 0.000000000000000D+00 0.725342015515040D+03
 0.493677514858769D+03 0.000000000000000D+00 0.000000000000000D+00 -.493677514858769D+03
 0.511621804511203D+03 -.821080092446327D+02 -.480626226653826D+03 0.915891692378940D+02
 0.191050153100836D+03 -.859119722501821D+01 0.174391340614221D+03 -.775500654343279D+02
 0.250129427128161D+03 -.269628109712300D+02 0.248275332452470D+03 -.140391038035661D+02
 0.266218145633609D+03 0.117662017440881D+03 0.579595535871356D+02 0.231664500656271D+03
0.345351898522D-05 0.000000000000D+00 0.000000000000D+00 0.114852787849D-03 0.250804697333D-08  6 21 2 25 -1 2 1 2 0.33478185D-01 0.25316144D+00 0.28029491D+06 0.28029491D+06 0.28029491D+06 0.10867416D+01  1  2  1  5  6  1       -1 0.508632489257D-03 0.100000000000D+01
  </mgrwgt>
  </event>
  <event>
  7     66 0.16841828E-05 0.35059647E+02 0.75467711E-02 0.92314534E-01
       -1 -1    0    0    0  501 0.00000000E+00 0.00000000E+00 0.56622109E+03 0.56622118E+03 0.32000000E+00 0.0000E+00 0.9000E+01
        2 -1    0    0  503    0 0.00000000E+00 0.00000000E+00 -.15364127E+04 0.15364127E+04 0.32000000E+00 0.0000E+00 0.9000E+01
       24  2    1    2    0    0 0.31701082E+03 -.50596518E+03 0.30080642E+03 0.67356502E+03 0.81906669E+02 0.0000E+00 0.0000E+00
       25  1    1    2    0    0 -.33409118E+03 0.45215608E+03 -.10158549E+04 0.11677534E+04 0.12500000E+03 0.0000E+00 0.9000E+01
       -1  1    3    3    0  502 0.46311723E+02 -.11997324E+03 0.90961561E+02 0.15751972E+03 0.32000000E+00 0.0000E+00 0.9000E+01
        2  1    3    3  502    0 0.27069910E+03 -.38599194E+03 0.20984486E+03 0.51604529E+03 0.32000000E+00 0.0000E+00 0.9000E+01
       21  1    1    2  503  501 0.17080357E+02 0.53809102E+02 -.25514313E+03 0.26131540E+03 0.75000000E+00 0.0000E+00 0.9000E+01
#aMCatNLO 2  0  0  2  2 0.18932628D+02 0.00000000D+00  -5  6  0 0.00000000D+00 0.00000000D+00 0.00000000D+00 0.00000000D+00 0.00000000D+00
  <mgrwgt>
 0.3127765661D-02    1    2    0
 0.847934588031498D+03 0.000000000000000D+00 0.000000000000000D+00 0.847934588031498D+03
 0.847934588031498D+03 0.000000000000000D+00 0.000000000000000D+00 -.847934588031498D+03
 0.850563416291587D+03 -.325584522267771D+03 0.478955020576516D+03 -.610270376356113D+03
 0.206035968853979D+03 0.483990972736321D+02 -.113382435106477D+03 0.165084133865193D+03
 0.639269790917430D+03 0.277185424994139D+03 -.365572585470039D+03 0.445186242490920D+03
 0.000000000000000D+00 0.000000000000000D+00 0.000000000000000D+00 -.000000000000000D+00
 0.853052992534401D+03 0.000000000000000D+00 0.000000000000000D+00 0.853052992534401D+03
 0.101980505325579D+04 0.000000000000000D+00 0.000000000000000D+00 -.101980505325579D+04
 0.839116777868038D+03 -.334091177826825D+03 0.452156078738406D+03 -.610270376356113D+03
 0.209260208137176D+03 0.463082983491571D+02 -.119969183374726D+03 0.165084133865193D+03
 0.648431612631850D+03 0.270702522288191D+03 -.385995997626878D+03 0.445186242490920D+03
 0.176049447153129D+03 0.170803571894771D+02 0.538091022631980D+02 -.166752060721392D+03
0.117354206955D-02 0.000000000000D+00 0.000000000000D+00 0.369350867028D-04 0.725129450726D-07  6 -1 2 25 -1 2 21 2 0.87110865D-01 0.23637097D+00 0.37972236D+06 0.37972236D+06 0.37972236D+06 0.10770602D+01  1  2  1  2  6  2        2 0.312776566085D-02 0.100000000000D+01
  </mgrwgt>
  </event>
  <event>
  7     66 0.16841828E-05 0.57582755E+02 0.75467711E-02 0.92057175E-01
       -1 -1    0    0    0  503 0.00000000E+00 0.00000000E+00 0.37690779E+03 0.37690793E+03 0.32000000E+00 0.0000E+00 0.9000E+01
        2 -1    0    0  501    0 0.00000000E+00 0.00000000E+00 -.11617950E+04 0.11617951E+04 0.32000000E+00 0.0000E+00 0.9000E+01
       24  2    1    2    0    0 -.48180949E+03 -.37375968E+03 -.58509544E+03 0.84891926E+03 0.80563973E+02 0.0000E+00 0.0000E+00
       25  1    1    2    0    0 0.48998025E+03 0.38649482E+03 -.21145019E+03 0.67066763E+03 0.12500000E+03 0.0000E+00 0.9000E+01
       -1  1    3    3    0  502 -.20078212E+03 -.13515488E+03 -.28229692E+03 0.37184937E+03 0.32000000E+00 0.0000E+00 0.9000E+01
        2  1    3    3  502    0 -.28102737E+03 -.23860480E+03 -.30279852E+03 0.47706989E+03 0.32000000E+00 0.0000E+00 0.9000E+01
       21  1    1    2  501  503 -.81707653E+01 -.12735139E+02 0.11658389E+02 0.19116111E+02 0.75000000E+00 0.0000E+00 0.9000E+01
#aMCatNLO 2  0  0  1  5 0.73581916D+02 0.00000000D+00  -5  6  0 0.00000000D+00 0.00000000D+00 0.00000000D+00 0.00000000D+00 0.00000000D+00
  <mgrwgt>
 0.2773496018D-02    1    2    0
 0.646998925006764D+03 0.000000000000000D+00 0.000000000000000D+00 0.646998925006764D+03
 0.646998925006764D+03 0.000000000000000D+00 0.000000000000000D+00 -.646998925006764D+03
 0.650528469612879D+03 0.485851088252706D+03 0.380059009859884D+03 0.164517959034450D+03
 0.265498522395130D+03 -.202448989330086D+03 -.137753245513905D+03 -.102605630759767D+03
 0.377970858005518D+03 -.283402098922619D+03 -.242305764345979D+03 -.619123282746826D+02
 0.000000000000000D+00 -.000000000000000D+00 -.000000000000000D+00 0.000000000000000D+00
 0.674578059983087D+03 0.000000000000000D+00 0.000000000000000D+00 0.674578059983087D+03
 0.649121836892508D+03 0.000000000000000D+00 0.000000000000000D+00 -.649121836892508D+03
 0.657381205809292D+03 0.489980251868941D+03 0.386494817151364D+03 0.164517959034450D+03
 0.262882611165923D+03 -.200780852612999D+03 -.135153250104470D+03 -.102605630759767D+03
 0.373822494287841D+03 -.281028633984212D+03 -.238606428505518D+03 -.619123282746826D+02
 0.296135856125375D+02 -.817076527172991D+01 -.127351385413766D+02 0.254562230905790D+02
0.285910972725D-03 0.000000000000D+00 0.000000000000D+00 0.195851774115D-03 0.528331936377D-05  6 -1 2 25 -1 2 21 2 0.57985405D-01 0.17873641D+00 0.39834058D+06 0.39834058D+06 0.39834058D+06 0.10755578D+01  1  2  1  1  6  1       -1 0.277349601778D-02 0.100000000000D+01
  </mgrwgt>
  </event>
  <event>
  7     66 0.16841828E-05 0.56410372E+02 0.75467711E-02 0.92375769E-01
       -1 -1    0    0    0  501 0.00000000E+00 0.00000000E+00 0.26842128E+03 0.26842147E+03 0.32000000E+00 0.0000E+00 0.9000E+01
        2 -1    0    0  503    0 0.00000000E+00 0.00000000E+00 -.20819778E+04 0.20819778E+04 0.32000000E+00 0.0000E+00 0.9000E+01
       24  2    1    2    0    0 -.29988179E+03 -.49386949E+03 -.32257328E+03 0.66699129E+03 0.83592407E+02 0.0000E+00 0.0000E+00
       25  1    1    2    0    0 0.31750965E+03 0.51294418E+03 -.89319854E+03 0.10850589E+04 0.12500000E+03 0.0000E+00 0.9000E+01
       -1  1    3    3    0  502 -.87438618E+02 -.22045251E+03 -.14315889E+03 0.27701876E+03 0.32000000E+00 0.0000E+00 0.9000E+01
        2  1    3    3  502    0 -.21244317E+03 -.27341698E+03 -.17941438E+03 0.38997253E+03 0.32000000E+00 0.0000E+00 0.9000E+01
       21  1    1    2  503  501 -.17627863E+02 -.19074681E+02 -.59778467E+03 0.59834911E+03 0.75000000E+00 0.0000E+00 0.9000E+01
#aMCatNLO 2  0  0  2  2 0.18932628D+02 0.00000000D+00  -5  6  0 0.00000000D+00 0.00000000D+00 0.00000000D+00 0.00000000D+00 0.00000000D+00
  <mgrwgt>
 0.1712447871D-02    1    2    0
 0.630655221582308D+03 0.000000000000000D+00 0.000000000000000D+00 0.630655221582308D+03
 0.630655221582308D+03 0.000000000000000D+00 0.000000000000000D+00 -.630655221582308D+03
 0.634079164455885D+03 0.308564559229763D+03 0.503264908076620D+03 -.194791508754993D+03
 0.251362642929460D+03 -.909172182205188D+02 -.224217825346463D+03 0.681439981834696D+02
 0.375868635779270D+03 -.217647341009245D+03 -.279047082730157D+03 0.126647510571524D+03
 0.000000000000000D+00 -.000000000000000D+00 -.000000000000000D+00 -.000000000000000D+00
 0.631452278853938D+03 0.000000000000000D+00 0.000000000000000D+00 0.631452278853938D+03
 0.885017652733997D+03 0.000000000000000D+00 0.000000000000000D+00 -.885017652733997D+03
 0.646136858644224D+03 0.317509653384679D+03 0.512944176517406D+03 -.194791508754993D+03
 0.246754460168442D+03 -.874367865535294D+02 -.220451735039176D+03 0.681439981834696D+02
 0.368686510366213D+03 -.212445003461812D+03 -.273417760023307D+03 0.126647510571524D+03
 0.254892102409057D+03 -.176278633693382D+02 -.190746814549241D+02 -.253565373880059D+03
0.307010949552D-03 0.000000000000D+00 0.000000000000D+00 0.212339071883D-04 0.207047816797D-06  6 -1 2 25 -1 2 21 2 0.41295562D-01 0.32030401D+00 0.37543709D+06 0.37543709D+06 0.37543709D+06 0.10774174D+01  1  2  1  2  6  2        2 0.171244787087D-02 0.100000000000D+01
  </mgrwgt>
  </event>
  <event>
  7     66 0.16841828E-05 0.33261000E+02 0.75467711E-02 0.88746591E-01
       -1 -1    0    0    0  503 0.00000000E+00 0.00000000E+00 0.68499695E+03 0.68499702E+03 0.32000000E+00 0.0000E+00 0.9000E+01
        2 -1    0    0  501    0 0.00000000E+00 0.00000000E+00 -.16274170E+04 0.16274170E+04 0.32000000E+00 0.0000E+00 0.9000E+01
       24  2    1    2    0    0 -.58021886E+03 0.63957814E+03 -.42145002E+03 0.96430254E+03 0.80902000E+02 0.0000E+00 0.0000E+00
       25  1    1    2    0    0 0.55677504E+03 -.61086798E+03 -.74578617E+03 0.11202590E+04 0.12500000E+03 0.0000E+00 0.9000E+01
       -1  1    3    3    0  502 -.43499532E+03 0.43416033E+03 -.32158544E+03 0.69363781E+03 0.32000000E+00 0.0000E+00 0.9000E+01
        2  1    3    3  502    0 -.14522354E+03 0.20541781E+03 -.99864584E+02 0.27066472E+03 0.32000000E+00 0.0000E+00 0.9000E+01
       21  1    1    2  501  503 0.23443822E+02 -.28710164E+02 0.22481618E+03 0.22785251E+03 0.75000000E+00 0.0000E+00 0.9000E+01
#aMCatNLO 2  0  0  1  2 0.12505726D+02 0.00000000D+00  -5  6  0 0.00000000D+00 0.00000000D+00 0.00000000D+00 0.00000000D+00 0.00000000D+00
  <mgrwgt>
 0.2257320281D-02    1    2    0
 0.863362963677222D+03 0.000000000000000D+00 0.000000000000000D+00 0.863362963677222D+03
 0.863362963677222D+03 0.000000000000000D+00 0.000000000000000D+00 -.863362963677222D+03
 0.865992178377869D+03 0.568409716851744D+03 -.625116224900448D+03 -.143029899553835D+03
 0.606877603448850D+03 -.426673087434748D+03 0.423966641645285D+03 0.806398710238196D+02
 0.253856145527723D+03 -.141736629416996D+03 0.201149583255163D+03 0.623900285300151D+02
 0.000000000000000D+00 0.000000000000000D+00 -.000000000000000D+00 0.000000000000000D+00
 0.128969962639346D+04 0.000000000000000D+00 0.000000000000000D+00 0.128969962639346D+04
 0.864367866326866D+03 0.000000000000000D+00 0.000000000000000D+00 -.864367866326866D+03
 0.848080588033552D+03 0.556775042297009D+03 -.610867975841031D+03 -.143029899553835D+03
 0.619859632286991D+03 -.434999856742123D+03 0.434163908650360D+03 0.806398710238196D+02
 0.259183491080549D+03 -.145219007366512D+03 0.205414230977822D+03 0.623900285300151D+02
 0.426943781319232D+03 0.234438218116252D+02 -.287101637871499D+02 0.425331760066591D+03
0.157202959637D-02 0.000000000000D+00 0.000000000000D+00 0.167826336492D-03 0.788154429394D-06  6 -1 2 25 -1 2 21 2 0.10538411D+00 0.25037175D+00 0.75616294D+06 0.75616294D+06 0.75616294D+06 0.10560410D+01  1  2  1  1  6  1       -1 0.225732028110D-02 0.100000000000D+01
  </mgrwgt>
  </event>
  <event>
  7     66 0.16841828E-05 0.21774424E+02 0.75467711E-02 0.94254453E-01
       21 -1    0    0  503  501 0.00000000E+00 0.00000000E+00 0.73013895E+03 0.73013934E+03 0.75000000E+00 0.0000E+00 0.9000E+01
        2 -1    0    0  501    0 0.00000000E+00 0.00000000E+00 -.16888315E+04 0.16888315E+04 0.32000000E+00 0.0000E+00 0.9000E+01
       24  2    1    2    0    0 0.47077136E+03 0.35589317E+02 -.11098082E+04 0.12090785E+04 0.85465120E+02 0.0000E+00 0.0000E+00
       25  1    1    2    0    0 -.50420938E+03 -.44553670E+02 -.40034057E+03 0.65735051E+03 0.12500000E+03 0.0000E+00 0.9000E+01
       -1  1    3    3    0  502 0.75457080E+02 0.32307426E+02 -.14888839E+03 0.17001586E+03 0.32000000E+00 0.0000E+00 0.9000E+01
        2  1    3    3  502    0 0.39531428E+03 0.32818910E+01 -.96091981E+03 0.10390626E+04 0.32000000E+00 0.0000E+00 0.9000E+01
        1  1    1    2  503    0 0.33438020E+02 0.89643536E+01 0.55145621E+03 0.55254187E+03 0.32000000E+00 0.0000E+00 0.9000E+01
#aMCatNLO 2  0  0  1  2 0.17172459D+01 0.00000000D+00  -5  6  0 0.00000000D+00 0.00000000D+00 0.00000000D+00 0.00000000D+00 0.00000000D+00
  <mgrwgt>
 0.1385582818D-02    1    2    0
 0.548135354053152D+03 0.000000000000000D+00 0.000000000000000D+00 0.548135354053152D+03
 0.548135354053152D+03 0.000000000000000D+00 0.000000000000000D+00 -.548135354053152D+03
 0.551930362938189D+03 -.487143080627275D+03 -.399783894710413D+02 0.223820179843891D+03
 0.869182992866975D+02 0.780633239936627D+02 0.330077375138027D+02 -.192716751262637D+02
 0.457422045881417D+03 0.409079756633612D+03 0.697065195723856D+01 -.204548504717627D+03
 0.000000000000000D+00 0.000000000000000D+00 0.000000000000000D+00 0.000000000000000D+00
 0.224775069779648D+04 0.000000000000000D+00 0.000000000000000D+00 0.224775069779648D+04
 0.548584902446013D+03 0.000000000000000D+00 0.000000000000000D+00 -.548584902446013D+03
 0.567391046730557D+03 -.504209378603970D+03 -.445536702466159D+02 0.223820179843891D+03
 0.843106608884121D+02 0.754525953581290D+02 0.323078307998387D+02 -.192716751262637D+02
 0.445115472338707D+03 0.395318763510421D+03 0.328148589583944D+01 -.204548504717627D+03
 0.169951842028482D+04 0.334380197354199D+02 0.896435355093775D+01 0.169916579535047D+04
0.158800988372D-03 0.000000000000D+00 0.000000000000D+00 0.644219449553D-05 0.127524899826D-07  6 21 2 25 -1 2 1 2 0.11232910D+00 0.25982026D+00 0.26698393D+06 0.26698393D+06 0.26698393D+06 0.10883181D+01  1  2  1  5  6  1       -1 0.138558281822D-02 0.100000000000D+01
  </mgrwgt>
  </event>
  <event>
  6     66 0.16841828E-05 0.45172703E+02 0.75467711E-02 0.92842240E-01
       -1 -1    0    0    0  501 0.00000000E+00 0.00000000E+00 0.18233218E+03 0.18233246E+03 0.32000000E+00 0.0000E+00 0.9000E+01
        2 -1    0    0  501    0 -.00000000E+00 -.00000000E+00 -.24446607E+04 0.24446607E+04 0.32000000E+00 0.0000E+00 0.9000E+01
       25  1    1    2    0    0 0.45734042E+03 -.32820262E+03 -.15250342E+04 0.16304084E+04 0.12500000E+03 0.0000E+00 0.9000E+01
       -1  1    1    2    0  502 -.15104984E+03 0.61739602E+02 -.17217107E+03 0.23721470E+03 0.32000000E+00 0.0000E+00 0.9000E+01
        2  1    1    2  503    0 -.32410585E+03 0.24487735E+03 -.59369754E+03 0.71936527E+03 0.32000000E+00 0.0000E+00 0.9000E+01
       21  1    1    2  502  503 0.17815273E+02 0.21585669E+02 0.28574355E+02 0.40004766E+02 0.75000000E+00 0.0000E+00 0.9000E+01
#aMCatNLO 2  0  0  5  2 0.40109265D+02 0.00000000D+00  -5  6  0 0.00000000D+00 0.00000000D+00 0.00000000D+00 0.00000000D+00 0.00000000D+00
  <mgrwgt>
 0.8183234437D-03    1    2    0
 0.667638161949211D+03 0.000000000000000D+00 0.000000000000000D+00 0.667638161949211D+03
 0.667638161949211D+03 -.000000000000000D+00 -.000000000000000D+00 -.667638161949211D+03
 0.670208457843845D+03 0.490232953331005D+03 -.356818077493219D+03 -.256723368643817D+03
 0.163213363247812D+03 -.142468061326139D+03 0.542646433717769D+02 0.582820892244595D+02
 0.501854502806765D+03 -.347764892004866D+03 0.302553434121442D+03 0.198441279419357D+03
 0.000000000000000D+00 0.000000000000000D+00 0.000000000000000D+00 0.000000000000000D+00
 0.667638161949211D+03 0.000000000000000D+00 0.000000000000000D+00 0.667638161949211D+03
 0.667638161949211D+03 -.000000000000000D+00 -.000000000000000D+00 -.667638161949211D+03
 0.623752276897333D+03 0.457307990827412D+03 -.328173551542501D+03 -.237935757144621D+03
 0.175014602570072D+03 -.151074306317373D+03 0.617520264770043D+02 0.631929767416304D+02
 0.409228807827502D+03 -.324027894039797D+03 0.244776055750859D+03 0.505848156179786D+02
 0.127280636603515D+03 0.177942095297584D+02 0.216454693146380D+02 0.124157964785012D+03
0.119640782406D-03 0.000000000000D+00 0.000000000000D+00 0.893478085138D-06 0.117760425197D-07  6 -1 2 25 -1 2 21 2 0.28051128D-01 0.37610167D+00 0.34451417D+06 0.34451417D+06 0.34451417D+06 0.10801342D+01  1  2  1  4  6  5        2 0.818323443655D-03 0.100000000000D+01
  </mgrwgt>
  </event>
  <event>
  7     66 0.16841828E-05 0.38018726E+02 0.75467711E-02 0.93627764E-01
       21 -1    0    0  503  501 0.00000000E+00 0.00000000E+00 0.28391706E+03 0.28391805E+03 0.75000000E+00 0.0000E+00 0.9000E+01
        2 -1    0    0  501    0 0.00000000E+00 0.00000000E+00 -.17749004E+04 0.17749005E+04 0.32000000E+00 0.0000E+00 0.9000E+01
       24  2    1    2    0    0 0.18692668E+03 -.49741887E+03 -.78565289E+03 0.95274739E+03 0.90055594E+02 0.0000E+00 0.0000E+00
       25  1    1    2    0    0 -.14045012E+03 0.46078208E+03 -.83017127E+03 0.96791307E+03 0.12500000E+03 0.0000E+00 0.9000E+01
       -1  1    3    3    0  502 0.17989592E+03 -.40100970E+03 -.60413453E+03 0.74709434E+03 0.32000000E+00 0.0000E+00 0.9000E+01
        2  1    3    3  502    0 0.70307621E+01 -.96409174E+02 -.18151836E+03 0.20565305E+03 0.32000000E+00 0.0000E+00 0.9000E+01
        1  1    1    2  503    0 -.46476560E+02 0.36636790E+02 0.12484078E+03 0.13815806E+03 0.32000000E+00 0.0000E+00 0.9000E+01
#aMCatNLO 2  0  0  1  2 0.16757323D+02 0.00000000D+00  -5  6  0 0.00000000D+00 0.00000000D+00 0.00000000D+00 0.00000000D+00 0.00000000D+00
  <mgrwgt>
 0.3544694729D-03    1    2    0
 0.518301682556365D+03 0.000000000000000D+00 0.000000000000000D+00 0.518301682556365D+03
 0.518301682556365D+03 0.000000000000000D+00 0.000000000000000D+00 -.518301682556365D+03
 0.521926499291605D+03 -.163307861523029D+03 0.478800503257842D+03 -.293750082144994D+02
 0.420306367035201D+03 0.160586782250485D+03 -.385790721286331D+03 0.451092773843311D+02
 0.943704987859248D+02 0.272107927254416D+01 -.930097819715112D+02 -.157342691698316D+02
 0.000000000000000D+00 -.000000000000000D+00 0.000000000000000D+00 0.000000000000000D+00
 0.967040728725906D+03 0.000000000000000D+00 0.000000000000000D+00 0.967040728725906D+03
 0.521100539484275D+03 0.000000000000000D+00 0.000000000000000D+00 -.521100539484275D+03
 0.498532099251651D+03 -.140450120325910D+03 0.460782081440992D+03 -.293750082144994D+02
 0.441825796004585D+03 0.179898093741816D+03 -.401013544630365D+03 0.451092773843311D+02
 0.979334230300608D+02 0.702858697774235D+01 -.964053270580648D+02 -.157342691698316D+02
 0.449849949923884D+03 -.464765603936482D+02 0.366367902474369D+02 0.445940189241631D+03
0.493713791753D-05 0.000000000000D+00 0.000000000000D+00 0.218973261414D-05 0.317188099893D-09  6 21 2 25 -1 2 1 2 0.43679621D-01 0.27306165D+00 0.29867567D+06 0.29867567D+06 0.29867567D+06 0.10846940D+01  1  2  1  5  6  1       -1 0.354469472870D-03 0.100000000000D+01
  </mgrwgt>
  </event>
  <event>
  7     66 0.16841828E-05 0.71429895E+02 0.75467711E-02 0.93409964E-01
       -1 -1    0    0    0  501 0.00000000E+00 0.00000000E+00 0.24704135E+03 0.24704155E+03 0.32000000E+00 0.0000E+00 0.9000E+01
        2 -1    0    0  503    0 0.00000000E+00 0.00000000E+00 -.19883446E+04 0.19883446E+04 0.32000000E+00 0.0000E+00 0.9000E+01
       24  2    1    2    0    0 -.54218443E+03 -.85975952E+02 -.47174727E+03 0.72826105E+03 0.80391816E+02 0.0000E+00 0.0000E+00
       25  1    1    2    0    0 0.53145793E+03 0.85575084E+02 -.52421548E+03 0.76170696E+03 0.12500000E+03 0.0000E+00 0.9000E+01
       -1  1    3    3    0  502 -.28746322E+03 -.19490152E+02 -.20596232E+03 0.35416881E+03 0.32000000E+00 0.0000E+00 0.9000E+01
        2  1    3    3  502    0 -.25472122E+03 -.66485800E+02 -.26578496E+03 0.37409224E+03 0.32000000E+00 0.0000E+00 0.9000E+01
       21  1    1    2  503  501 0.10726501E+02 0.40086816E+00 -.74534050E+03 0.74541817E+03 0.75000000E+00 0.0000E+00 0.9000E+01
#aMCatNLO 2  0  0  2  2 0.33770025D+02 0.00000000D+00  -5  6  0 0.00000000D+00 0.00000000D+00 0.00000000D+00 0.00000000D+00 0.00000000D+00
  <mgrwgt>
 0.5130242153D-02    1    2    0
 0.554063998758552D+03 0.000000000000000D+00 0.000000000000000D+00 0.554063998758552D+03
 0.554063998758552D+03 0.000000000000000D+00 0.000000000000000D+00 -.554063998758552D+03
 0.558198068076268D+03 0.536835899793511D+03 0.857760680488794D+02 -.202426788504845D+02
 0.288304763387678D+03 -.284659620326781D+03 -.193846124542466D+02 0.413856732147281D+02
 0.261625166053159D+03 -.252176279466730D+03 -.663914555946328D+02 -.211429943642437D+02
 0.000000000000000D+00 0.000000000000000D+00 0.000000000000000D+00 -.000000000000000D+00
 0.554176681225770D+03 0.000000000000000D+00 0.000000000000000D+00 0.554176681225770D+03
 0.886365046153739D+03 0.000000000000000D+00 0.000000000000000D+00 -.886365046153739D+03
 0.552996740191736D+03 0.531457932125365D+03 0.855750839711772D+02 -.202426788504845D+02
 0.291080760843814D+03 -.287463734055107D+03 -.194894070990337D+02 0.413856732147281D+02
 0.264102483176793D+03 -.254720699471910D+03 -.664865450298217D+02 -.211429943642437D+02
 0.332361743167166D+03 0.107265014016529D+02 0.400868157678283D+00 -.332188364927969D+03
0.691685034159D-03 0.000000000000D+00 0.000000000000D+00 0.355227922978D-03 0.214664762036D-04  6 -1 2 25 -1 2 21 2 0.38006350D-01 0.30589895D+00 0.31066052D+06 0.31066052D+06 0.31066052D+06 0.10834317D+01  1  2  1  2  6  2        2 0.513024215325D-02 0.100000000000D+01
  </mgrwgt>
  </event>
  <event>
  7     66 0.16841828E-05 0.50241877E+02 0.75467711E-02 0.94832699E-01
       -1 -1    0    0    0  501 0.00000000E+00 0.00000000E+00 0.18010831E+04 0.18010831E+04 0.32000000E+00 0.0000E+00 0.9000E+01
        2 -1    0    0  503    0 0.00000000E+00 0.00000000E+00 -.22422551E+03 0.22422574E+03 0.32000000E+00 0.0000E+00 0.9000E+01
       24  2    1    2    0    0 0.99239042E+02 0.46828376E+03 0.31900774E+03 0.58146627E+03 0.84847065E+02 0.0000E+00 0.0000E+00
       25  1    1    2    0    0 -.10151718E+03 -.45687642E+03 0.13067089E+04 0.13936122E+04 0.12500000E+03 0.0000E+00 0.9000E+01
       -1  1    3    3    0  502 0.10724422E+03 0.32201884E+03 0.23138245E+03 0.41077414E+03 0.32000000E+00 0.0000E+00 0.9000E+01
        2  1    3    3  502    0 -.80051830E+01 0.14626492E+03 0.87625284E+02 0.17069213E+03 0.32000000E+00 0.0000E+00 0.9000E+01
       21  1    1    2  503  501 0.22781407E+01 -.11407341E+02 -.48859087E+02 0.50230372E+02 0.75000000E+00 0.0000E+00 0.9000E+01
#aMCatNLO 2  0  0  2  2 0.33770025D+02 0.00000000D+00  -5  6  0 0.00000000D+00 0.00000000D+00 0.00000000D+00 0.00000000D+00 0.00000000D+00
  <mgrwgt>
 0.7854419445D-02    1    2    0
 0.560768461332517D+03 0.000000000000000D+00 0.000000000000000D+00 0.560768461332517D+03
 0.560768461332517D+03 0.000000000000000D+00 0.000000000000000D+00 -.560768461332517D+03
 0.564524903069724D+03 -.100375053078644D+03 -.462595404142404D+03 0.281058191433139D+03
 0.384938911440175D+03 0.108030838723856D+03 0.318090720404877D+03 -.187951049525331D+03
 0.172073108155135D+03 -.765578564521224D+01 0.144504683737527D+03 -.931071419078079D+02
 0.000000000000000D+00 0.000000000000000D+00 -.000000000000000D+00 -.000000000000000D+00
 0.561011309300480D+03 0.000000000000000D+00 0.000000000000000D+00 0.561011309300480D+03
 0.719856746614005D+03 0.000000000000000D+00 0.000000000000000D+00 -.719856746614005D+03
 0.560054020227723D+03 -.101517182261907D+03 -.456876416886635D+03 0.281058191433139D+03
 0.387975531477768D+03 0.107245862122273D+03 0.322021336351232D+03 -.187951049525331D+03
 0.173567696090816D+03 -.800682054483360D+01 0.146262421957234D+03 -.931071419078079D+02
 0.159270808118178D+03 0.227814068446852D+01 -.114073414218312D+02 -.158845437313525D+03
0.981739784940D-02 0.000000000000D+00 0.000000000000D+00 0.932373299273D-05 0.452865609980D-06  6 -1 2 25 -1 2 21 2 0.27708929D+00 0.34496198D-01 0.24105576D+06 0.24105576D+06 0.24105576D+06 0.10916514D+01  1  2  1  2  6  2        2 0.785441944498D-02 0.100000000000D+01
  </mgrwgt>
  </event>
  <event>
  7     66 0.16841828E-05 0.72098701E+02 0.75467711E-02 0.94667598E-01
       -1 -1    0    0    0  501 0.00000000E+00 0.00000000E+00 0.29087604E+03 0.29087622E+03 0.32000000E+00 0.0000E+00 0.9000E+01
        2 -1    0    0  503    0 0.00000000E+00 0.00000000E+00 -.30657253E+04 0.30657253E+04 0.32000000E+00 0.0000E+00 0.9000E+01
       24  2    1    2    0    0 -.17677064E+03 0.44985699E+03 0.43252469E+02 0.49294869E+03 0.86651385E+02 0.0000E+00 0.0000E+00
       25  1    1    2    0    0 0.15961372E+03 -.44519327E+03 -.27548657E+04 0.27979606E+04 0.12500000E+03 0.0000E+00 0.9000E+01
       -1  1    3    3    0  502 -.13024687E+03 0.22722288E+03 0.43569971E+02 0.26550505E+03 0.32000000E+00 0.0000E+00 0.9000E+01
        2  1    3    3  502    0 -.46523776E+02 0.22263411E+03 -.31750257E+00 0.22744364E+03 0.32000000E+00 0.0000E+00 0.9000E+01
       21  1    1    2  503  501 0.17156921E+02 -.46637170E+01 -.63236020E+02 0.65692214E+02 0.75000000E+00 0.0000E+00 0.9000E+01
#aMCatNLO 2  0  0  2  2 0.33770025D+02 0.00000000D+00  -5  6  0 0.00000000D+00 0.00000000D+00 0.00000000D+00 0.00000000D+00 0.00000000D+00
  <mgrwgt>
 0.1096414453D-01    1    2    0
 0.932325270378184D+03 0.000000000000000D+00 0.000000000000000D+00 0.932325270378184D+03
 0.932325270378184D+03 0.000000000000000D+00 0.000000000000000D+00 -.932325270378184D+03
 0.934501693667674D+03 0.168199940024539D+03 -.447527241574912D+03 -.793156077762658D+03
 0.530183478352111D+03 -.125361808203329D+03 0.225894743766668D+03 0.462980023867258D+03
 0.399965368736583D+03 -.428381318212103D+02 0.221632497808244D+03 0.330176053895400D+03
 0.000000000000000D+00 0.000000000000000D+00 -.000000000000000D+00 -.000000000000000D+00
 0.936315005826565D+03 0.000000000000000D+00 0.000000000000000D+00 0.936315005826565D+03
 0.952388034649778D+03 0.000000000000000D+00 0.000000000000000D+00 -.952388034649778D+03
 0.931877221595988D+03 0.159613723144391D+03 -.445193274681460D+03 -.793156077762658D+03
 0.531926041445613D+03 -.130248009291903D+03 0.227222945899770D+03 0.462980023867258D+03
 0.400932039712912D+03 -.465226348936877D+02 0.222634045790321D+03 0.330176053895400D+03
 0.239677377218296D+02 0.171569210412000D+02 -.466371700863091D+01 -.160730288232135D+02
0.819204637948D-02 0.000000000000D+00 0.000000000000D+00 0.224732830030D-05 0.451314219535D-07  6 -1 2 25 -1 2 21 2 0.44749895D-01 0.47164711D+00 0.24815843D+06 0.24815843D+06 0.24815843D+06 0.10907007D+01  1  2  1  2  6  2        2 0.109641445291D-01 0.100000000000D+01
  </mgrwgt>
  </event>
  <event>
  7     66 0.16841828E-05 0.14004225E+02 0.75467711E-02 0.94971314E-01
       -1 -1    0    0    0  501 0.00000000E+00 0.00000000E+00 0.68267553E+03 0.68267560E+03 0.32000000E+00 0.0000E+00 0.9000E+01
        2 -1    0    0  503    0 0.00000000E+00 0.00000000E+00 -.65286765E+03 0.65286773E+03 0.32000000E+00 0.0000E+00 0.9000E+01
       24  2    1    2    0    0 0.36054720E+03 0.29181639E+03 -.43384291E+03 0.64042568E+03 0.82306107E+02 0.0000E+00 0.0000E+00
       25  1    1    2    0    0 -.35841576E+03 -.30846786E+03 0.46883811E+03 0.67753114E+03 0.12500000E+03 0.0000E+00 0.9000E+01
       -1  1    3    3    0  502 0.33795426E+03 0.26768861E+03 -.36831780E+03 0.56703472E+03 0.32000000E+00 0.0000E+00 0.9000E+01
        2  1    3    3  502    0 0.22592943E+02 0.24127784E+02 -.65525105E+02 0.73390959E+02 0.32000000E+00 0.0000E+00 0.9000E+01
       21  1    1    2  503  501 -.21314388E+01 0.16651468E+02 -.51873250E+01 0.17586508E+02 0.75000000E+00 0.0000E+00 0.9000E+01
#aMCatNLO 2  0  0  2  1 0.19382576D+01 0.00000000D+00  -5  6  0 0.00000000D+00 0.00000000D+00 0.00000000D+00 0.00000000D+00 0.00000000D+00
  <mgrwgt>
 0.3608742981D-03    1    2    0
 0.658692591405629D+03 0.000000000000000D+00 0.000000000000000D+00 0.658692591405629D+03
 0.658692591405629D+03 0.000000000000000D+00 0.000000000000000D+00 -.658692591405629D+03
 0.662051785417325D+03 -.359489513718626D+03 -.300079375218225D+03 0.451006900910899D+03
 0.579909184620094D+03 0.337023142343165D+03 0.275003700756112D+03 -.383514052548696D+03
 0.754242127738388D+02 0.224663713754618D+02 0.250756744621128D+02 -.674928483622027D+02
 0.000000000000000D+00 -.000000000000000D+00 0.000000000000000D+00 -.000000000000000D+00
 0.664775262059865D+03 0.000000000000000D+00 0.000000000000000D+00 0.664775262059865D+03
 0.670431481792201D+03 0.000000000000000D+00 0.000000000000000D+00 -.670431481792201D+03
 0.665316845930345D+03 -.358415761614581D+03 -.308467863213802D+03 0.451006900910899D+03
 0.577025558160272D+03 0.337959024874186D+03 0.267692293079085D+03 -.383514052548696D+03
 0.751497341481751D+02 0.225881755890794D+02 0.241241017668023D+02 -.674928483622027D+02
 0.177146056132732D+02 -.213143884868457D+01 0.166514683679148D+02 -.565621973233566D+01
0.548106350453D-04 0.000000000000D+00 0.000000000000D+00 0.167393329537D-04 0.378984604057D-06  6 -1 2 25 -1 2 21 2 0.10502577D+00 0.10043999D+00 0.23526838D+06 0.23526838D+06 0.23526838D+06 0.10924490D+01  1  2  1  2  6  2        2 0.360874298147D-03 0.100000000000D+01
  </mgrwgt>
  </event>
  <event>
  7     66 0.16841828E-05 0.43772034E+02 0.75467711E-02 0.93477666E-01
       -1 -1    0    0    0  501 0.00000000E+00 0.00000000E+00 0.22047692E+03 0.22047715E+03 0.32000000E+00 0.0000E+00 0.9000E+01
        2 -1    0    0  503    0 0.00000000E+00 0.00000000E+00 -.14930669E+04 0.14930670E+04 0.32000000E+00 0.0000E+00 0.9000E+01
       24  2    1    2    0    0 0.43139387E+03 0.32917969E+03 -.51308020E+03 0.75114959E+03 0.80712270E+02 0.0000E+00 0.0000E+00
       25  1    1    2    0    0 -.40548949E+03 -.32270422E+03 -.76753558E+03 0.93450287E+03 0.12500000E+03 0.0000E+00 0.9000E+01
       -1  1    3    3    0  502 0.26746155E+03 0.24991379E+03 -.32783613E+03 0.49139517E+03 0.32000000E+00 0.0000E+00 0.9000E+01
        2  1    3    3  502    0 0.16393233E+03 0.79265901E+02 -.18524407E+03 0.25975442E+03 0.32000000E+00 0.0000E+00 0.9000E+01
       21  1    1    2  503  501 -.25904383E+02 -.64754712E+01 0.80257696E+01 0.27891652E+02 0.75000000E+00 0.0000E+00 0.9000E+01
#aMCatNLO 2  0  0  2  1 0.19382576D+01 0.00000000D+00  -5  6  0 0.00000000D+00 0.00000000D+00 0.00000000D+00 0.00000000D+00 0.00000000D+00
  <mgrwgt>
 0.5097244180D-03    1    2    0
 0.547890150833147D+03 0.000000000000000D+00 0.000000000000000D+00 0.547890150833147D+03
 0.547890150833147D+03 0.000000000000000D+00 0.000000000000000D+00 -.547890150833147D+03
 0.552047247580600D+03 -.418400299216537D+03 -.325931614058245D+03 -.885490606060651D+02
 0.364987241328408D+03 0.258745238912216D+03 0.247737202780339D+03 0.699490245203947D+02
 0.178745812757286D+03 0.159655060304320D+03 0.781944112779055D+02 0.186000360856704D+02
 0.000000000000000D+00 -.000000000000000D+00 -.000000000000000D+00 0.000000000000000D+00
 0.596649552258828D+03 0.000000000000000D+00 0.000000000000000D+00 0.596649552258828D+03
 0.551720568295267D+03 0.000000000000000D+00 0.000000000000000D+00 -.551720568295267D+03
 0.540394004206470D+03 -.405489491624545D+03 -.322704223446415D+03 -.885490606060651D+02
 0.372676348985426D+03 0.267463174697395D+03 0.249916476532747D+03 0.699490245203947D+02
 0.183035224897601D+03 0.163930700170494D+03 0.792632181565868D+02 0.186000360856704D+02
 0.522645424645982D+02 -.259043832433437D+02 -.647547124291825D+01 0.449289839635607D+02
0.302385277513D-04 0.000000000000D+00 0.000000000000D+00 0.250938329169D-03 0.221371046751D-05  6 -1 2 25 -1 2 21 2 0.33919382D-01 0.22970151D+00 0.30687832D+06 0.30687832D+06 0.30687832D+06 0.10838242D+01  1  2  1  2  6  2        2 0.509724417983D-03 0.100000000000D+01
  </mgrwgt>
  </event>
  <event>
  7     66 0.16841828E-05 0.51519897E+02 0.75467711E-02 0.94795012E-01
       -1 -1    0    0    0  503 0.00000000E+00 0.00000000E+00 0.25643079E+03 0.25643099E+03 0.32000000E+00 0.0000E+00 0.9000E+01
        2 -1    0    0  501    0 0.00000000E+00 0.00000000E+00 -.19933143E+04 0.19933143E+04 0.32000000E+00 0.0000E+00 0.9000E+01
       24  2    1    2    0    0 -.36886624E+03 0.26261183E+03 -.10400997E+04 0.11372369E+04 0.80455213E+02 0.0000E+00 0.0000E+00
       25  1    1    2    0    0 0.39007172E+03 -.28695176E+03 -.83349971E+03 0.97203087E+03 0.12500000E+03 0.0000E+00 0.9000E+01
       -1  1    3    3    0  502 -.21533022E+03 0.15281866E+03 -.50575331E+03 0.57053235E+03 0.32000000E+00 0.0000E+00 0.9000E+01
        2  1    3    3  502    0 -.15353602E+03 0.10979317E+03 -.53434643E+03 0.56670456E+03 0.32000000E+00 0.0000E+00 0.9000E+01
       21  1    1    2  501  503 -.21205484E+02 0.24339929E+02 0.13671598E+03 0.14047750E+03 0.75000000E+00 0.0000E+00 0.9000E+01
#aMCatNLO 2  0  0  1  2 0.43353894D+02 0.00000000D+00  -5  6  0 0.00000000D+00 0.00000000D+00 0.00000000D+00 0.00000000D+00 0.00000000D+00
  <mgrwgt>
 0.4909088318D-02    1    2    0
 0.484147082171687D+03 0.000000000000000D+00 0.000000000000000D+00 0.484147082171687D+03
 0.484147082171687D+03 0.000000000000000D+00 0.000000000000000D+00 -.484147082171687D+03
 0.488872897465709D+03 0.379199052760444D+03 -.274471965312117D+03 0.651531159638875D+02
 0.272761296220714D+03 -.221207689793952D+03 0.159564453957659D+03 0.225116086070951D+01
 0.206659970656950D+03 -.157991362966492D+03 0.114907511354458D+03 -.674042768245970D+02
 0.000000000000000D+00 -.000000000000000D+00 0.000000000000000D+00 0.000000000000000D+00
 0.105418648289959D+04 0.000000000000000D+00 0.000000000000000D+00 0.105418648289959D+04
 0.484873311948406D+03 0.000000000000000D+00 0.000000000000000D+00 -.484873311948406D+03
 0.504348281382287D+03 0.390071723313617D+03 -.286951757416831D+03 0.651531159638875D+02
 0.264057466125276D+03 -.215331200574783D+03 0.152819343508284D+03 0.225116086070951D+01
 0.200426381102173D+03 -.153535038550913D+03 0.109792484463356D+03 -.674042768245970D+02
 0.570227666238262D+03 -.212054841879208D+02 0.243399294451911D+02 0.569313170951186D+03
0.692061332400D-03 0.000000000000D+00 0.000000000000D+00 0.377137897420D-03 0.304659515060D-05  6 -1 2 25 -1 2 21 2 0.39450889D-01 0.30666359D+00 0.24265672D+06 0.24265672D+06 0.24265672D+06 0.10914345D+01  1  2  1  1  6  1       -1 0.490908831783D-02 0.100000000000D+01
  </mgrwgt>
  </event>
  <event>
  6     66 -.16841828E-05 0.14226717E+02 0.75467711E-02 0.91053120E-01
       -1 -1    0    0    0  501 0.00000000E+00 0.00000000E+00 0.15914674E+04 0.15914674E+04 0.32000000E+00 0.0000E+00 0.9000E+01
        2 -1    0    0  501    0 0.00000000E+00 0.00000000E+00 -.35348191E+03 0.35348206E+03 0.32000000E+00 0.0000E+00 0.9000E+01
       24  2    1    2    0    0 0.37804383E+03 0.57288589E+03 0.24892290E+03 0.73458376E+03 0.80841248E+02 0.0000E+00 0.0000E+00
       25  1    1    2    0    0 -.37804383E+03 -.57288589E+03 0.98906255E+03 0.12103657E+04 0.12500000E+03 0.0000E+00 0.9000E+01
       -1  1    3    3    0  502 -.27083135E+00 0.20299726E+02 0.14918505E+02 0.25195563E+02 0.32000000E+00 0.0000E+00 0.9000E+01
        2  1    3    3  502    0 0.37831466E+03 0.55258617E+03 0.23400440E+03 0.70938820E+03 0.32000000E+00 0.0000E+00 0.9000E+01
#aMCatNLO 1  0  0  4  2 0.24313349D+00 0.00000000D+00  -5  6  0 0.00000000D+00 0.00000000D+00 0.00000000D+00 0.00000000D+00 0.00000000D+00
  <mgrwgt>
 -.1186919979D-01    6    2    0
 0.750036731825311D+03 0.000000000000000D+00 0.000000000000000D+00 0.750036731825311D+03
 0.750036731825311D+03 -.000000000000000D+00 -.000000000000000D+00 -.750036731825311D+03
 0.753066481008768D+03 -.378043831215902D+03 -.572885892126798D+03 0.283493811397384D+03
 0.203447389212020D+02 -.276763576831093D+00 0.202913850573152D+02 -.144620059126504D+01
 0.726662243720652D+03 0.378320594792733D+03 0.552594507069483D+03 -.282047610806119D+03
 0.000000000000000D+00 0.000000000000000D+00 0.000000000000000D+00 -.000000000000000D+00
 0.750036731825311D+03 0.000000000000000D+00 0.000000000000000D+00 0.750036731825311D+03
 0.750036731825311D+03 -.000000000000000D+00 -.000000000000000D+00 -.750036731825311D+03
 0.753028729690999D+03 -.378044490755215D+03 -.572837536897723D+03 0.283490365040189D+03
 0.199876836119221D+02 -.122408953468077D+00 0.199494511098059D+02 -.122959856696133D+01
 0.726698688279278D+03 0.378319958346469D+03 0.552641169193030D+03 -.282050936492880D+03
 0.358362068422659D+00 -.153058637785963D+00 0.246916594887186D+00 -.209829980347398D+00
0.914826955170D-04 0.000000000000D+00 0.000000000000D+00 0.336524344022D-04 0.000000000000D+00  6 -1 2 25 -1 2 21 0 0.24484115D+00 0.54381846D-01 0.48139516D+06 0.48139516D+06 0.48139516D+06 0.10696762D+01  1  2  2  3  6  4       -1 0.661935829628D-04 0.100000000000D+01
0.442884382595D-04 0.000000000000D+00 -.351317638732D-06 0.336524344022D-04 0.000000000000D+00  6 -1 2 25 -1 2 21 2 0.24484115D+00 0.54381846D-01 0.48139516D+06 0.48139516D+06 0.48139516D+06 0.10696762D+01  1  2  3  3  6  4       -1 0.366667145043D-04 0.100000000000D+01
-.293048028396D-04 0.000000000000D+00 0.000000000000D+00 0.336524344022D-04 0.000000000000D+00  6 -1 2 25 -1 2 21 2 0.24484115D+00 0.54381846D-01 0.48139516D+06 0.48139516D+06 0.48139516D+06 0.10696762D+01  1  2 15  3  6  4       -1 -.242616556725D-04 0.100000000000D+01
-.151957013623D-01 0.000000000000D+00 0.000000000000D+00 0.336524344022D-04 0.000000000000D+00  6 -1 2 25 -1 2 21 2 0.24484115D+00 0.54381846D-01 0.48139516D+06 0.48139516D+06 0.48139516D+06 0.10696762D+01  1  2  4  3  6  4       -1 -.125806297408D-01 0.100000000000D+01
-.109176077354D-01 0.000000000000D+00 0.000000000000D+00 0.336524344022D-04 0.000000000000D+00  6 -1 2 25 -1 2 21 2 0.24484115D+00 0.54381846D-01 0.48139516D+06 0.48139516D+06 0.48139516D+06 0.10696762D+01  1  2  5  3  6  4       -1 -.903876545738D-02 0.100000000000D+01
0.116819824694D-01 0.000000000000D+00 -.000000000000D+00 0.336524344022D-04 0.000000000000D+00  6 -1 2 25 -1 2 21 2 0.24484115D+00 0.54381846D-01 0.48139516D+06 0.48139516D+06 0.48139516D+06 0.10696762D+01  1  2  6  3  6  4       -1 0.967159676162D-02 0.100000000000D+01
  </mgrwgt>
  </event>
  <event>
  7     66 0.16841828E-05 0.47811209E+02 0.75467711E-02 0.94900416E-01
       -1 -1    0    0    0  503 0.00000000E+00 0.00000000E+00 0.15940296E+03 0.15940329E+03 0.32000000E+00 0.0000E+00 0.9000E+01
        2 -1    0    0  501    0 0.00000000E+00 0.00000000E+00 -.18465221E+04 0.18465222E+04 0.32000000E+00 0.0000E+00 0.9000E+01
       24  2    1    2    0    0 0.27186927E+03 -.39336235E+03 -.46260785E+03 0.67020533E+03 0.80760909E+02 0.0000E+00 0.0000E+00
       25  1    1    2    0    0 -.25794036E+03 0.38901027E+03 -.12288814E+04 0.13204684E+04 0.12500000E+03 0.0000E+00 0.9000E+01
       -1  1    3    3    0  502 0.18973364E+03 -.26424037E+03 -.26081949E+03 0.41695172E+03 0.32000000E+00 0.0000E+00 0.9000E+01
        2  1    3    3  502    0 0.82135638E+02 -.12912198E+03 -.20178836E+03 0.25325361E+03 0.32000000E+00 0.0000E+00 0.9000E+01
       21  1    1    2  501  503 -.13928914E+02 0.43520724E+01 0.43700913E+01 0.15251734E+02 0.75000000E+00 0.0000E+00 0.9000E+01
#aMCatNLO 2  0  0  1  2 0.44491076D+02 0.00000000D+00  -5  6  0 0.00000000D+00 0.00000000D+00 0.00000000D+00 0.00000000D+00 0.00000000D+00
  <mgrwgt>
 0.1863670632D-02    1    2    0
 0.524745878971312D+03 0.000000000000000D+00 0.000000000000000D+00 0.524745878971312D+03
 0.524745878971312D+03 0.000000000000000D+00 0.000000000000000D+00 -.524745878971312D+03
 0.529082585560282D+03 -.264928277734587D+03 0.391193641184416D+03 -.202691699624374D+03
 0.366893968017516D+03 0.184842380379686D+03 -.262713696407353D+03 0.177273776693551D+03
 0.153515204364825D+03 0.800858973549007D+02 -.128479944777063D+03 0.254179229308229D+02
 0.000000000000000D+00 -.000000000000000D+00 0.000000000000000D+00 0.000000000000000D+00
 0.559210919016681D+03 0.000000000000000D+00 0.000000000000000D+00 0.559210919016681D+03
 0.526343600444199D+03 0.000000000000000D+00 0.000000000000000D+00 -.526343600444199D+03
 0.523995370594527D+03 -.257940360137787D+03 0.389010274825573D+03 -.202691699624374D+03
 0.370472104410866D+03 0.189735326170347D+03 -.264242491371945D+03 0.177273776693551D+03
 0.155125734377130D+03 0.821339484363259D+02 -.129119855847912D+03 0.254179229308229D+02
 0.359613100783561D+02 -.139289144688869D+02 0.435207239428420D+01 0.328673185724820D+02
0.974936240672D-04 0.000000000000D+00 0.000000000000D+00 0.266669304971D-03 0.798326607236D-05  6 -1 2 25 -1 2 21 2 0.24523378D-01 0.28407825D+00 0.23820875D+06 0.23820875D+06 0.23820875D+06 0.10920411D+01  1  2  1  1  6  1       -1 0.186367063153D-02 0.100000000000D+01
  </mgrwgt>
  </event>
  <event>
  7     66 0.16841828E-05 0.55515950E+02 0.75467711E-02 0.95199765E-01
       -1 -1    0    0    0  501 0.00000000E+00 0.00000000E+00 0.10051672E+04 0.10051672E+04 0.32000000E+00 0.0000E+00 0.9000E+01
        2 -1    0    0  503    0 0.00000000E+00 0.00000000E+00 -.43297034E+03 0.43297046E+03 0.32000000E+00 0.0000E+00 0.9000E+01
       24  2    1    2    0    0 -.21763470E+03 -.39350921E+03 0.77289668E+03 0.89781621E+03 0.80562478E+02 0.0000E+00 0.0000E+00
       25  1    1    2    0    0 0.23210860E+03 0.40015496E+03 -.17513462E+03 0.51019166E+03 0.12500000E+03 0.0000E+00 0.9000E+01
       -1  1    3    3    0  502 -.16702858E+03 -.22729749E+03 0.44863419E+03 0.52993908E+03 0.32000000E+00 0.0000E+00 0.9000E+01
        2  1    3    3  502    0 -.50606115E+02 -.16621172E+03 0.32426250E+03 0.36787713E+03 0.32000000E+00 0.0000E+00 0.9000E+01
       21  1    1    2  503  501 -.14473899E+02 -.66457518E+01 -.25565251E+02 0.30129792E+02 0.75000000E+00 0.0000E+00 0.9000E+01
#aMCatNLO 2  0  0  2  1 0.19382576D+01 0.00000000D+00  -5  6  0 0.00000000D+00 0.00000000D+00 0.00000000D+00 0.00000000D+00 0.00000000D+00
  <mgrwgt>
 0.1354556566D-01    1    2    0
 0.637360379424189D+03 0.000000000000000D+00 0.000000000000000D+00 0.637360379424189D+03
 0.637360379424189D+03 0.000000000000000D+00 0.000000000000000D+00 -.637360379424189D+03
 0.640943394379211D+03 0.224804727307151D+03 0.396801356961123D+03 -.432660319988457D+03
 0.378053368917555D+03 -.171305222400961D+03 -.229261244550650D+03 0.247018526178013D+03
 0.255723995551612D+03 -.534995049061906D+02 -.167540112410473D+03 0.185641793810444D+03
 0.000000000000000D+00 -.000000000000000D+00 -.000000000000000D+00 -.000000000000000D+00
 0.638857582601664D+03 0.000000000000000D+00 0.000000000000000D+00 0.638857582601664D+03
 0.681221405320956D+03 0.000000000000000D+00 0.000000000000000D+00 -.681221405320956D+03
 0.645614702370677D+03 0.232108595794039D+03 0.400154958963629D+03 -.432660319988457D+03
 0.374942527248914D+03 -.167030418946177D+03 -.227298450525536D+03 0.247018526178013D+03
 0.254263021559081D+03 -.506042776230958D+02 -.166210756599682D+03 0.185641793810444D+03
 0.452587367439483D+02 -.144738992247664D+02 -.664575183841096D+01 -.423638227192917D+02
0.345886336693D-02 0.000000000000D+00 0.000000000000D+00 0.123457098924D-03 0.311554461777D-05  6 -1 2 25 -1 2 21 2 0.15464036D+00 0.66610511D-01 0.22606745D+06 0.22606745D+06 0.22606745D+06 0.10937621D+01  1  2  1  2  6  2        2 0.135455656560D-01 0.100000000000D+01
  </mgrwgt>
  </event>
  <event>
  7     66 0.16841828E-05 0.22532837E+03 0.75467711E-02 0.90145308E-01
       21 -1    0    0  503  501 0.00000000E+00 0.00000000E+00 0.24505775E+03 0.24505890E+03 0.75000000E+00 0.0000E+00 0.9000E+01
        2 -1    0    0  501    0 0.00000000E+00 0.00000000E+00 -.25731641E+04 0.25731641E+04 0.32000000E+00 0.0000E+00 0.9000E+01
       24  2    1    2    0    0 0.30498165E+03 0.56999503E+03 -.14174600E+04 0.15599536E+04 0.79712026E+02 0.0000E+00 0.0000E+00
       25  1    1    2    0    0 -.46753340E+03 -.36903270E+03 -.66934858E+03 0.90466852E+03 0.12500000E+03 0.0000E+00 0.9000E+01
       -1  1    3    3    0  502 0.19533714E+03 0.32852785E+03 -.75096111E+03 0.84263268E+03 0.32000000E+00 0.0000E+00 0.9000E+01
        2  1    3    3  502    0 0.10964451E+03 0.24146718E+03 -.66649892E+03 0.71732087E+03 0.32000000E+00 0.0000E+00 0.9000E+01
        1  1    1    2  503    0 0.16255175E+03 -.20096233E+03 -.24129775E+03 0.35360095E+03 0.32000000E+00 0.0000E+00 0.9000E+01
#aMCatNLO 2  0  0  1  2 0.78736870D+00 0.00000000D+00  -5  6  0 0.00000000D+00 0.00000000D+00 0.00000000D+00 0.00000000D+00 0.00000000D+00
  <mgrwgt>
 0.1642107586D-03    1    2    0
 0.642803013743763D+03 0.000000000000000D+00 0.000000000000000D+00 0.642803013743763D+03
 0.642803013743763D+03 0.000000000000000D+00 0.000000000000000D+00 -.642803013743763D+03
 0.646408703473204D+03 -.387317385045999D+03 -.468203560760313D+03 0.181631167089800D+03
 0.369780271515399D+03 0.242811982234032D+03 0.269837924089411D+03 -.704789699747341D+02
 0.269417052498923D+03 0.144505402811967D+03 0.198365636670901D+03 -.111152197115066D+03
 0.000000000000000D+00 0.000000000000000D+00 -.000000000000000D+00 0.000000000000000D+00
 0.850559462949875D+03 0.000000000000000D+00 0.000000000000000D+00 0.850559462949875D+03
 0.741365344029146D+03 0.000000000000000D+00 0.000000000000000D+00 -.741365344029146D+03
 0.635127935195539D+03 -.467533400450065D+03 -.369032698647348D+03 0.181631167089800D+03
 0.388659092917327D+03 0.195338518031257D+03 0.328529250862039D+03 -.704789699747341D+02
 0.287545038287805D+03 0.109643130204264D+03 0.241465778360909D+03 -.111152197115066D+03
 0.280592740578350D+03 0.162551752214545D+03 -.200962330575599D+03 0.109194118920728D+03
0.516485432024D-05 0.000000000000D+00 0.000000000000D+00 0.218628733053D-03 0.916293431150D-09  6 21 2 25 -1 2 1 2 0.37701278D-01 0.39587144D+00 0.57341669D+06 0.57341669D+06 0.57341669D+06 0.10643305D+01  1  2  1  5  6  1       -1 0.164210758566D-03 0.100000000000D+01
  </mgrwgt>
  </event>
  <event>
  7     66 0.16841828E-05 0.86045318E+02 0.75467711E-02 0.93415358E-01
       -1 -1    0    0    0  503 0.00000000E+00 0.00000000E+00 0.10496256E+04 0.10496257E+04 0.32000000E+00 0.0000E+00 0.9000E+01
        2 -1    0    0  501    0 0.00000000E+00 0.00000000E+00 -.74101651E+03 0.74101657E+03 0.32000000E+00 0.0000E+00 0.9000E+01
       24  2    1    2    0    0 0.16759094E+03 -.48497443E+03 -.29406536E+03 0.59678010E+03 0.79906942E+02 0.0000E+00 0.0000E+00
       25  1    1    2    0    0 -.52295616E+02 0.46123692E+03 -.91857227E+02 0.48942525E+03 0.12500000E+03 0.0000E+00 0.9000E+01
       -1  1    3    3    0  502 0.88482952E+02 -.17841888E+03 -.80095841E+02 0.21465781E+03 0.32000000E+00 0.0000E+00 0.9000E+01
        2  1    3    3  502    0 0.79107989E+02 -.30655555E+03 -.21396952E+03 0.38212228E+03 0.32000000E+00 0.0000E+00 0.9000E+01
       21  1    1    2  501  503 -.11529533E+03 0.23737512E+02 0.69453169E+03 0.70443688E+03 0.75000000E+00 0.0000E+00 0.9000E+01
#aMCatNLO 2  0  0  1  2 0.63277309D+01 0.00000000D+00  -5  6  0 0.00000000D+00 0.00000000D+00 0.00000000D+00 0.00000000D+00 0.00000000D+00
  <mgrwgt>
 0.3177522956D-03    1    2    0
 0.504244319608023D+03 0.000000000000000D+00 0.000000000000000D+00 0.504244319608023D+03
 0.504244319608023D+03 0.000000000000000D+00 0.000000000000000D+00 -.504244319608023D+03
 0.508825373056758D+03 -.109122126179791D+03 0.472936615539509D+03 0.877586435992799D+02
 0.186231866108169D+03 0.665257083233969D+02 -.173896141261250D+03 -.409513621857336D+01
 0.313431400051119D+03 0.425964178563944D+02 -.299040474278259D+03 -.836635073807065D+02
 0.000000000000000D+00 -.000000000000000D+00 0.000000000000000D+00 0.000000000000000D+00
 0.152184487562065D+04 0.000000000000000D+00 0.000000000000000D+00 0.152184487562065D+04
 0.511083356626470D+03 0.000000000000000D+00 0.000000000000000D+00 -.511083356626470D+03
 0.488672599083447D+03 -.522956155299012D+02 0.461236921944606D+03 0.877586435992799D+02
 0.199194863502948D+03 0.884831024903296D+02 -.178416826782104D+03 -.409513621857336D+01
 0.327467859913566D+03 0.791078390713649D+02 -.306557607321346D+03 -.836635073807065D+02
 0.101759290974716D+04 -.115295326031793D+03 0.237375121588441D+02 0.101076151899418D+04
0.178935037418D-03 0.000000000000D+00 0.000000000000D+00 0.267415895584D-03 0.196657086704D-06  6 -1 2 25 -1 2 21 2 0.16148083D+00 0.11400252D+00 0.31035725D+06 0.31035725D+06 0.31035725D+06 0.10834630D+01  1  2  1  1  6  1       -1 0.317752295620D-03 0.100000000000D+01
  </mgrwgt>
  </event>
  <event>
  7     66 0.16841828E-05 0.36587773E+02 0.75467711E-02 0.93668753E-01
       -1 -1    0    0    0  501 0.00000000E+00 0.00000000E+00 0.36099445E+03 0.36099459E+03 0.32000000E+00 0.0000E+00 0.9000E+01
        2 -1    0    0  503    0 0.00000000E+00 0.00000000E+00 -.10771336E+04 0.10771336E+04 0.32000000E+00 0.0000E+00 0.9000E+01
       24  2    1    2    0    0 -.50501108E+03 0.16698398E+03 -.11640935E+03 0.55048100E+03 0.80983668E+02 0.0000E+00 0.0000E+00
       25  1    1    2    0    0 0.47611825E+03 -.17242942E+03 -.33194013E+03 0.61824732E+03 0.12500000E+03 0.0000E+00 0.9000E+01
       -1  1    3    3    0  502 -.37533821E+03 0.85782765E+02 -.81379691E+02 0.39352282E+03 0.32000000E+00 0.0000E+00 0.9000E+01
        2  1    3    3  502    0 -.12967287E+03 0.81201215E+02 -.35029658E+02 0.15695818E+03 0.32000000E+00 0.0000E+00 0.9000E+01
       21  1    1    2  503  501 0.28892827E+02 0.54454370E+01 -.26778965E+03 0.26939990E+03 0.75000000E+00 0.0000E+00 0.9000E+01
#aMCatNLO 2  0  0  2  1 0.19382576D+01 0.00000000D+00  -5  6  0 0.00000000D+00 0.00000000D+00 0.00000000D+00 0.00000000D+00 0.00000000D+00
  <mgrwgt>
 0.1384649946D-02    1    2    0
 0.539454393405807D+03 0.000000000000000D+00 0.000000000000000D+00 0.539454393405807D+03
 0.539454393405807D+03 0.000000000000000D+00 0.000000000000000D+00 -.539454393405807D+03
 0.543656159921630D+03 0.490512800970371D+03 -.169716474173147D+03 -.102618374081687D+03
 0.382850846849095D+03 -.364964505688149D+03 0.877386934008728D+02 0.753498653030142D+02
 0.152401780040890D+03 -.125548295282223D+03 0.819777807722738D+02 0.272685087786733D+02
 0.000000000000000D+00 0.000000000000000D+00 0.000000000000000D+00 -.000000000000000D+00
 0.540860167100794D+03 0.000000000000000D+00 0.000000000000000D+00 0.540860167100794D+03
 0.718925674251394D+03 0.000000000000000D+00 0.000000000000000D+00 -.718925674251394D+03
 0.531578803449679D+03 0.476118251520495D+03 -.172429417869718D+03 -.102618374081687D+03
 0.392323776401871D+03 -.375342041600568D+03 0.857828370722274D+02 0.753498653030142D+02
 0.155406744888554D+03 -.129669036500773D+03 0.812011438269499D+02 0.272685087786733D+02
 0.180476516612082D+03 0.288928265808458D+02 0.544543697054047D+01 -.178065507150600D+03
0.113992956012D-03 0.000000000000D+00 0.000000000000D+00 0.176556560635D-03 0.133364823330D-05  6 -1 2 25 -1 2 21 2 0.55537542D-01 0.16571263D+00 0.29647858D+06 0.29647858D+06 0.29647858D+06 0.10849315D+01  1  2  1  2  6  2        2 0.138464994591D-02 0.100000000000D+01
  </mgrwgt>
  </event>
  <event>
  7     66 0.16841828E-05 0.35682973E+02 0.75467711E-02 0.92973307E-01
       -1 -1    0    0    0  501 0.00000000E+00 0.00000000E+00 0.16719040E+03 0.16719071E+03 0.32000000E+00 0.0000E+00 0.9000E+01
        2 -1    0    0  503    0 0.00000000E+00 0.00000000E+00 -.24441111E+04 0.24441111E+04 0.32000000E+00 0.0000E+00 0.9000E+01
       24  2    1    2    0    0 0.18054219E+03 -.54050569E+03 -.95676928E+03 0.11167378E+04 0.83391102E+02 0.0000E+00 0.0000E+00
       25  1    1    2    0    0 -.18377664E+03 0.48581972E+03 -.74471899E+03 0.91652934E+03 0.12500000E+03 0.0000E+00 0.9000E+01
       -1  1    3    3    0  502 0.19058381E+02 -.97835274E+02 -.11610754E+03 0.15302296E+03 0.32000000E+00 0.0000E+00 0.9000E+01
        2  1    3    3  502    0 0.16148381E+03 -.44267041E+03 -.84066174E+03 0.96371488E+03 0.32000000E+00 0.0000E+00 0.9000E+01
       21  1    1    2  503  501 0.32344454E+01 0.54685968E+02 -.57543242E+03 0.57803464E+03 0.75000000E+00 0.0000E+00 0.9000E+01
#aMCatNLO 2  0  0  2  1 0.84713837D+01 0.00000000D+00  -5  6  0 0.00000000D+00 0.00000000D+00 0.00000000D+00 0.00000000D+00 0.00000000D+00
  <mgrwgt>
 0.5516956985D-03    1    2    0
 0.555902887935629D+03 0.000000000000000D+00 0.000000000000000D+00 0.555902887935629D+03
 0.555902887935629D+03 0.000000000000000D+00 0.000000000000000D+00 -.555902887935629D+03
 0.559802366001868D+03 -.182183965194726D+03 0.512747656936580D+03 0.406513482342606D+02
 0.973969770490254D+02 0.193461924583080D+02 -.929286072541371D+02 0.218213182338009D+02
 0.454606432820364D+03 0.162837772736418D+03 -.419819049682443D+03 -.624726664680615D+02
 0.000000000000000D+00 0.000000000000000D+00 0.000000000000000D+00 -.000000000000000D+00
 0.560941866385649D+03 0.000000000000000D+00 0.000000000000000D+00 0.560941866385649D+03
 0.728473339041971D+03 0.000000000000000D+00 0.000000000000000D+00 -.728473339041971D+03
 0.535791176678625D+03 -.183776639633401D+03 0.485819719256493D+03 0.406513482342606D+02
 0.102029697421622D+03 0.190562840621319D+02 -.978301960758035D+02 0.218213182338009D+02
 0.475333697380950D+03 0.161485910191440D+03 -.442675491325031D+03 -.624726664680615D+02
 0.176260633946423D+03 0.323444537982954D+01 0.546859681443414D+02 -.167531472656322D+03
0.695465944459D-04 0.000000000000D+00 0.000000000000D+00 0.238532876206D-04 0.512961919166D-07  6 -1 2 25 -1 2 21 2 0.25721590D-01 0.37601658D+00 0.33634647D+06 0.33634647D+06 0.33634647D+06 0.10808964D+01  1  2  1  2  6  2        2 0.551695698505D-03 0.100000000000D+01
  </mgrwgt>
  </event>
  <event>
  6     66 0.16841828E-05 0.49613197E+02 0.75467711E-02 0.91004429E-01
       -1 -1    0    0    0  501 0.00000000E+00 0.00000000E+00 0.73340160E+03 0.73340167E+03 0.32000000E+00 0.0000E+00 0.9000E+01
        2 -1    0    0  501    0 -.00000000E+00 -.00000000E+00 -.82254651E+03 0.82254657E+03 0.32000000E+00 0.0000E+00 0.9000E+01
       25  1    1    2    0    0 0.17840982E+03 -.66200885E+03 -.25716904E+03 0.74286385E+03 0.12500000E+03 0.0000E+00 0.9000E+01
       -1  1    1    2    0  503 -.74720203E+02 0.26268884E+03 0.14896117E+03 0.31109173E+03 0.32000000E+00 0.0000E+00 0.9000E+01
        2  1    1    2  502    0 -.70694782E+02 0.37885147E+03 0.11194363E+03 0.40131990E+03 0.32000000E+00 0.0000E+00 0.9000E+01
       21  1    1    2  503  502 -.32994838E+02 0.20468549E+02 -.92880677E+02 0.10067275E+03 0.75000000E+00 0.0000E+00 0.9000E+01
#aMCatNLO 2  0  0  4  2 0.24313349D+00 0.00000000D+00  -5  6  0 0.00000000D+00 0.00000000D+00 0.00000000D+00 0.00000000D+00 0.00000000D+00
  <mgrwgt>
 0.4576650065D-02    1    2    0
 0.776696225799031D+03 0.000000000000000D+00 0.000000000000000D+00 0.776696225799031D+03
 0.776696225799031D+03 -.000000000000000D+00 -.000000000000000D+00 -.776696225799031D+03
 0.779766950651660D+03 0.196089248586191D+03 -.708483885311238D+03 -.228059396148862D+03
 0.391575546753847D+03 -.134644778305328D+03 0.353912978188915D+03 0.997386402560999D+02
 0.382049954192554D+03 -.614444702808628D+02 0.354570907122323D+03 0.128320755892762D+03
 0.000000000000000D+00 0.000000000000000D+00 0.000000000000000D+00 -.000000000000000D+00
 0.776696225799031D+03 0.000000000000000D+00 0.000000000000000D+00 0.776696225799031D+03
 0.776696225799031D+03 -.000000000000000D+00 -.000000000000000D+00 -.776696225799031D+03
 0.729252344524154D+03 0.178381584616994D+03 -.661939398618291D+03 -.214942375580900D+03
 0.319940026521740D+03 -.745805183056547D+02 0.262415266678751D+03 0.167145429712904D+03
 0.408516455206539D+03 -.707214121779795D+02 0.378955292292083D+03 0.135192686480780D+03
 0.956836253456284D+02 -.330796541333596D+02 0.205688396474569D+02 -.873957406127844D+02
0.118106065629D-02 0.000000000000D+00 0.000000000000D+00 0.376884020800D-04 0.278875737154D-06  6 -1 2 25 -1 2 21 2 0.11283103D+00 0.12654563D+00 0.48588914D+06 0.48588914D+06 0.48588914D+06 0.10693902D+01  1  2  1  3  6  4       -1 0.457665006541D-02 0.100000000000D+01
  </mgrwgt>
  </event>
  <event>
  7     66 0.16841828E-05 0.44086868E+02 0.75467711E-02 0.92403403E-01
       21 -1    0    0  503  501 0.00000000E+00 0.00000000E+00 0.67274032E+03 0.67274073E+03 0.75000000E+00 0.0000E+00 0.9000E+01
        2 -1    0    0  501    0 0.00000000E+00 0.00000000E+00 -.55992799E+03 0.55992808E+03 0.32000000E+00 0.0000E+00 0.9000E+01
       24  2    1    2    0    0 -.45730167E+03 -.39159490E+03 0.57289806E+02 0.60985162E+03 0.78520602E+02 0.0000E+00 0.0000E+00
       25  1    1    2    0    0 0.40710880E+03 0.37490401E+03 0.53303727E+02 0.56987444E+03 0.12500000E+03 0.0000E+00 0.9000E+01
       -1  1    3    3    0  502 -.25247594E+03 -.21612112E+03 0.70797935E+02 0.33980125E+03 0.32000000E+00 0.0000E+00 0.9000E+01
        2  1    3    3  502    0 -.20482573E+03 -.17547378E+03 -.13508129E+02 0.27005036E+03 0.32000000E+00 0.0000E+00 0.9000E+01
        1  1    1    2  503    0 0.50192866E+02 0.16690898E+02 0.22187946E+01 0.52942755E+02 0.32000000E+00 0.0000E+00 0.9000E+01
#aMCatNLO 2  0  0  1  1 0.12771079D+03 0.00000000D+00  -5  6  0 0.00000000D+00 0.00000000D+00 0.00000000D+00 0.00000000D+00 0.00000000D+00
  <mgrwgt>
 0.1335585966D-03    1    2    0
 0.586669568884393D+03 0.000000000000000D+00 0.000000000000000D+00 0.586669568884393D+03
 0.586669568884393D+03 0.000000000000000D+00 0.000000000000000D+00 -.586669568884393D+03
 0.590700592334942D+03 0.431866217485465D+03 0.383136719257418D+03 -.119734330994847D+00
 0.321104103937672D+03 -.238458231433571D+03 -.211460148555138D+03 0.391167866807537D+02
 0.261534441496172D+03 -.193407986051894D+03 -.171676570702280D+03 -.389970523497589D+02
 0.000000000000000D+00 0.000000000000000D+00 0.000000000000000D+00 -.000000000000000D+00
 0.612370698943083D+03 0.000000000000000D+00 0.000000000000000D+00 0.612370698943083D+03
 0.615127164666564D+03 0.000000000000000D+00 0.000000000000000D+00 -.615127164666564D+03
 0.567376071787285D+03 0.407108804419899D+03 0.374904006199268D+03 -.119734330994847D+00
 0.334638993045030D+03 -.252476735751849D+03 -.216121795684876D+03 0.391167866807537D+02
 0.272515753007023D+03 -.204824934232163D+03 -.175473108657154D+03 -.389970523497589D+02
 0.529670457703079D+02 0.501928655641129D+02 0.166908981427622D+02 -.275646572348133D+01
0.250742784172D-05 0.000000000000D+00 0.000000000000D+00 0.845204118975D-04 0.144716498221D-08  6 21 2 25 -1 2 1 2 0.10349847D+00 0.86142739D-01 0.37352101D+06 0.37352101D+06 0.37352101D+06 0.10775785D+01  1  2  1  5  6  1       -1 0.133558596643D-03 0.100000000000D+01
  </mgrwgt>
  </event>
  <event>
  7     66 0.16841828E-05 0.37212211E+02 0.75467711E-02 0.92970819E-01
       -1 -1    0    0    0  501 0.00000000E+00 0.00000000E+00 0.27086332E+03 0.27086351E+03 0.32000000E+00 0.0000E+00 0.9000E+01
        2 -1    0    0  503    0 0.00000000E+00 0.00000000E+00 -.26480813E+04 0.26480813E+04 0.32000000E+00 0.0000E+00 0.9000E+01
       24  2    1    2    0    0 -.19295484E+02 0.13665314E+03 0.82359003E+02 0.17986904E+03 0.80768009E+02 0.0000E+00 0.0000E+00
       25  1    1    2    0    0 -.32698782E+03 -.43763465E+03 -.58883727E+03 0.81289572E+03 0.12500000E+03 0.0000E+00 0.9000E+01
       -1  1    3    3    0  502 -.24006913E+02 0.67657368E+02 0.84246427E+02 0.11068611E+03 0.32000000E+00 0.0000E+00 0.9000E+01
        2  1    3    3  502    0 0.47114290E+01 0.68995772E+02 -.18874237E+01 0.69182937E+02 0.32000000E+00 0.0000E+00 0.9000E+01
       21  1    1    2  503  501 0.34628331E+03 0.30098151E+03 -.18707397E+04 0.19261801E+04 0.75000000E+00 0.0000E+00 0.9000E+01
#aMCatNLO 2  0  0  2  1 0.64951500D+02 0.00000000D+00  -5  6  0 0.00000000D+00 0.00000000D+00 0.00000000D+00 0.00000000D+00 0.00000000D+00
  <mgrwgt>
 0.1390241355D-01    1    2    0
 0.360055428184427D+03 0.000000000000000D+00 0.000000000000000D+00 0.360055428184427D+03
 0.360055428184427D+03 0.000000000000000D+00 0.000000000000000D+00 -.360055428184427D+03
 0.366374961343792D+03 -.115287635192629D+03 -.253629700702153D+03 -.202450854266147D+03
 0.228584032379740D+03 0.655910344136013D+02 0.145534220399751D+03 0.163610105910889D+03
 0.125151862645322D+03 0.496966007790280D+02 0.108095480302402D+03 0.388407483552585D+02
 0.000000000000000D+00 0.000000000000000D+00 0.000000000000000D+00 -.000000000000000D+00
 0.475598169054795D+03 0.000000000000000D+00 0.000000000000000D+00 0.475598169054795D+03
 0.150813880072655D+04 0.000000000000000D+00 0.000000000000000D+00 -.150813880072655D+04
 0.595866152453643D+03 -.326987823723625D+03 -.437634649431809D+03 -.202450854266147D+03
 0.178667671789495D+03 -.240073638630554D+02 0.676573474713091D+02 0.163610105910889D+03
 0.793172422764943D+02 0.471187975636678D+01 0.689957924710857D+02 0.388407483552585D+02
 0.112988590326171D+04 0.346283307830313D+03 0.300981509489414D+03 -.103254063167175D+04
0.526606281256D-02 0.000000000000D+00 0.000000000000D+00 0.277345954129D-03 0.241387233797D-07  6 -1 2 25 -1 2 21 2 0.41671286D-01 0.40739704D+00 0.33649949D+06 0.33649949D+06 0.33649949D+06 0.10808819D+01  1  2  1  2  6  2        2 0.139024135478D-01 0.100000000000D+01
  </mgrwgt>
  </event>
  <event>
  7     66 0.16841828E-05 0.12810827E+03 0.75467711E-02 0.93392194E-01
       -1 -1    0    0    0  503 0.00000000E+00 0.00000000E+00 0.36372354E+03 0.36372368E+03 0.32000000E+00 0.0000E+00 0.9000E+01
        2 -1    0    0  501    0 0.00000000E+00 0.00000000E+00 -.15382758E+04 0.15382758E+04 0.32000000E+00 0.0000E+00 0.9000E+01
       24  2    1    2    0    0 0.43579346E+03 0.22403963E+03 -.10886249E+04 0.11965565E+04 0.80829997E+02 0.0000E+00 0.0000E+00
       25  1    1    2    0    0 -.45193919E+03 -.77630040E+02 -.20345250E+03 0.51700423E+03 0.12500000E+03 0.0000E+00 0.9000E+01
       -1  1    3    3    0  502 0.36898767E+03 0.16275241E+03 -.93337417E+03 0.10167732E+04 0.32000000E+00 0.0000E+00 0.9000E+01
        2  1    3    3  502    0 0.66805784E+02 0.61287222E+02 -.15525074E+03 0.17978329E+03 0.32000000E+00 0.0000E+00 0.9000E+01
       21  1    1    2  501  503 0.16145730E+02 -.14640959E+03 0.11752518E+03 0.18843880E+03 0.75000000E+00 0.0000E+00 0.9000E+01
#aMCatNLO 2  0  0  1  1 0.12771079D+03 0.00000000D+00  -5  6  0 0.00000000D+00 0.00000000D+00 0.00000000D+00 0.00000000D+00 0.00000000D+00
  <mgrwgt>
 0.3827253525D-03    1    2    0
 0.557926912118136D+03 0.000000000000000D+00 0.000000000000000D+00 0.557926912118136D+03
 0.557926912118136D+03 0.000000000000000D+00 0.000000000000000D+00 -.557926912118136D+03
 0.562000703612638D+03 -.443903351910246D+03 -.150499031106128D+03 0.283759839759022D+03
 0.464618646394875D+03 0.375771715941728D+03 0.101279179315021D+03 -.253788557490858D+03
 0.892344742287590D+02 0.681316359685175D+02 0.492198517911070D+02 -.299712822681636D+02
 0.000000000000000D+00 0.000000000000000D+00 -.000000000000000D+00 0.000000000000000D+00
 0.971291167138421D+03 0.000000000000000D+00 0.000000000000000D+00 0.971291167138421D+03
 0.576044205140440D+03 0.000000000000000D+00 0.000000000000000D+00 -.576044205140440D+03
 0.553552252972125D+03 -.451939185023482D+03 -.776300402599429D+02 0.283759839759022D+03
 0.476500673922280D+03 0.368992407301049D+03 0.162753997460195D+03 -.253788557490858D+03
 0.954808173738377D+02 0.668010480766387D+02 0.612856320962819D+02 -.299712822681636D+02
 0.421801628010619D+03 0.161457296457948D+02 -.146409589296534D+03 0.395246961997981D+03
0.587731127850D-04 0.000000000000D+00 0.000000000000D+00 0.812842208890D-04 0.274833343247D-07  6 -1 2 25 -1 2 21 2 0.55957450D-01 0.23665769D+00 0.31166187D+06 0.31166187D+06 0.31166187D+06 0.10833286D+01  1  2  1  1  6  1       -1 0.382725352525D-03 0.100000000000D+01
  </mgrwgt>
  </event>
  <event>
  7     66 0.16841828E-05 0.79218683E+02 0.75467711E-02 0.92631223E-01
       -1 -1    0    0    0  501 0.00000000E+00 0.00000000E+00 0.33361000E+03 0.33361016E+03 0.32000000E+00 0.0000E+00 0.9000E+01
        2 -1    0    0  503    0 0.00000000E+00 0.00000000E+00 -.13718300E+04 0.13718301E+04 0.32000000E+00 0.0000E+00 0.9000E+01
       24  2    1    2    0    0 -.56836581E+03 -.11317803E+03 -.79891009E+03 0.99263118E+03 0.10587900E+03 0.0000E+00 0.0000E+00
       25  1    1    2    0    0 0.56712876E+03 0.13303824E+03 -.14065240E+03 0.61216199E+03 0.12500000E+03 0.0000E+00 0.9000E+01
       -1  1    3    3    0  502 -.24083144E+03 -.25763640E+02 -.25473432E+03 0.35150138E+03 0.32000000E+00 0.0000E+00 0.9000E+01
        2  1    3    3  502    0 -.32753437E+03 -.87414394E+02 -.54417577E+03 0.64112979E+03 0.32000000E+00 0.0000E+00 0.9000E+01
       21  1    1    2  503  501 0.12370424E+01 -.19860207E+02 -.98657550E+02 0.10064707E+03 0.75000000E+00 0.0000E+00 0.9000E+01
#aMCatNLO 2  0  0  2  1 0.64951500D+02 0.00000000D+00  -5  6  0 0.00000000D+00 0.00000000D+00 0.00000000D+00 0.00000000D+00 0.00000000D+00
  <mgrwgt>
 0.4182618775D-03    1    2    0
 0.650420534532860D+03 0.000000000000000D+00 0.000000000000000D+00 0.650420534532860D+03
 0.650420534532860D+03 0.000000000000000D+00 0.000000000000000D+00 -.650420534532860D+03
 0.652117381268423D+03 0.567749541887030D+03 0.123072011857667D+03 0.268599732942456D+03
 0.249807751258428D+03 -.240593180215683D+03 -.295752577907425D+02 -.603666990078783D+02
 0.398915936538870D+03 -.327156361671348D+03 -.934967540669247D+02 -.208233033934578D+03
 0.000000000000000D+00 0.000000000000000D+00 -.000000000000000D+00 -.000000000000000D+00
 0.652439430426371D+03 0.000000000000000D+00 0.000000000000000D+00 0.652439430426371D+03
 0.701448517115091D+03 0.000000000000000D+00 0.000000000000000D+00 -.701448517115091D+03
 0.653532732754332D+03 0.567128770380328D+03 0.133038242815679D+03 0.268599732942456D+03
 0.249614238014443D+03 -.240830630461680D+03 -.257630918535238D+02 -.603666990078783D+02
 0.397846282507871D+03 -.327535182366026D+03 -.874149437807276D+02 -.208233033934578D+03
 0.528946942648156D+02 0.123704244737744D+01 -.198602071814279D+02 -.490090866887199D+02
0.448939032792D-04 0.000000000000D+00 0.000000000000D+00 0.372993473238D-06 0.587399111227D-08  6 -1 2 25 -1 2 21 2 0.51324422D-01 0.21104993D+00 0.35813490D+06 0.35813490D+06 0.35813490D+06 0.10789061D+01  1  2  1  2  6  2        2 0.418261877505D-03 0.100000000000D+01
  </mgrwgt>
  </event>
  <event>
  7     66 0.16841828E-05 0.24011009E+02 0.75467711E-02 0.92759272E-01
       21 -1    0    0  503  501 0.00000000E+00 0.00000000E+00 0.50488341E+03 0.50488397E+03 0.75000000E+00 0.0000E+00 0.9000E+01
        2 -1    0    0  501    0 0.00000000E+00 0.00000000E+00 -.10856651E+04 0.10856652E+04 0.32000000E+00 0.0000E+00 0.9000E+01
       24  2    1    2    0    0 -.17739531E+03 -.51299510E+03 -.42002795E+02 0.54931901E+03 0.73171502E+02 0.0000E+00 0.0000E+00
       25  1    1    2    0    0 0.21728364E+03 0.53428945E+03 -.67563460E+03 0.89709783E+03 0.12500000E+03 0.0000E+00 0.9000E+01
       -1  1    3    3    0  502 -.96557377E+02 -.37802129E+03 -.22843804E+02 0.39082651E+03 0.32000000E+00 0.0000E+00 0.9000E+01
        2  1    3    3  502    0 -.80837935E+02 -.13497381E+03 -.19158992E+02 0.15849249E+03 0.32000000E+00 0.0000E+00 0.9000E+01
        1  1    1    2  503    0 -.39888332E+02 -.21294353E+02 0.13685571E+03 0.14413229E+03 0.32000000E+00 0.0000E+00 0.9000E+01
#aMCatNLO 2  0  0  1  2 0.11198228D+03 0.00000000D+00  -5  6  0 0.00000000D+00 0.00000000D+00 0.00000000D+00 0.00000000D+00 0.00000000D+00
  <mgrwgt>
 0.3943279499D-03    1    2    0
 0.627509700084025D+03 0.000000000000000D+00 0.000000000000000D+00 0.627509700084025D+03
 0.627509700084025D+03 0.000000000000000D+00 0.000000000000000D+00 -.627509700084025D+03
 0.631601641358281D+03 0.196968876101226D+03 0.523444428204408D+03 -.265527448290483D+03
 0.446855404786801D+03 -.110600339618407D+03 -.385522602303220D+03 0.197027005196806D+03
 0.176562354022967D+03 -.863685364828185D+02 -.137921825901188D+03 0.685004430936777D+02
 0.000000000000000D+00 -.000000000000000D+00 -.000000000000000D+00 0.000000000000000D+00
 0.870016134810888D+03 0.000000000000000D+00 0.000000000000000D+00 0.870016134810888D+03
 0.630028088221149D+03 0.000000000000000D+00 0.000000000000000D+00 -.630028088221149D+03
 0.647153168713288D+03 0.217283643540118D+03 0.534289449858337D+03 -.265527448290483D+03
 0.437088819892847D+03 -.965576777946653D+02 -.378025939000753D+03 0.197027005196806D+03
 0.171591687993256D+03 -.808376338103399D+02 -.134969158122477D+03 0.685004430936777D+02
 0.244210546432646D+03 -.398883319351124D+02 -.212943527351067D+02 0.239988046589739D+03
0.840718244290D-05 0.000000000000D+00 0.000000000000D+00 0.444428051742D-05 0.588602405722D-09  6 21 2 25 -1 2 1 2 0.77674405D-01 0.16702542D+00 0.34979921D+06 0.34979921D+06 0.34979921D+06 0.10796515D+01  1  2  1  5  6  1       -1 0.394327949895D-03 0.100000000000D+01
  </mgrwgt>
  </event>
  <event>
  7     66 0.16841828E-05 0.54901240E+02 0.75467711E-02 0.94687783E-01
       -1 -1    0    0    0  501 0.00000000E+00 0.00000000E+00 0.13712472E+03 0.13712509E+03 0.32000000E+00 0.0000E+00 0.9000E+01
        2 -1    0    0  503    0 0.00000000E+00 0.00000000E+00 -.19039349E+04 0.19039349E+04 0.32000000E+00 0.0000E+00 0.9000E+01
       24  2    1    2    0    0 -.12962975E+03 0.45066170E+03 -.74830494E+03 0.88678642E+03 0.80808587E+02 0.0000E+00 0.0000E+00
       25  1    1    2    0    0 0.16835075E+03 -.43573207E+03 -.82416838E+03 0.95555373E+03 0.12500000E+03 0.0000E+00 0.9000E+01
       -1  1    3    3    0  502 -.71668423E+02 0.20826183E+03 -.27952537E+03 0.35587061E+03 0.32000000E+00 0.0000E+00 0.9000E+01
        2  1    3    3  502    0 -.57961327E+02 0.24239987E+03 -.46877957E+03 0.53091581E+03 0.32000000E+00 0.0000E+00 0.9000E+01
       21  1    1    2  503  501 -.38720995E+02 -.14929626E+02 -.19433683E+03 0.19871985E+03 0.75000000E+00 0.0000E+00 0.9000E+01
#aMCatNLO 2  0  0  2  1 0.64951500D+02 0.00000000D+00  -5  6  0 0.00000000D+00 0.00000000D+00 0.00000000D+00 0.00000000D+00 0.00000000D+00
  <mgrwgt>
 0.3758903744D-02    1    2    0
 0.479536930707985D+03 0.000000000000000D+00 0.000000000000000D+00 0.479536930707985D+03
 0.479536930707985D+03 0.000000000000000D+00 0.000000000000000D+00 -.479536930707985D+03
 0.484278469762591D+03 0.148816812585238D+03 -.443263758225848D+03 -.164752302279432D+02
 0.224960719326158D+03 -.807495823391611D+02 0.204759963083054D+03 0.464778195488970D+02
 0.249834672327221D+03 -.680672302460771D+02 0.238503795142794D+03 -.300025893209538D+02
 0.000000000000000D+00 -.000000000000000D+00 -.000000000000000D+00 -.000000000000000D+00
 0.487779072976105D+03 0.000000000000000D+00 0.000000000000000D+00 0.487779072976105D+03
 0.535231212477979D+03 0.000000000000000D+00 0.000000000000000D+00 -.535231212477979D+03
 0.483839691213792D+03 0.168350745071481D+03 -.435732073890218D+03 -.164752302279432D+02
 0.225098531554469D+03 -.716686381157363D+02 0.208261296232867D+03 0.464778195488970D+02
 0.251033068908961D+03 -.579611119681419D+02 0.242400403917374D+03 -.300025893209538D+02
 0.630389937768618D+02 -.387209949876027D+02 -.149296262600228D+02 -.474521395018739D+02
0.165700674425D-03 0.000000000000D+00 0.000000000000D+00 0.338576758247D-03 0.125482518494D-05  6 -1 2 25 -1 2 21 2 0.21096046D-01 0.29291177D+00 0.24727760D+06 0.24727760D+06 0.24727760D+06 0.10908170D+01  1  2  1  2  6  2        2 0.375890374370D-02 0.100000000000D+01
  </mgrwgt>
  </event>
  <event>
  7     66 0.16841828E-05 0.30940072E+02 0.75467711E-02 0.91394659E-01
       -1 -1    0    0    0  501 0.00000000E+00 0.00000000E+00 0.40105425E+03 0.40105438E+03 0.32000000E+00 0.0000E+00 0.9000E+01
        2 -1    0    0  503    0 0.00000000E+00 0.00000000E+00 -.13796099E+04 0.13796099E+04 0.32000000E+00 0.0000E+00 0.9000E+01
       24  2    1    2    0    0 -.64151909E+03 0.13735364E+03 -.11332068E+03 0.67099516E+03 0.83547373E+02 0.0000E+00 0.0000E+00
       25  1    1    2    0    0 0.64612520E+03 -.12029647E+03 -.80404136E+03 0.10459716E+04 0.12500000E+03 0.0000E+00 0.9000E+01
       -1  1    3    3    0  502 -.52039296E+03 0.12269863E+03 -.60612769E+02 0.53808716E+03 0.32000000E+00 0.0000E+00 0.9000E+01
        2  1    3    3  502    0 -.12112613E+03 0.14655009E+02 -.52707916E+02 0.13290800E+03 0.32000000E+00 0.0000E+00 0.9000E+01
       21  1    1    2  503  501 -.46061101E+01 -.17057170E+02 -.61193597E+02 0.63697584E+02 0.75000000E+00 0.0000E+00 0.9000E+01
#aMCatNLO 2  0  0  2  1 0.64951500D+02 0.00000000D+00  -5  6  0 0.00000000D+00 0.00000000D+00 0.00000000D+00 0.00000000D+00 0.00000000D+00
  <mgrwgt>
 0.1190751038D-02    1    2    0
 0.725622051364438D+03 0.000000000000000D+00 0.000000000000000D+00 0.725622051364438D+03
 0.725622051364438D+03 0.000000000000000D+00 0.000000000000000D+00 -.725622051364438D+03
 0.728600474030866D+03 0.643811848371410D+03 -.128863170330888D+03 -.290059025005022D+03
 0.598512744911882D+03 -.522297962125326D+03 0.115667361759952D+03 0.268409027428624D+03
 0.124130883786128D+03 -.121513886246085D+03 0.131958085709355D+02 0.216499975763982D+02
 0.000000000000000D+00 -.000000000000000D+00 -.000000000000000D+00 -.000000000000000D+00
 0.727944476195517D+03 0.000000000000000D+00 0.000000000000000D+00 0.727944476195517D+03
 0.760075476065354D+03 0.000000000000000D+00 0.000000000000000D+00 -.760075476065354D+03
 0.729183274288590D+03 0.646125195794790D+03 -.120296470748355D+03 -.290059025005022D+03
 0.598258868809453D+03 -.520398813138264D+03 0.122700217555932D+03 0.268409027428624D+03
 0.123909505889093D+03 -.121120272586301D+03 0.146534236013758D+02 0.216499975763982D+02
 0.366683032737342D+02 -.460611007022568D+01 -.170571704089531D+02 -.321309998698367D+02
0.186497186487D-03 0.000000000000D+00 0.000000000000D+00 0.183107259658D-04 0.359784483767D-06  6 -1 2 25 -1 2 21 2 0.61700342D-01 0.21224657D+00 0.45114710D+06 0.45114710D+06 0.45114710D+06 0.10716805D+01  1  2  1  2  6  2        2 0.119075103778D-02 0.100000000000D+01
  </mgrwgt>
  </event>
  <event>
  7     66 0.16841828E-05 0.37697153E+02 0.75467711E-02 0.91121716E-01
       -1 -1    0    0    0  501 0.00000000E+00 0.00000000E+00 0.14834807E+03 0.14834842E+03 0.32000000E+00 0.0000E+00 0.9000E+01
        2 -1    0    0  503    0 0.00000000E+00 0.00000000E+00 -.33452425E+04 0.33452425E+04 0.32000000E+00 0.0000E+00 0.9000E+01
       24  2    1    2    0    0 0.26566594E+02 0.67414178E+03 -.16190758E+04 0.17558299E+04 0.79744624E+02 0.0000E+00 0.0000E+00
       25  1    1    2    0    0 -.15684123E+02 -.67664971E+03 -.14044855E+04 0.15640669E+04 0.12500000E+03 0.0000E+00 0.9000E+01
       -1  1    3    3    0  502 -.26635027E+02 0.15150097E+03 -.34934906E+03 0.38171565E+03 0.32000000E+00 0.0000E+00 0.9000E+01
        2  1    3    3  502    0 0.53201621E+02 0.52264081E+03 -.12697268E+04 0.13741143E+04 0.32000000E+00 0.0000E+00 0.9000E+01
       21  1    1    2  503  501 -.10882470E+02 0.25079285E+01 -.17333307E+03 0.17369408E+03 0.75000000E+00 0.0000E+00 0.9000E+01
#aMCatNLO 2  0  0  2  1 0.64951500D+02 0.00000000D+00  -5  6  0 0.00000000D+00 0.00000000D+00 0.00000000D+00 0.00000000D+00 0.00000000D+00
  <mgrwgt>
 0.1837857437D-02    1    2    0
 0.685504767389592D+03 0.000000000000000D+00 0.000000000000000D+00 0.685504767389592D+03
 0.685504767389592D+03 0.000000000000000D+00 0.000000000000000D+00 -.685504767389592D+03
 0.688883954328001D+03 -.211564175038803D+02 -.675388586600251D+03 0.483607859644644D+02
 0.154367872549533D+03 -.278596375155074D+02 0.151776911461695D+03 -.412914278297512D+01
 0.527757707901650D+03 0.490160550193877D+02 0.523611675138556D+03 -.442316431814893D+02
 0.000000000000000D+00 -.000000000000000D+00 0.000000000000000D+00 -.000000000000000D+00
 0.686358987717324D+03 0.000000000000000D+00 0.000000000000000D+00 0.686358987717324D+03
 0.723026323940272D+03 0.000000000000000D+00 0.000000000000000D+00 -.723026323940272D+03
 0.689974336849417D+03 -.156841230751620D+02 -.676649708619648D+03 0.483607859644644D+02
 0.153874217210739D+03 -.266363127682984D+02 0.151494989171936D+03 -.412914278297512D+01
 0.527206463918077D+03 0.532029062693569D+02 0.522646790962082D+03 -.442316431814893D+02
 0.383302936793637D+02 -.108824704258966D+02 0.250792848563098D+01 -.366673362229480D+02
0.723865660768D-03 0.000000000000D+00 0.000000000000D+00 0.149182960515D-03 0.731440821875D-05  6 -1 2 25 -1 2 21 2 0.22822687D-01 0.51464997D+00 0.47514253D+06 0.47514253D+06 0.47514253D+06 0.10700791D+01  1  2  1  2  6  2        2 0.183785743703D-02 0.100000000000D+01
  </mgrwgt>
  </event>
  <event>
  7     66 0.16841828E-05 0.48346423E+02 0.75467711E-02 0.93101733E-01
       -1 -1    0    0    0  503 0.00000000E+00 0.00000000E+00 0.94130767E+03 0.94130773E+03 0.32000000E+00 0.0000E+00 0.9000E+01
        2 -1    0    0  501    0 0.00000000E+00 0.00000000E+00 -.41692773E+03 0.41692785E+03 0.32000000E+00 0.0000E+00 0.9000E+01
       24  2    1    2    0    0 -.12646796E+03 0.54624069E+03 0.49836768E+03 0.75448339E+03 0.80633736E+02 0.0000E+00 0.0000E+00
       25  1    1    2    0    0 0.13589093E+03 -.53840824E+03 -.62617795E+01 0.56922227E+03 0.12500000E+03 0.0000E+00 0.9000E+01
       -1  1    3    3    0  502 -.70399432E+02 0.16193917E+03 0.18177861E+03 0.25342443E+03 0.32000000E+00 0.0000E+00 0.9000E+01
        2  1    3    3  502    0 -.56068526E+02 0.38430153E+03 0.31658907E+03 0.50105896E+03 0.32000000E+00 0.0000E+00 0.9000E+01
       21  1    1    2  501  503 -.94229686E+01 -.78324479E+01 0.32274037E+02 0.34529922E+02 0.75000000E+00 0.0000E+00 0.9000E+01
#aMCatNLO 2  0  0  1  2 0.20555912D+03 0.00000000D+00  -5  6  0 0.00000000D+00 0.00000000D+00 0.00000000D+00 0.00000000D+00 0.00000000D+00
  <mgrwgt>
 0.6258176485D-02    1    2    0
 0.614385528800672D+03 0.000000000000000D+00 0.000000000000000D+00 0.614385528800672D+03
 0.614385528800672D+03 0.000000000000000D+00 0.000000000000000D+00 -.614385528800672D+03
 0.618097856073246D+03 0.131160371815643D+03 -.542340319928065D+03 -.234699582291594D+03
 0.199708417721718D+03 -.719329554192309D+02 0.160661175314798D+03 0.943243806236469D+02
 0.410964783806381D+03 -.592274163964124D+02 0.381679144613267D+03 0.140375201667947D+03
 0.000000000000000D+00 -.000000000000000D+00 -.000000000000000D+00 0.000000000000000D+00
 0.637014548838913D+03 0.000000000000000D+00 0.000000000000000D+00 0.637014548838913D+03
 0.616077022905198D+03 0.000000000000000D+00 0.000000000000000D+00 -.616077022905198D+03
 0.615677412136822D+03 0.135890926197212D+03 -.538408244796558D+03 -.234699582291594D+03
 0.200190809339350D+03 -.703996575087418D+02 0.161935664961618D+03 0.943243806236469D+02
 0.412963927995629D+03 -.560683000823289D+02 0.384305027690427D+03 0.140375201667947D+03
 0.242594222723096D+02 -.942296860614107D+01 -.783244785548749D+01 0.209375259337148D+02
0.131956328469D-02 0.000000000000D+00 0.000000000000D+00 0.235791533571D-03 0.980803338673D-05  6 -1 2 25 -1 2 21 2 0.14481522D+00 0.64142140D-01 0.32855311D+06 0.32855311D+06 0.32855311D+06 0.10816427D+01  1  2  1  1  6  1       -1 0.625817648539D-02 0.100000000000D+01
  </mgrwgt>
  </event>
  <event>
  7     66 0.16841828E-05 0.61619326E+02 0.75467711E-02 0.91733116E-01
       -1 -1    0    0    0  503 0.00000000E+00 0.00000000E+00 0.70024574E+03 0.70024581E+03 0.32000000E+00 0.0000E+00 0.9000E+01
        2 -1    0    0  501    0 0.00000000E+00 0.00000000E+00 -.10126745E+04 0.10126745E+04 0.32000000E+00 0.0000E+00 0.9000E+01
       24  2    1    2    0    0 0.50687052E+03 -.39622540E+03 -.54014257E+03 0.84426444E+03 0.84357316E+02 0.0000E+00 0.0000E+00
       25  1    1    2    0    0 -.48098068E+03 0.36408756E+03 -.21122251E+02 0.61641976E+03 0.12500000E+03 0.0000E+00 0.9000E+01
       -1  1    3    3    0  502 0.25520177E+03 -.18388150E+03 -.21150759E+03 0.37904606E+03 0.32000000E+00 0.0000E+00 0.9000E+01
        2  1    3    3  502    0 0.25166875E+03 -.21234389E+03 -.32863498E+03 0.46521838E+03 0.32000000E+00 0.0000E+00 0.9000E+01
       21  1    1    2  501  503 -.25889840E+02 0.32137835E+02 0.24883607E+03 0.25223616E+03 0.75000000E+00 0.0000E+00 0.9000E+01
#aMCatNLO 2  0  0  1  2 0.20555912D+03 0.00000000D+00  -5  6  0 0.00000000D+00 0.00000000D+00 0.00000000D+00 0.00000000D+00 0.00000000D+00
  <mgrwgt>
 0.6335053612D-03    1    2    0
 0.673957898048462D+03 0.000000000000000D+00 0.000000000000000D+00 0.673957898048462D+03
 0.673957898048462D+03 0.000000000000000D+00 0.000000000000000D+00 -.673957898048462D+03
 0.677114194465651D+03 -.493808165545260D+03 0.380010701717165D+03 0.233674976341328D+03
 0.313400349041577D+03 0.249095949888512D+03 -.176301688421600D+03 -.713351329165036D+02
 0.357401252589697D+03 0.244712215656748D+03 -.203709013295565D+03 -.162339843424824D+03
 0.000000000000000D+00 -.000000000000000D+00 0.000000000000000D+00 0.000000000000000D+00
 0.104991527590560D+04 0.000000000000000D+00 0.000000000000000D+00 0.104991527590560D+04
 0.675407182079530D+03 0.000000000000000D+00 0.000000000000000D+00 -.675407182079530D+03
 0.658886304458770D+03 -.480980681239253D+03 0.364087560773283D+03 0.233674976341328D+03
 0.322535160766347D+03 0.255201825431419D+03 -.183881094838022D+03 -.713351329165036D+02
 0.367125945004654D+03 0.251668696035236D+03 -.212344301002612D+03 -.162339843424824D+03
 0.376775047755356D+03 -.258898402274011D+02 0.321378350673508D+02 0.374508093826067D+03
0.192275953871D-03 0.000000000000D+00 0.000000000000D+00 0.194928411402D-04 0.767724124601D-07  6 -1 2 25 -1 2 21 2 0.10773006D+00 0.15579600D+00 0.42325255D+06 0.42325255D+06 0.42325255D+06 0.10736630D+01  1  2  1  1  6  1       -1 0.633505361171D-03 0.100000000000D+01
  </mgrwgt>
  </event>
  <event>
  7     66 0.16841828E-05 0.59587460E+02 0.75467711E-02 0.91194497E-01
       -1 -1    0    0    0  503 0.00000000E+00 0.00000000E+00 0.14910915E+03 0.14910949E+03 0.32000000E+00 0.0000E+00 0.9000E+01
        2 -1    0    0  501    0 0.00000000E+00 0.00000000E+00 -.35009855E+04 0.35009855E+04 0.32000000E+00 0.0000E+00 0.9000E+01
       24  2    1    2    0    0 0.18245745E+03 0.65058325E+03 -.22450417E+04 0.23459062E+04 0.80711422E+02 0.0000E+00 0.0000E+00
       25  1    1    2    0    0 -.16435653E+03 -.61617405E+03 -.10596189E+04 0.12430208E+04 0.12500000E+03 0.0000E+00 0.9000E+01
       -1  1    3    3    0  502 0.50724684E+02 0.32835485E+03 -.10741632E+04 0.11243739E+04 0.32000000E+00 0.0000E+00 0.9000E+01
        2  1    3    3  502    0 0.13173276E+03 0.32222840E+03 -.11708785E+04 0.12215323E+04 0.32000000E+00 0.0000E+00 0.9000E+01
       21  1    1    2  501  503 -.18100913E+02 -.34409203E+02 -.47215791E+02 0.61168045E+02 0.75000000E+00 0.0000E+00 0.9000E+01
#aMCatNLO 2  0  0  1  2 0.20555912D+03 0.00000000D+00  -5  6  0 0.00000000D+00 0.00000000D+00 0.00000000D+00 0.00000000D+00 0.00000000D+00
  <mgrwgt>
 0.1089145310D-02    1    2    0
 0.699661295470245D+03 0.000000000000000D+00 0.000000000000000D+00 0.699661295470245D+03
 0.699661295470245D+03 0.000000000000000D+00 0.000000000000000D+00 -.699661295470245D+03
 0.702916680035768D+03 -.173333909624998D+03 -.633239723780462D+03 0.217783532603047D+03
 0.338259309807258D+03 0.462931183752305D+02 0.319933118994292D+03 -.995947148846936D+02
 0.358146601097465D+03 0.127040791249767D+03 0.313306604786170D+03 -.118188817718354D+03
 0.000000000000000D+00 -.000000000000000D+00 -.000000000000000D+00 0.000000000000000D+00
 0.734281890222179D+03 0.000000000000000D+00 0.000000000000000D+00 0.734281890222179D+03
 0.710932842787350D+03 0.000000000000000D+00 0.000000000000000D+00 -.710932842787350D+03
 0.685374490558218D+03 -.164356533705876D+03 -.616174046080378D+03 0.217783532603047D+03
 0.346855798316229D+03 0.507234108122723D+02 0.328354949998009D+03 -.995947148846936D+02
 0.367632329320097D+03 0.131734036031947D+03 0.322228299003039D+03 -.118188817718354D+03
 0.453521148149852D+02 -.181009131383440D+02 -.344092029206695D+02 0.233490474348293D+02
0.555251973971D-03 0.000000000000D+00 0.000000000000D+00 0.250240640028D-03 0.101196500484D-05  6 -1 2 25 -1 2 21 2 0.22939798D-01 0.53861085D+00 0.46860760D+06 0.46860760D+06 0.46860760D+06 0.10705063D+01  1  2  1  1  6  1       -1 0.108914530971D-02 0.100000000000D+01
  </mgrwgt>
  </event>
  <event>
  7     66 0.16841828E-05 0.33491328E+02 0.75467711E-02 0.92688507E-01
       -1 -1    0    0    0  503 0.00000000E+00 0.00000000E+00 0.16879952E+03 0.16879982E+03 0.32000000E+00 0.0000E+00 0.9000E+01
        2 -1    0    0  501    0 0.00000000E+00 0.00000000E+00 -.23293399E+04 0.23293399E+04 0.32000000E+00 0.0000E+00 0.9000E+01
       24  2    1    2    0    0 0.20626515E+03 -.53473695E+03 -.80210870E+03 0.98914719E+03 0.80900373E+02 0.0000E+00 0.0000E+00
       25  1    1    2    0    0 -.15580088E+03 0.52652760E+03 -.13418646E+04 0.14552425E+04 0.12500000E+03 0.0000E+00 0.9000E+01
       -1  1    3    3    0  502 0.44453381E+02 -.19523558E+03 -.23600679E+03 0.30950338E+03 0.32000000E+00 0.0000E+00 0.9000E+01
        2  1    3    3  502    0 0.16181177E+03 -.33950138E+03 -.56610190E+03 0.67964380E+03 0.32000000E+00 0.0000E+00 0.9000E+01
       21  1    1    2  501  503 -.50464275E+02 0.82093537E+01 -.16567121E+02 0.53750056E+02 0.75000000E+00 0.0000E+00 0.9000E+01
#aMCatNLO 2  0  0  1  2 0.20555912D+03 0.00000000D+00  -5  6  0 0.00000000D+00 0.00000000D+00 0.00000000D+00 0.00000000D+00 0.00000000D+00
  <mgrwgt>
 0.8225972617D-03    1    2    0
 0.586473691054189D+03 0.000000000000000D+00 0.000000000000000D+00 0.586473691054189D+03
 0.586473691054189D+03 0.000000000000000D+00 0.000000000000000D+00 -.586473691054189D+03
 0.590344337655764D+03 -.180952296315080D+03 0.530619147275661D+03 -.136312229843739D+03
 0.210329624041824D+03 0.353405830639935D+02 -.193751181539824D+03 0.738246137151696D+02
 0.372273420410790D+03 0.145611713251086D+03 -.336867965735837D+03 0.624876161285690D+02
 0.000000000000000D+00 -.000000000000000D+00 0.000000000000000D+00 0.000000000000000D+00
 0.659686238662913D+03 0.000000000000000D+00 0.000000000000000D+00 0.659686238662913D+03
 0.596025185141411D+03 0.000000000000000D+00 0.000000000000000D+00 -.596025185141411D+03
 0.579405947026055D+03 -.155800875326518D+03 0.526527601072990D+03 -.136312229843739D+03
 0.213405864759903D+03 0.444515444428530D+02 -.195233321234806D+03 0.738246137151696D+02
 0.381249344080210D+03 0.161813605674077D+03 -.339503633575420D+03 0.624876161285690D+02
 0.816502679381568D+02 -.504642747904116D+02 0.820935373723544D+01 0.636610535215021D+02
0.911033810530D-04 0.000000000000D+00 0.000000000000D+00 0.244694706757D-03 0.586472243237D-06  6 -1 2 25 -1 2 21 2 0.25969107D-01 0.35835899D+00 0.35437864D+06 0.35437864D+06 0.35437864D+06 0.10792396D+01  1  2  1  1  6  1       -1 0.822597261669D-03 0.100000000000D+01
  </mgrwgt>
  </event>
  <event>
  7     66 0.16841828E-05 0.60816748E+02 0.75467711E-02 0.90339491E-01
       21 -1    0    0  503  501 0.00000000E+00 0.00000000E+00 0.27446393E+03 0.27446496E+03 0.75000000E+00 0.0000E+00 0.9000E+01
        2 -1    0    0  501    0 0.00000000E+00 0.00000000E+00 -.22059270E+04 0.22059270E+04 0.32000000E+00 0.0000E+00 0.9000E+01
       24  2    1    2    0    0 0.19086067E+03 -.70246365E+03 -.99683630E+03 0.12369896E+04 0.81103108E+02 0.0000E+00 0.0000E+00
       25  1    1    2    0    0 -.12515868E+03 0.64580257E+03 -.94266199E+03 0.11562708E+04 0.12500000E+03 0.0000E+00 0.9000E+01
       -1  1    3    3    0  502 0.15872805E+03 -.49283507E+03 -.75294505E+03 0.91378736E+03 0.32000000E+00 0.0000E+00 0.9000E+01
        2  1    3    3  502    0 0.32132624E+02 -.20962858E+03 -.24389125E+03 0.32320225E+03 0.32000000E+00 0.0000E+00 0.9000E+01
        1  1    1    2  503    0 -.65701989E+02 0.56661083E+02 0.80352524E+01 0.87131495E+02 0.32000000E+00 0.0000E+00 0.9000E+01
#aMCatNLO 2  0  0  1  2 0.20555912D+03 0.00000000D+00  -5  6  0 0.00000000D+00 0.00000000D+00 0.00000000D+00 0.00000000D+00 0.00000000D+00
  <mgrwgt>
 0.1149211205D-03    1    2    0
 0.699734732791374D+03 0.000000000000000D+00 0.000000000000000D+00 0.699734732791374D+03
 0.699734732791374D+03 0.000000000000000D+00 0.000000000000000D+00 -.699734732791374D+03
 0.702967131242617D+03 -.157348651988251D+03 0.673563041763470D+03 -.959260628278334D+01
 0.491792413952642D+03 0.135044222366846D+03 -.472412955696512D+03 -.211857432436524D+02
 0.204709920387490D+03 0.223044296214050D+02 -.201150086066958D+03 0.307783495264357D+02
 0.000000000000000D+00 -.000000000000000D+00 0.000000000000000D+00 0.000000000000000D+00
 0.848113798735219D+03 0.000000000000000D+00 0.000000000000000D+00 0.848113798735219D+03
 0.713876404098048D+03 0.000000000000000D+00 0.000000000000000D+00 -.713876404098048D+03
 0.669658620514682D+03 -.125158683602441D+03 0.645802565691121D+03 -.959260628278334D+01
 0.518203437124144D+03 0.158730019077521D+03 -.492839474447959D+03 -.211857432436524D+02
 0.214294144359507D+03 0.321306532518914D+02 -.209624174724216D+03 0.307783495264357D+02
 0.159834000834934D+03 -.657019887269717D+02 0.566610834810544D+02 0.134237394637171D+03
0.279958795748D-05 0.000000000000D+00 0.000000000000D+00 0.134355987797D-03 0.308632119351D-08  6 21 2 25 -1 2 1 2 0.42225292D-01 0.33937339D+00 0.55219169D+06 0.55219169D+06 0.55219169D+06 0.10654762D+01  1  2  1  5  6  1       -1 0.114921120522D-03 0.100000000000D+01
  </mgrwgt>
  </event>
  <event>
  6     66 0.16841828E-05 0.19530016E+02 0.75467711E-02 0.88728424E-01
       -1 -1    0    0    0  501 0.00000000E+00 0.00000000E+00 0.98565751E+03 0.98565756E+03 0.32000000E+00 0.0000E+00 0.9000E+01
        2 -1    0    0  501    0 -.00000000E+00 -.00000000E+00 -.10774703E+04 0.10774704E+04 0.32000000E+00 0.0000E+00 0.9000E+01
       25  1    1    2    0    0 0.13829498E+03 0.85017779E+03 0.46554576E+03 0.98705908E+03 0.12500000E+03 0.0000E+00 0.9000E+01
       -1  1    1    2    0  503 -.18670193E+02 -.12762920E+03 -.12531925E+03 0.17984105E+03 0.32000000E+00 0.0000E+00 0.9000E+01
        2  1    1    2  502    0 -.13785076E+03 -.70281618E+03 -.46483434E+03 0.85382931E+03 0.32000000E+00 0.0000E+00 0.9000E+01
       21  1    1    2  503  502 0.18225974E+02 -.19732406E+02 0.32795025E+02 0.42398469E+02 0.75000000E+00 0.0000E+00 0.9000E+01
#aMCatNLO 2  0  0  4  5 0.13646219D+01 0.00000000D+00  -5  6  0 0.00000000D+00 0.00000000D+00 0.00000000D+00 0.00000000D+00 0.00000000D+00
  <mgrwgt>
 0.1703277983D-01    1    2    0
 0.103054199148594D+04 0.000000000000000D+00 0.000000000000000D+00 0.103054199148594D+04
 0.103054199148594D+04 -.000000000000000D+00 -.000000000000000D+00 -.103054199148594D+04
 0.103309796488209D+04 0.138360007960492D+03 0.871750620528846D+03 0.522085978406106D+03
 0.213522783721777D+03 -.530744630925829D+00 -.186198096152902D+03 -.104508212440306D+03
 0.814463234368004D+03 -.137829263329566D+03 -.685552524375945D+03 -.417577765965800D+03
 0.000000000000000D+00 0.000000000000000D+00 0.000000000000000D+00 0.000000000000000D+00
 0.103054199148594D+04 0.000000000000000D+00 0.000000000000000D+00 0.103054199148594D+04
 0.103054199148594D+04 -.000000000000000D+00 -.000000000000000D+00 -.103054199148594D+04
 0.100870322870787D+04 0.138298329551588D+03 0.850112337930029D+03 0.509940965748062D+03
 0.174111060114496D+03 -.187152828859301D+02 -.127233759626437D+03 -.117371077578829D+03
 0.834213201226542D+03 -.137879066287692D+03 -.703024610659077D+03 -.427384399560773D+03
 0.440564929229612D+02 0.182960196220349D+02 -.198539676445154D+02 0.348145113915388D+02
0.147213726941D-01 0.000000000000D+00 0.000000000000D+00 0.207473123589D-05 0.119225921886D-06  6 -1 2 25 -1 2 21 2 0.15163962D+00 0.16576467D+00 0.75892912D+06 0.75892912D+06 0.75892912D+06 0.10559329D+01  1  2  1  3  6  4       -1 0.170327798328D-01 0.100000000000D+01
  </mgrwgt>
  </event>
  <event>
  7     66 0.16841828E-05 0.52516087E+02 0.75467711E-02 0.87966728E-01
       -1 -1    0    0    0  503 0.00000000E+00 0.00000000E+00 0.80028356E+03 0.80028363E+03 0.32000000E+00 0.0000E+00 0.9000E+01
        2 -1    0    0  501    0 0.00000000E+00 0.00000000E+00 -.14815182E+04 0.14815182E+04 0.32000000E+00 0.0000E+00 0.9000E+01
       24  2    1    2    0    0 -.91603908E+03 0.11835655E+03 -.89947365E+03 0.12916738E+04 0.78945868E+02 0.0000E+00 0.0000E+00
       25  1    1    2    0    0 0.91812907E+03 -.13725935E+03 0.18954453E+03 0.95569517E+03 0.12500000E+03 0.0000E+00 0.9000E+01
       -1  1    3    3    0  502 -.34404323E+03 0.80069047E+02 -.32228787E+03 0.47816981E+03 0.32000000E+00 0.0000E+00 0.9000E+01
        2  1    3    3  502    0 -.57199585E+03 0.38287502E+02 -.57718578E+03 0.81350397E+03 0.32000000E+00 0.0000E+00 0.9000E+01
       21  1    1    2  501  503 -.20899928E+01 0.18902802E+02 0.28694526E+02 0.34432867E+02 0.75000000E+00 0.0000E+00 0.9000E+01
#aMCatNLO 2  0  0  1  4 0.44835639D+01 0.00000000D+00  -5  6  0 0.00000000D+00 0.00000000D+00 0.00000000D+00 0.00000000D+00 0.00000000D+00
  <mgrwgt>
 0.3285806144D-02    1    2    0
 0.106610343673855D+04 0.000000000000000D+00 0.000000000000000D+00 0.106610343673855D+04
 0.106610343673855D+04 0.000000000000000D+00 0.000000000000000D+00 -.106610343673855D+04
 0.106830597862396D+04 0.917080918836090D+03 -.127779417370764D+03 0.517964933916221D+03
 0.397731398817504D+03 -.344428813432050D+03 0.835909876111686D+02 -.180476050691797D+03
 0.666169496035632D+03 -.572652105404041D+03 0.441884297595951D+02 -.337488883224425D+03
 0.000000000000000D+00 -.000000000000000D+00 0.000000000000000D+00 0.000000000000000D+00
 0.110991868824080D+04 0.000000000000000D+00 0.000000000000000D+00 0.110991868824080D+04
 0.106821153007890D+04 0.000000000000000D+00 0.000000000000000D+00 -.106821153007890D+04
 0.107038020865717D+04 0.918129069927284D+03 -.137259350401323D+03 0.517964933916221D+03
 0.396668544676270D+03 -.344039485080574D+03 0.800697331566407D+02 -.180476050691797D+03
 0.665242932924011D+03 -.571999592006543D+03 0.382868156108465D+02 -.337488883224425D+03
 0.458385320622454D+02 -.208999284016629D+01 0.189028016338355D+02 0.417071581618961D+02
0.281933805041D-02 0.000000000000D+00 0.000000000000D+00 0.735096398141D-04 0.119941216028D-05  6 -1 2 25 -1 2 21 2 0.12312020D+00 0.22792522D+00 0.88570862D+06 0.88570862D+06 0.88570862D+06 0.10513908D+01  1  2  1  1  6  1       -1 0.328580614380D-02 0.100000000000D+01
  </mgrwgt>
  </event>
  <event>
  7     66 0.16841828E-05 0.68879265E+02 0.75467711E-02 0.95206886E-01
       -1 -1    0    0    0  501 0.00000000E+00 0.00000000E+00 0.24381267E+03 0.24381288E+03 0.32000000E+00 0.0000E+00 0.9000E+01
        2 -1    0    0  503    0 0.00000000E+00 0.00000000E+00 -.10497517E+04 0.10497518E+04 0.32000000E+00 0.0000E+00 0.9000E+01
       24  2    1    2    0    0 0.26397941E+03 -.36724994E+03 -.55064453E+03 0.71740590E+03 0.83091366E+02 0.0000E+00 0.0000E+00
       25  1    1    2    0    0 -.28055220E+03 0.36144076E+03 -.19410497E+03 0.51249458E+03 0.12500000E+03 0.0000E+00 0.9000E+01
       -1  1    3    3    0  502 0.17201111E+03 -.17517480E+03 -.32248926E+03 0.40530662E+03 0.32000000E+00 0.0000E+00 0.9000E+01
        2  1    3    3  502    0 0.91968301E+02 -.19207514E+03 -.22815527E+03 0.31209928E+03 0.32000000E+00 0.0000E+00 0.9000E+01
       21  1    1    2  503  501 0.16572781E+02 0.58091751E+01 -.61189561E+02 0.63664185E+02 0.75000000E+00 0.0000E+00 0.9000E+01
#aMCatNLO 2  0  0  2  1 0.73231086D+03 0.00000000D+00  -5  6  0 0.00000000D+00 0.00000000D+00 0.00000000D+00 0.00000000D+00 0.00000000D+00
  <mgrwgt>
 0.2722364750D-02    1    2    0
 0.489309454290159D+03 0.000000000000000D+00 0.000000000000000D+00 0.489309454290159D+03
 0.489309454290159D+03 0.000000000000000D+00 0.000000000000000D+00 -.489309454290159D+03
 0.493765134211684D+03 -.272169638114617D+03 0.364379057034387D+03 0.146049986807161D+03
 0.265830601670828D+03 0.176497524328561D+03 -.173602361842562D+03 -.968336338946738D+02
 0.219023172697805D+03 0.956721137860554D+02 -.190776695191825D+03 -.492163529124868D+02
 0.000000000000000D+00 0.000000000000000D+00 0.000000000000000D+00 -.000000000000000D+00
 0.491880282708146D+03 0.000000000000000D+00 0.000000000000000D+00 0.491880282708146D+03
 0.520326985457651D+03 0.000000000000000D+00 0.000000000000000D+00 -.520326985457651D+03
 0.496290798451211D+03 -.280552196082522D+03 0.361440760366403D+03 0.146049986807161D+03
 0.263914958605920D+03 0.172012300089445D+03 -.175174545355926D+03 -.968336338946738D+02
 0.218570709669801D+03 0.919671149427264D+02 -.192075390148414D+03 -.492163529124868D+02
 0.334308014388647D+02 0.165727810503501D+02 0.580917513793710D+01 -.284467027495056D+02
0.104206389027D-03 0.000000000000D+00 0.000000000000D+00 0.275827899169D-04 0.571676366783D-06  6 -1 2 25 -1 2 21 2 0.37509342D-01 0.16149891D+00 0.22578724D+06 0.22578724D+06 0.22578724D+06 0.10938030D+01  1  2  1  2  6  2        2 0.272236475000D-02 0.100000000000D+01
  </mgrwgt>
  </event>
  <event>
  7     66 0.16841828E-05 0.58626521E+02 0.75467711E-02 0.95177927E-01
       -1 -1    0    0    0  501 0.00000000E+00 0.00000000E+00 0.24672038E+03 0.24672059E+03 0.32000000E+00 0.0000E+00 0.9000E+01
        2 -1    0    0  503    0 0.00000000E+00 0.00000000E+00 -.16267785E+04 0.16267786E+04 0.32000000E+00 0.0000E+00 0.9000E+01
       24  2    1    2    0    0 -.72889937E+02 -.41030665E+03 -.43956578E+03 0.61203487E+03 0.87773124E+02 0.0000E+00 0.0000E+00
       25  1    1    2    0    0 0.69316635E+02 0.45817565E+03 -.20088023E+03 0.52029568E+03 0.12500000E+03 0.0000E+00 0.9000E+01
       -1  1    3    3    0  502 0.15038541E+01 -.22636998E+03 -.25597996E+03 0.34171840E+03 0.32000000E+00 0.0000E+00 0.9000E+01
        2  1    3    3  502    0 -.74393791E+02 -.18393668E+03 -.18358582E+03 0.27031647E+03 0.32000000E+00 0.0000E+00 0.9000E+01
       21  1    1    2  503  501 0.35733012E+01 -.47869001E+02 -.73961216E+03 0.74116862E+03 0.75000000E+00 0.0000E+00 0.9000E+01
#aMCatNLO 2  0  0  2  1 0.73231086D+03 0.00000000D+00  -5  6  0 0.00000000D+00 0.00000000D+00 0.00000000D+00 0.00000000D+00 0.00000000D+00
  <mgrwgt>
 0.3389119005D-02    1    2    0
 0.466287780954669D+03 0.000000000000000D+00 0.000000000000000D+00 0.466287780954669D+03
 0.466287780954669D+03 0.000000000000000D+00 0.000000000000000D+00 -.466287780954669D+03
 0.470534558774531D+03 0.711616341588518D+02 0.433459509000580D+03 0.113254787457132D+03
 0.250745167474919D+03 0.244212199856465D+01 -.238926474316357D+03 -.760349585580502D+02
 0.211295835659888D+03 -.736037561574165D+02 -.194533034684223D+03 -.372198288990817D+02
 0.000000000000000D+00 0.000000000000000D+00 -.000000000000000D+00 -.000000000000000D+00
 0.468382130371824D+03 0.000000000000000D+00 0.000000000000000D+00 0.468382130371824D+03
 0.856905095928962D+03 0.000000000000000D+00 0.000000000000000D+00 -.856905095928962D+03
 0.493134235558210D+03 0.693166356533349D+02 0.458175655638013D+03 0.113254787457132D+03
 0.238803687698081D+03 0.150485297887297D+01 -.226370540823646D+03 -.760349585580502D+02
 0.201872222567707D+03 -.743947898138348D+02 -.183936113446229D+03 -.372198288990817D+02
 0.391477080476789D+03 0.357330118162693D+01 -.478690013681376D+02 -.388522965557138D+03
0.280503706878D-03 0.000000000000D+00 0.000000000000D+00 0.406184032229D-05 0.131256480246D-07  6 -1 2 25 -1 2 21 2 0.37956971D-01 0.25027345D+00 0.22692931D+06 0.22692931D+06 0.22692931D+06 0.10936366D+01  1  2  1  2  6  2        2 0.338911900532D-02 0.100000000000D+01
  </mgrwgt>
  </event>
  <event>
  7     66 0.16841828E-05 0.41965021E+02 0.75467711E-02 0.93285304E-01
       21 -1    0    0  503  501 0.00000000E+00 0.00000000E+00 0.87981403E+02 0.87984600E+02 0.75000000E+00 0.0000E+00 0.9000E+01
        2 -1    0    0  501    0 0.00000000E+00 0.00000000E+00 -.37721055E+04 0.37721055E+04 0.32000000E+00 0.0000E+00 0.9000E+01
       24  2    1    2    0    0 -.27255786E+03 -.48410546E+03 -.19505974E+04 0.20298583E+04 0.82755503E+02 0.0000E+00 0.0000E+00
       25  1    1    2    0    0 0.24788265E+03 0.42503047E+03 -.16408741E+04 0.17176116E+04 0.12500000E+03 0.0000E+00 0.9000E+01
       -1  1    3    3    0  502 -.20691960E+03 -.37898943E+03 -.13808137E+04 0.14467533E+04 0.32000000E+00 0.0000E+00 0.9000E+01
        2  1    3    3  502    0 -.65638260E+02 -.10511604E+03 -.56978377E+03 0.58310497E+03 0.32000000E+00 0.0000E+00 0.9000E+01
        1  1    1    2  503    0 0.24675201E+02 0.59074992E+02 -.92652599E+02 0.11262028E+03 0.32000000E+00 0.0000E+00 0.9000E+01
#aMCatNLO 2  0  0  1  5 0.64490550D+02 0.00000000D+00  -5  6  0 0.00000000D+00 0.00000000D+00 0.00000000D+00 0.00000000D+00 0.00000000D+00
  <mgrwgt>
 0.3167043326D-03    1    2    0
 0.534032756309064D+03 0.000000000000000D+00 0.000000000000000D+00 0.534032756309064D+03
 0.534032756309064D+03 0.000000000000000D+00 0.000000000000000D+00 -.534032756309064D+03
 0.538141365198504D+03 0.259956100463417D+03 0.453935550995917D+03 0.183431270942677D+02
 0.407298510633037D+03 -.197232307141802D+03 -.355796087415956D+03 0.200159427184960D+02
 0.122625636786586D+03 -.627237933216148D+02 -.981394635799619D+02 -.383590698127636D+02
 0.000000000000000D+00 0.000000000000000D+00 0.000000000000000D+00 0.000000000000000D+00
 0.603469451878410D+03 0.000000000000000D+00 0.000000000000000D+00 0.603469451878410D+03
 0.549954875789296D+03 0.000000000000000D+00 0.000000000000000D+00 -.549954875789296D+03
 0.507994272060090D+03 0.247882654615862D+03 0.425030469113518D+03 0.183431270942677D+02
 0.432265335669074D+03 -.206921709044270D+03 -.378993520768344D+03 0.200159427184960D+02
 0.129722943287839D+03 -.656361469474027D+02 -.105111940293472D+03 -.383590698127636D+02
 0.834417766507039D+02 0.246752013758108D+02 0.590749919482981D+02 0.535145760891147D+02
0.807633815679D-05 0.000000000000D+00 0.000000000000D+00 0.442731327663D-04 0.134103989958D-08  6 21 2 25 -1 2 1 2 0.13535840D-01 0.58032385D+00 0.31776206D+06 0.31776206D+06 0.31776206D+06 0.10827085D+01  1  2  1  5  6  1       -1 0.316704332629D-03 0.100000000000D+01
  </mgrwgt>
  </event>
  <event>
  7     66 0.16841828E-05 0.19155649E+03 0.75467711E-02 0.89320365E-01
       -1 -1    0    0    0  503 0.00000000E+00 0.00000000E+00 0.22561030E+03 0.22561053E+03 0.32000000E+00 0.0000E+00 0.9000E+01
        2 -1    0    0  501    0 0.00000000E+00 0.00000000E+00 -.32329969E+04 0.32329970E+04 0.32000000E+00 0.0000E+00 0.9000E+01
       24  2    1    2    0    0 -.20613735E+03 -.98049818E+02 -.73939233E+03 0.77812301E+03 0.81657976E+02 0.0000E+00 0.0000E+00
       25  1    1    2    0    0 -.31975024E+03 0.59726908E+03 -.12972038E+04 0.14687863E+04 0.12500000E+03 0.0000E+00 0.9000E+01
       -1  1    3    3    0  502 -.11302170E+03 -.50888950E+02 -.26745758E+03 0.29478339E+03 0.32000000E+00 0.0000E+00 0.9000E+01
        2  1    3    3  502    0 -.93115646E+02 -.47160868E+02 -.47193475E+03 0.48333962E+03 0.32000000E+00 0.0000E+00 0.9000E+01
       21  1    1    2  501  503 0.52588759E+03 -.49921927E+03 -.97079049E+03 0.12116981E+04 0.75000000E+00 0.0000E+00 0.9000E+01
#aMCatNLO 2  0  0  1  1 0.62922838D+02 0.00000000D+00  -5  6  0 0.00000000D+00 0.00000000D+00 0.00000000D+00 0.00000000D+00 0.00000000D+00
  <mgrwgt>
 0.3121267009D-03    1    2    0
 0.306227092576462D+03 0.000000000000000D+00 0.000000000000000D+00 0.306227092576462D+03
 0.306227092576462D+03 0.000000000000000D+00 0.000000000000000D+00 -.306227092576462D+03
 0.313539456395269D+03 0.194238734983234D+02 0.275294851488384D+03 0.807307165764719D+02
 0.136526586399327D+03 -.253027587834229D+02 -.134159917618028D+03 -.629044135730723D+00
 0.162388142358329D+03 0.587888528509951D+01 -.141134933870356D+03 -.801016724407411D+02
 0.000000000000000D+00 0.000000000000000D+00 -.000000000000000D+00 0.000000000000000D+00
 0.101818210664361D+04 0.000000000000000D+00 0.000000000000000D+00 0.101818210664361D+04
 0.716372356400531D+03 0.000000000000000D+00 0.000000000000000D+00 -.716372356400531D+03
 0.693623115174998D+03 -.319750242999403D+03 0.597269084590807D+03 0.807307165764719D+02
 0.123951848177696D+03 -.113022006309301D+03 -.508890072605282D+02 -.629044135730723D+00
 0.131570842959211D+03 -.931153406184675D+02 -.471608113872129D+02 -.801016724407411D+02
 0.785408656732232D+03 0.525887589927171D+03 -.499219265943066D+03 0.301809750243075D+03
0.218825914247D-03 0.000000000000D+00 0.000000000000D+00 0.168694756794D-03 0.378088938482D-08  6 -1 2 25 -1 2 21 2 0.34709288D-01 0.49738405D+00 0.67432159D+06 0.67432159D+06 0.67432159D+06 0.10594493D+01  1  2  1  1  6  1       -1 0.312126700914D-03 0.100000000000D+01
  </mgrwgt>
  </event>
  <event>
  6     66 0.16841828E-05 0.67288542E+02 0.75467711E-02 0.90526710E-01
       -1 -1    0    0    0  501 0.00000000E+00 0.00000000E+00 0.19921133E+03 0.19921158E+03 0.32000000E+00 0.0000E+00 0.9000E+01
        2 -1    0    0  501    0 -.00000000E+00 -.00000000E+00 -.35288220E+04 0.35288221E+04 0.32000000E+00 0.0000E+00 0.9000E+01
       25  1    1    2    0    0 0.53510846E+03 -.48190193E+03 -.25500765E+04 0.26527506E+04 0.12500000E+03 0.0000E+00 0.9000E+01
       -1  1    1    2    0  503 -.61682446E+01 0.20204446E+02 -.10388721E+02 0.23543466E+02 0.32000000E+00 0.0000E+00 0.9000E+01
        2  1    1    2  502    0 -.39694050E+03 0.39379056E+03 -.67262050E+03 0.87467205E+03 0.32000000E+00 0.0000E+00 0.9000E+01
       21  1    1    2  503  502 -.13199971E+03 0.67906933E+02 -.96525024E+02 0.17706755E+03 0.75000000E+00 0.0000E+00 0.9000E+01
#aMCatNLO 2  0  0  4  5 0.12535315D+01 0.00000000D+00  -5  6  0 0.00000000D+00 0.00000000D+00 0.00000000D+00 0.00000000D+00 0.00000000D+00
  <mgrwgt>
 0.5944240412D-01    1    2    0
 0.838440112819489D+03 0.000000000000000D+00 0.000000000000000D+00 0.838440112819489D+03
 0.838440112819489D+03 -.000000000000000D+00 -.000000000000000D+00 -.838440112819489D+03
 0.836151460915465D+03 0.536378430028060D+03 -.482711818498695D+03 -.403499375059469D+03
 0.233096856762039D+03 -.140344077339656D+03 0.894923843300754D+02 0.163183325541984D+03
 0.607631907961475D+03 -.396034352688404D+03 0.393219434168619D+03 0.240316049517485D+03
 0.000000000000000D+00 -.000000000000000D+00 0.000000000000000D+00 0.000000000000000D+00
 0.838440112819489D+03 0.000000000000000D+00 0.000000000000000D+00 0.838440112819489D+03
 0.838440112819489D+03 -.000000000000000D+00 -.000000000000000D+00 -.838440112819489D+03
 0.834207263101588D+03 0.535140475707090D+03 -.481922419430523D+03 -.402059959112646D+03
 0.309936939918868D+02 -.602163250611660D+01 0.197486456477223D+02 0.231157955585504D+02
 0.609006623294450D+03 -.396936040993539D+03 0.393794408459510D+03 0.241364476348339D+03
 0.202672645251054D+03 -.132182802207434D+03 0.683793653232907D+02 0.137579687205757D+03
0.524255547115D-01 0.000000000000D+00 0.000000000000D+00 0.214566277130D-07 0.549357972416D-08  6 -1 2 25 -1 2 21 2 0.30647917D-01 0.54289572D+00 0.53255511D+06 0.53255511D+06 0.53255511D+06 0.10665797D+01  1  2  1  3  6  4       -1 0.594424041199D-01 0.100000000000D+01
  </mgrwgt>
  </event>
  <event>
  7     66 0.16841828E-05 0.75482512E+02 0.75467711E-02 0.92868167E-01
       -1 -1    0    0    0  503 0.00000000E+00 0.00000000E+00 0.53146053E+03 0.53146063E+03 0.32000000E+00 0.0000E+00 0.9000E+01
        2 -1    0    0  501    0 0.00000000E+00 0.00000000E+00 -.10372681E+04 0.10372682E+04 0.32000000E+00 0.0000E+00 0.9000E+01
       24  2    1    2    0    0 -.29692231E+03 -.48467151E+03 -.12577574E+03 0.59200253E+03 0.10760174E+03 0.0000E+00 0.0000E+00
       25  1    1    2    0    0 0.30971216E+03 0.47733505E+03 -.55293056E+03 0.80319834E+03 0.12500000E+03 0.0000E+00 0.9000E+01
       -1  1    3    3    0  502 -.21955911E+03 -.28572237E+03 -.42353142E+02 0.36281864E+03 0.32000000E+00 0.0000E+00 0.9000E+01
        2  1    3    3  502    0 -.77363197E+02 -.19894913E+03 -.83422602E+02 0.22918389E+03 0.32000000E+00 0.0000E+00 0.9000E+01
       21  1    1    2  501  503 -.12789857E+02 0.73364540E+01 0.17289872E+03 0.17352791E+03 0.75000000E+00 0.0000E+00 0.9000E+01
#aMCatNLO 2  0  0  1  2 0.19829024D+01 0.00000000D+00  -5  6  0 0.00000000D+00 0.00000000D+00 0.00000000D+00 0.00000000D+00 0.00000000D+00
  <mgrwgt>
 0.1208625377D-02    1    2    0
 0.609451769399559D+03 0.000000000000000D+00 0.000000000000000D+00 0.609451769399559D+03
 0.609451769399559D+03 0.000000000000000D+00 0.000000000000000D+00 -.609451769399559D+03
 0.611111822913961D+03 0.303298314663212D+03 0.481014144682564D+03 -.185656093471185D+03
 0.392297972370768D+03 -.223673326218408D+03 -.283363904817851D+03 0.153534490297749D+03
 0.215493743514390D+03 -.796249884448042D+02 -.197650239864713D+03 0.321216031734361D+02
 0.000000000000000D+00 -.000000000000000D+00 0.000000000000000D+00 0.000000000000000D+00
 0.904188420116644D+03 0.000000000000000D+00 0.000000000000000D+00 0.904188420116644D+03
 0.609680791042480D+03 0.000000000000000D+00 0.000000000000000D+00 -.609680791042480D+03
 0.611443843403666D+03 0.309712169268356D+03 0.477335061356648D+03 -.185656093471185D+03
 0.391685225216356D+03 -.219560340298229D+03 -.285723175311217D+03 0.153534490297749D+03
 0.215863647066344D+03 -.773619719930690D+02 -.198948340087811D+03 0.321216031734361D+02
 0.294876495472757D+03 -.127898569770579D+02 0.733645404237917D+01 0.294507629074164D+03
0.203039381377D-03 0.000000000000D+00 0.000000000000D+00 0.318252025895D-06 0.984011572295D-08  6 -1 2 25 -1 2 21 2 0.81763106D-01 0.15957960D+00 0.34288102D+06 0.34288102D+06 0.34288102D+06 0.10802851D+01  1  2  1  1  6  1       -1 0.120862537681D-02 0.100000000000D+01
  </mgrwgt>
  </event>
  <event>
  7     66 0.16841828E-05 0.33403497E+02 0.75467711E-02 0.94626490E-01
       -1 -1    0    0    0  503 0.00000000E+00 0.00000000E+00 0.16103953E+03 0.16103985E+03 0.32000000E+00 0.0000E+00 0.9000E+01
        2 -1    0    0  501    0 0.00000000E+00 0.00000000E+00 -.21777891E+04 0.21777891E+04 0.32000000E+00 0.0000E+00 0.9000E+01
       24  2    1    2    0    0 0.42192300E+03 -.24816754E+03 -.56510075E+03 0.75190338E+03 0.80085525E+02 0.0000E+00 0.0000E+00
       25  1    1    2    0    0 -.41727165E+03 0.23558793E+03 -.14772323E+04 0.15580300E+04 0.12500000E+03 0.0000E+00 0.9000E+01
       -1  1    3    3    0  502 0.75573455E+02 -.63959637E+02 -.75390580E+02 0.12444286E+03 0.32000000E+00 0.0000E+00 0.9000E+01
        2  1    3    3  502    0 0.34634954E+03 -.18420790E+03 -.48971017E+03 0.62746052E+03 0.32000000E+00 0.0000E+00 0.9000E+01
       21  1    1    2  501  503 -.46513437E+01 0.12579610E+02 0.25583433E+02 0.28895608E+02 0.75000000E+00 0.0000E+00 0.9000E+01
#aMCatNLO 2  0  0  1  2 0.81288591D+02 0.00000000D+00  -5  6  0 0.00000000D+00 0.00000000D+00 0.00000000D+00 0.00000000D+00 0.00000000D+00
  <mgrwgt>
 0.1726627724D-02    1    2    0
 0.539557266186632D+03 0.000000000000000D+00 0.000000000000000D+00 0.539557266186632D+03
 0.539557266186632D+03 0.000000000000000D+00 0.000000000000000D+00 -.539557266186632D+03
 0.543825260211981D+03 -.419605745733463D+03 0.241900511923556D+03 -.213391832372314D+03
 0.122619914006306D+03 0.750383314426926D+02 -.625221610119318D+02 0.741341453556229D+02
 0.412669358154976D+03 0.344567414290771D+03 -.179378350911625D+03 0.139257687016691D+03
 0.000000000000000D+00 -.000000000000000D+00 0.000000000000000D+00 0.000000000000000D+00
 0.649450890159146D+03 0.000000000000000D+00 0.000000000000000D+00 0.649450890159146D+03
 0.540008310785918D+03 0.000000000000000D+00 0.000000000000000D+00 -.540008310785918D+03
 0.539238703152289D+03 -.417271652336989D+03 0.235587930527241D+03 -.213391832372314D+03
 0.123681667003862D+03 0.755691319431463D+02 -.639577168338965D+02 0.741341453556229D+02
 0.416277505850167D+03 0.346353864091291D+03 -.184209824147977D+03 0.139257687016691D+03
 0.110261324938745D+03 -.465134369744850D+01 0.125796104546327D+02 0.109442579373228D+03
0.140180164160D-03 0.000000000000D+00 0.000000000000D+00 0.195852736182D-03 0.703337388826D-05  6 -1 2 25 -1 2 21 2 0.24775280D-01 0.33504371D+00 0.24996323D+06 0.24996323D+06 0.24996323D+06 0.10904639D+01  1  2  1  1  6  1       -1 0.172662772377D-02 0.100000000000D+01
  </mgrwgt>
  </event>
  <event>
  7     66 0.16841828E-05 0.51809989E+02 0.75467711E-02 0.89222899E-01
       21 -1    0    0  503  501 0.00000000E+00 0.00000000E+00 0.63977655E+03 0.63977699E+03 0.75000000E+00 0.0000E+00 0.9000E+01
        2 -1    0    0  501    0 0.00000000E+00 0.00000000E+00 -.18460739E+04 0.18460740E+04 0.32000000E+00 0.0000E+00 0.9000E+01
       24  2    1    2    0    0 -.79417405E+03 -.12951332E+03 -.66247819E+03 0.10453127E+04 0.79467525E+02 0.0000E+00 0.0000E+00
       25  1    1    2    0    0 0.74990854E+03 0.18346989E+03 -.83326654E+03 0.11427958E+04 0.12500000E+03 0.0000E+00 0.9000E+01
       -1  1    3    3    0  502 -.66350127E+03 -.87883772E+02 -.52005521E+03 0.84759366E+03 0.32000000E+00 0.0000E+00 0.9000E+01
        2  1    3    3  502    0 -.13067277E+03 -.41629549E+02 -.14242298E+03 0.19771900E+03 0.32000000E+00 0.0000E+00 0.9000E+01
        1  1    1    2  503    0 0.44265510E+02 -.53956565E+02 0.28944735E+03 0.29774253E+03 0.32000000E+00 0.0000E+00 0.9000E+01
#aMCatNLO 2  0  0  1  2 0.81288591D+02 0.00000000D+00  -5  6  0 0.00000000D+00 0.00000000D+00 0.00000000D+00 0.00000000D+00 0.00000000D+00
  <mgrwgt>
 0.1605069006D-03    1    2    0
 0.797761773483331D+03 0.000000000000000D+00 0.000000000000000D+00 0.797761773483331D+03
 0.797761773483331D+03 0.000000000000000D+00 0.000000000000000D+00 -.797761773483331D+03
 0.800679283681661D+03 0.771898765641341D+03 0.156665331213608D+03 -.713483350477214D+02
 0.659433849305522D+03 -.645018526773715D+03 -.110424231777400D+03 0.813055395710172D+02
 0.135410413979479D+03 -.126880238867626D+03 -.462410994362076D+02 -.995720452329580D+01
 0.000000000000000D+00 0.000000000000000D+00 -.000000000000000D+00 0.000000000000000D+00
 0.147574890394030D+04 0.000000000000000D+00 0.000000000000000D+00 0.147574890394030D+04
 0.800322653159326D+03 0.000000000000000D+00 0.000000000000000D+00 -.800322653159326D+03
 0.785327699889324D+03 0.749908536032793D+03 0.183469885497671D+03 -.713483350477214D+02
 0.674225248943884D+03 -.663509914323600D+03 -.878845216337719D+02 0.813055395710172D+02
 0.137496247410654D+03 -.130664131503558D+03 -.416287985475673D+02 -.995720452329580D+01
 0.679022360855766D+03 0.442655097943659D+02 -.539565653163317D+02 0.675426250780977D+03
0.182683625595D-04 0.000000000000D+00 0.000000000000D+00 0.106336947613D-03 0.104635418545D-07  6 21 2 25 -1 2 1 2 0.98427193D-01 0.28401140D+00 0.68749870D+06 0.68749870D+06 0.68749870D+06 0.10588711D+01  1  2  1  5  6  1       -1 0.160506900640D-03 0.100000000000D+01
  </mgrwgt>
  </event>
  <event>
  7     66 0.16841828E-05 0.17845266E+03 0.75467711E-02 0.91708868E-01
       -1 -1    0    0    0  503 0.00000000E+00 0.00000000E+00 0.42679315E+03 0.42679327E+03 0.32000000E+00 0.0000E+00 0.9000E+01
        2 -1    0    0  501    0 0.00000000E+00 0.00000000E+00 -.10398966E+04 0.10398966E+04 0.32000000E+00 0.0000E+00 0.9000E+01
       24  2    1    2    0    0 0.56259554E+03 0.48137362E+01 -.13021945E+03 0.58293060E+03 0.79461078E+02 0.0000E+00 0.0000E+00
       25  1    1    2    0    0 -.48106458E+03 -.19423485E+03 -.33684141E+03 0.63106057E+03 0.12500000E+03 0.0000E+00 0.9000E+01
       -1  1    3    3    0  502 0.37830549E+03 -.16971049E+02 -.11931079E+03 0.39703681E+03 0.32000000E+00 0.0000E+00 0.9000E+01
        2  1    3    3  502    0 0.18429005E+03 0.21784785E+02 -.10908657E+02 0.18589379E+03 0.32000000E+00 0.0000E+00 0.9000E+01
       21  1    1    2  501  503 -.81530959E+02 0.18942111E+03 -.14604259E+03 0.25269875E+03 0.75000000E+00 0.0000E+00 0.9000E+01
#aMCatNLO 2  0  0  1  4 0.25918665D+02 0.00000000D+00  -5  6  0 0.00000000D+00 0.00000000D+00 0.00000000D+00 0.00000000D+00 0.00000000D+00
  <mgrwgt>
 0.2610930345D-03    1    2    0
 0.550704332516783D+03 0.000000000000000D+00 0.000000000000000D+00 0.550704332516783D+03
 0.550704332516783D+03 0.000000000000000D+00 0.000000000000000D+00 -.550704332516783D+03
 0.554931163721884D+03 -.521361745557971D+03 -.100612327769637D+03 -.101895467216383D+03
 0.356106197485775D+03 0.351283113411438D+03 0.458167953658219D+02 0.362300894582188D+02
 0.190371303825906D+03 0.170078632146533D+03 0.547955324038155D+02 0.656653777581640D+02
 0.000000000000000D+00 -.000000000000000D+00 0.000000000000000D+00 -.000000000000000D+00
 0.640276591176504D+03 0.000000000000000D+00 0.000000000000000D+00 0.640276591176504D+03
 0.693169144007941D+03 0.000000000000000D+00 0.000000000000000D+00 -.693169144007941D+03
 0.543284449732625D+03 -.481064579807681D+03 -.194234850468435D+03 -.101895467216383D+03
 0.380418296653336D+03 0.378308634862652D+03 -.169716774312966D+02 0.362300894582188D+02
 0.196845647559076D+03 0.184286903710074D+03 0.217854136472938D+02 0.656653777581640D+02
 0.212897341239408D+03 -.815309587650442D+02 0.189421114252438D+03 -.528925528314374D+02
0.290089644529D-04 0.000000000000D+00 0.000000000000D+00 0.101324053397D-03 0.153227176766D-07  6 -1 2 25 -1 2 21 2 0.65660431D-01 0.15998394D+00 0.42518552D+06 0.42518552D+06 0.42518552D+06 0.10735211D+01  1  2  1  1  6  1       -1 0.261093034499D-03 0.100000000000D+01
  </mgrwgt>
  </event>
  <event>
  6     66 0.16841828E-05 0.17601978E+02 0.75467711E-02 0.94354681E-01
       -1 -1    0    0    0  501 0.00000000E+00 0.00000000E+00 0.26400413E+03 0.26400433E+03 0.32000000E+00 0.0000E+00 0.9000E+01
        2 -1    0    0  501    0 0.00000000E+00 0.00000000E+00 -.10792674E+04 0.10792674E+04 0.32000000E+00 0.0000E+00 0.9000E+01
       24  2    1    2    0    0 -.15650870E+03 -.47287614E+03 -.20461252E+03 0.54538321E+03 0.86427655E+02 0.0000E+00 0.0000E+00
       25  1    1    2    0    0 0.15650870E+03 0.47287614E+03 -.61065070E+03 0.79788853E+03 0.12500000E+03 0.0000E+00 0.9000E+01
       -1  1    3    3    0  502 -.15960976E+03 -.45274822E+03 -.17828242E+03 0.51209467E+03 0.32000000E+00 0.0000E+00 0.9000E+01
        2  1    3    3  502    0 0.31010627E+01 -.20127918E+02 -.26330107E+02 0.33288536E+02 0.32000000E+00 0.0000E+00 0.9000E+01
#aMCatNLO 1  0  0  1  2 0.10193217D+02 0.00000000D+00  -5  6  0 0.00000000D+00 0.00000000D+00 0.00000000D+00 0.00000000D+00 0.00000000D+00
  <mgrwgt>
 0.5110889495D-03   11    2    0
 0.533789476486734D+03 0.000000000000000D+00 0.000000000000000D+00 0.533789476486734D+03
 0.533789476486734D+03 0.000000000000000D+00 0.000000000000000D+00 -.533789476486734D+03
 0.537608988792880D+03 0.156508699357871D+03 0.472876142725249D+03 -.159033347124119D+03
 0.508198776647915D+03 -.159611991700795D+03 -.452754155359272D+03 0.166744365711870D+03
 0.217711875326731D+02 0.310329234292430D+01 -.201219873659766D+02 -.771101858775114D+01
 0.000000000000000D+00 -.000000000000000D+00 0.000000000000000D+00 0.000000000000000D+00
 0.561860559445329D+03 0.000000000000000D+00 0.000000000000000D+00 0.561860559445329D+03
 0.534739954261238D+03 0.000000000000000D+00 0.000000000000000D+00 -.534739954261238D+03
 0.534531312620492D+03 0.159142727576147D+03 0.468487684933030D+03 -.159033347124119D+03
 0.511144143624059D+03 -.157107675789383D+03 -.456926504235175D+03 0.166744365711870D+03
 0.219521579143258D+02 0.321071161030283D+01 -.203009546669687D+02 -.771101858775114D+01
 0.289728995476906D+02 -.524576339706685D+01 0.873977396911370D+01 0.271206051840914D+02
0.164603819568D-05 0.000000000000D+00 0.000000000000D+00 0.206668860128D-05 0.000000000000D+00  6 -1 2 25 -1 2 21 0 0.40616039D-01 0.16604115D+00 0.25703534D+06 0.25703534D+06 0.25703534D+06 0.10895535D+01  1  2  2  1  6  1       -1 0.299235355963D-04 0.100000000000D+01
0.587606926461D-06 0.000000000000D+00 -.632122008322D-08 0.206668860128D-05 0.000000000000D+00  6 -1 2 25 -1 2 21 2 0.40616039D-01 0.16604115D+00 0.25703534D+06 0.25703534D+06 0.25703534D+06 0.10895535D+01  1  2  3  1  6  1       -1 0.126811036431D-04 0.100000000000D+01
-.513067210583D-06 0.000000000000D+00 0.000000000000D+00 0.206668860128D-05 0.000000000000D+00  6 -1 2 25 -1 2 21 2 0.40616039D-01 0.16604115D+00 0.25703534D+06 0.25703534D+06 0.25703534D+06 0.10895535D+01  1  2 15  1  6  1       -1 -.110724672911D-04 0.100000000000D+01
0.395021398736D-04 0.000000000000D+00 0.000000000000D+00 0.206668860128D-05 0.000000000000D+00  6 -1 2 25 -1 2 21 2 0.42787075D-01 0.16604115D+00 0.26227396D+06 0.26227396D+06 0.26227396D+06 0.10888966D+01  1  2 12  1  6  1       -1 0.776311060462D-03 0.100000000000D+01
0.177353706778D-06 0.000000000000D+00 0.000000000000D+00 0.206668860128D-05 0.000000000000D+00  6 -1 2 25 -1 2 21 2 0.42865665D-01 0.16604115D+00 0.26227396D+06 0.26227396D+06 0.26227396D+06 0.10888966D+01  1  2 12  1  6  1       -1 0.347411357288D-05 0.100000000000D+01
-.202497346186D-04 0.000000000000D+00 0.000000000000D+00 0.206668860128D-05 0.000000000000D+00  6 -1 2 25 -1 2 21 2 0.40616039D-01 0.16604115D+00 0.25703534D+06 0.25703534D+06 0.25703534D+06 0.10895535D+01  1  2  4  1  6  1       -1 -.437008094833D-03 0.100000000000D+01
-.917218073576D-04 0.000000000000D+00 -.491465342160D-05 0.206668860128D-05 0.000000000000D+00  6 -1 2 25 -1 2 21 2 0.42795087D-01 0.16604115D+00 0.25703534D+06 0.25703534D+06 0.25703534D+06 0.10895535D+01  1  2  5  1  6  1       -1 -.180520528941D-02 0.100000000000D+01
0.918598826781D-04 0.000000000000D+00 0.490794975612D-05 0.206668860128D-05 0.000000000000D+00  6 -1 2 25 -1 2 21 2 0.40616039D-01 0.16604115D+00 0.25703534D+06 0.25703534D+06 0.25703534D+06 0.10895535D+01  1  2  6  1  6  1       -1 0.198242165030D-02 0.100000000000D+01
0.670379066593D-06 0.000000000000D+00 0.000000000000D+00 0.206668860128D-05 0.000000000000D+00  6 21 2 25 -1 2 1 2 0.42787075D-01 0.16604115D+00 0.26227396D+06 0.26227396D+06 0.26227396D+06 0.10888966D+01  1  2 12  5  6  1       -1 0.125353993942D-03 0.100000000000D+01
0.310769517487D-08 0.000000000000D+00 0.000000000000D+00 0.206668860128D-05 0.000000000000D+00  6 21 2 25 -1 2 1 2 0.42865665D-01 0.16604115D+00 0.26227396D+06 0.26227396D+06 0.26227396D+06 0.10888966D+01  1  2 12  5  6  1       -1 0.578870218102D-06 0.100000000000D+01
-.887985672863D-06 0.000000000000D+00 -.445991117313D-07 0.206668860128D-05 0.000000000000D+00  6 21 2 25 -1 2 1 2 0.42795087D-01 0.16604115D+00 0.25703534D+06 0.25703534D+06 0.25703534D+06 0.10895535D+01  1  2  5  5  6  1       -1 -.166369526687D-03 0.100000000000D+01
  </mgrwgt>
  </event>
  <event>
  7     66 0.16841828E-05 0.28749065E+02 0.75467711E-02 0.93568974E-01
       -1 -1    0    0    0  501 0.00000000E+00 0.00000000E+00 0.15251383E+03 0.15251417E+03 0.32000000E+00 0.0000E+00 0.9000E+01
        2 -1    0    0  503    0 0.00000000E+00 0.00000000E+00 -.19944712E+04 0.19944712E+04 0.32000000E+00 0.0000E+00 0.9000E+01
       24  2    1    2    0    0 0.17286078E+03 -.51039841E+03 -.88729859E+03 0.10411207E+04 0.79032314E+02 0.0000E+00 0.0000E+00
       25  1    1    2    0    0 -.15769876E+03 0.48114050E+03 -.86166865E+03 0.10072055E+04 0.12500000E+03 0.0000E+00 0.9000E+01
       -1  1    3    3    0  502 0.10197546E+02 -.13302509E+03 -.20316948E+03 0.24305885E+03 0.32000000E+00 0.0000E+00 0.9000E+01
        2  1    3    3  502    0 0.16266324E+03 -.37737331E+03 -.68412911E+03 0.79806183E+03 0.32000000E+00 0.0000E+00 0.9000E+01
       21  1    1    2  503  501 -.15162026E+02 0.29257901E+02 -.92990123E+02 0.98659198E+02 0.75000000E+00 0.0000E+00 0.9000E+01
#aMCatNLO 2  0  0  2  2 0.30083134D+02 0.00000000D+00  -5  6  0 0.00000000D+00 0.00000000D+00 0.00000000D+00 0.00000000D+00 0.00000000D+00
  <mgrwgt>
 0.1017140824D-02    1    2    0
 0.532838598210538D+03 0.000000000000000D+00 0.000000000000000D+00 0.532838598210538D+03
 0.532838598210538D+03 0.000000000000000D+00 0.000000000000000D+00 -.532838598210538D+03
 0.537239036435225D+03 -.165228872360538D+03 0.495671240509495D+03 -.319739582986857D+01
 0.129941512012534D+03 0.832018116632350D+01 -.129403193173452D+03 0.838956053542028D+01
 0.398496647973316D+03 0.156908691194215D+03 -.366268047336043D+03 -.519216470555171D+01
 0.000000000000000D+00 -.000000000000000D+00 0.000000000000000D+00 -.000000000000000D+00
 0.543184905876969D+03 0.000000000000000D+00 0.000000000000000D+00 0.543184905876969D+03
 0.559994605469692D+03 0.000000000000000D+00 0.000000000000000D+00 -.559994605469692D+03
 0.521536485761538D+03 -.157698756261698D+03 0.481140504337262D+03 -.319739582986857D+01
 0.133674729975949D+03 0.101950459191417D+02 -.133021087602199D+03 0.838956053542028D+01
 0.410975352736288D+03 0.162665736022242D+03 -.377377318219748D+03 -.519216470555171D+01
 0.369929428728859D+02 -.151620256796859D+02 0.292579014846851D+02 -.168096995927234D+02
0.609687966469D-04 0.000000000000D+00 0.000000000000D+00 0.823218773932D-04 0.475467402804D-06  6 -1 2 25 -1 2 21 2 0.23463532D-01 0.30683962D+00 0.30185883D+06 0.30185883D+06 0.30185883D+06 0.10843534D+01  1  2  1  2  6  2        2 0.101714082412D-02 0.100000000000D+01
  </mgrwgt>
  </event>
  <event>
  7     66 0.16841828E-05 0.69269000E+02 0.75467711E-02 0.92648391E-01
       -1 -1    0    0    0  501 0.00000000E+00 0.00000000E+00 0.19447331E+03 0.19447357E+03 0.32000000E+00 0.0000E+00 0.9000E+01
        2 -1    0    0  503    0 0.00000000E+00 0.00000000E+00 -.20514933E+04 0.20514934E+04 0.32000000E+00 0.0000E+00 0.9000E+01
       24  2    1    2    0    0 0.51959600E+03 -.17772214E+03 -.80057045E+03 0.97420132E+03 0.81178835E+02 0.0000E+00 0.0000E+00
       25  1    1    2    0    0 -.46089590E+03 0.26023271E+03 -.62453679E+03 0.82814087E+03 0.12500000E+03 0.0000E+00 0.9000E+01
       -1  1    3    3    0  502 0.19515884E+03 -.81399918E+02 -.24465503E+03 0.32337147E+03 0.32000000E+00 0.0000E+00 0.9000E+01
        2  1    3    3  502    0 0.32443717E+03 -.96322218E+02 -.55591542E+03 0.65082985E+03 0.32000000E+00 0.0000E+00 0.9000E+01
       21  1    1    2  503  501 -.58700105E+02 -.82510579E+02 -.43191279E+03 0.44362475E+03 0.75000000E+00 0.0000E+00 0.9000E+01
#aMCatNLO 2  0  0  2  2 0.30083134D+02 0.00000000D+00  -5  6  0 0.00000000D+00 0.00000000D+00 0.00000000D+00 0.00000000D+00 0.00000000D+00
  <mgrwgt>
 0.4462939020D-03    1    2    0
 0.549375330573207D+03 0.000000000000000D+00 0.000000000000000D+00 0.549375330573207D+03
 0.549375330573207D+03 0.000000000000000D+00 0.000000000000000D+00 -.549375330573207D+03
 0.553486817003028D+03 -.490205959002863D+03 0.219033637140699D+03 0.494473473013796D+02
 0.208805069968332D+03 0.183934121054012D+03 -.971746492227170D+02 0.180245361940254D+02
 0.336458774175054D+03 0.306271837948851D+03 -.121858987917982D+03 -.674718834954050D+02
 0.000000000000000D+00 -.000000000000000D+00 -.000000000000000D+00 -.000000000000000D+00
 0.568831267766267D+03 0.000000000000000D+00 0.000000000000000D+00 0.568831267766267D+03
 0.701367681630871D+03 0.000000000000000D+00 0.000000000000000D+00 -.701367681630871D+03
 0.546091690011916D+03 -.460895897058562D+03 0.260232714737234D+03 0.494473473013796D+02
 0.212219179352713D+03 0.195156827526470D+03 -.813996858097909D+02 0.180245361940254D+02
 0.345095997232760D+03 0.324439174288143D+03 -.963224502952637D+02 -.674718834954050D+02
 0.166792082799749D+03 -.587001047560512D+02 -.825105786321796D+02 -.132536413864604D+03
0.438701993607D-04 0.000000000000D+00 0.000000000000D+00 0.228242608078D-03 0.142106277916D-06  6 -1 2 25 -1 2 21 2 0.29918950D-01 0.31561393D+00 0.35700452D+06 0.35700452D+06 0.35700452D+06 0.10790060D+01  1  2  1  2  6  2        2 0.446293901953D-03 0.100000000000D+01
  </mgrwgt>
  </event>
  <event>
  7     66 0.16841828E-05 0.40234895E+02 0.75467711E-02 0.93395364E-01
       -1 -1    0    0    0  503 0.00000000E+00 0.00000000E+00 0.13028832E+04 0.13028832E+04 0.32000000E+00 0.0000E+00 0.9000E+01
        2 -1    0    0  501    0 0.00000000E+00 0.00000000E+00 -.29489635E+03 0.29489652E+03 0.32000000E+00 0.0000E+00 0.9000E+01
       24  2    1    2    0    0 0.26931068E+03 0.40202596E+03 0.42729684E+03 0.65056882E+03 0.80647948E+02 0.0000E+00 0.0000E+00
       25  1    1    2    0    0 -.34309810E+03 -.41631238E+03 0.24910743E+03 0.60721645E+03 0.12500000E+03 0.0000E+00 0.9000E+01
       -1  1    3    3    0  502 0.17777329E+03 0.21432925E+03 0.20660461E+03 0.34673612E+03 0.32000000E+00 0.0000E+00 0.9000E+01
        2  1    3    3  502    0 0.91537386E+02 0.18769671E+03 0.22069224E+03 0.30383270E+03 0.32000000E+00 0.0000E+00 0.9000E+01
       21  1    1    2  501  503 0.73787424E+02 0.14286424E+02 0.33158257E+03 0.33999448E+03 0.75000000E+00 0.0000E+00 0.9000E+01
#aMCatNLO 2  0  0  1  2 0.46059594D+02 0.00000000D+00  -5  6  0 0.00000000D+00 0.00000000D+00 0.00000000D+00 0.00000000D+00 0.00000000D+00
  <mgrwgt>
 0.3866548357D-03    1    2    0
 0.528879087164378D+03 0.000000000000000D+00 0.000000000000000D+00 0.528879087164378D+03
 0.528879087164378D+03 0.000000000000000D+00 0.000000000000000D+00 -.528879087164378D+03
 0.533190520905379D+03 -.304970136499503D+03 -.408930196480289D+03 -.918501052444474D+02
 0.295485193323448D+03 0.197803856048182D+03 0.218207642740439D+03 0.238863696598375D+02
 0.229082460099930D+03 0.107166280451322D+03 0.190722553739849D+03 0.679637355846099D+02
 0.000000000000000D+00 0.000000000000000D+00 0.000000000000000D+00 0.000000000000000D+00
 0.714308521832130D+03 0.000000000000000D+00 0.000000000000000D+00 0.714308521832130D+03
 0.537883307481907D+03 0.000000000000000D+00 0.000000000000000D+00 -.537883307481907D+03
 0.561332115648848D+03 -.343098098666938D+03 -.416312379009474D+03 -.918501052444474D+02
 0.279484507968418D+03 0.177774646705108D+03 0.214329667866342D+03 0.238863696598375D+02
 0.219608310618425D+03 0.915360283583318D+02 0.187696287258023D+03 0.679637355846099D+02
 0.191766895078346D+03 0.737874236034976D+02 0.142864238851090D+02 0.176425214350223D+03
0.157519527328D-03 0.000000000000D+00 0.000000000000D+00 0.205234710783D-03 0.236593389007D-06  6 -1 2 25 -1 2 21 2 0.20044331D+00 0.45368624D-01 0.31148296D+06 0.31148296D+06 0.31148296D+06 0.10833470D+01  1  2  1  1  6  1       -1 0.386654835684D-03 0.100000000000D+01
  </mgrwgt>
  </event>
  <event>
  7     66 0.16841828E-05 0.47607960E+02 0.75467711E-02 0.94249821E-01
       -1 -1    0    0    0  503 0.00000000E+00 0.00000000E+00 0.49574393E+03 0.49574403E+03 0.32000000E+00 0.0000E+00 0.9000E+01
        2 -1    0    0  501    0 0.00000000E+00 0.00000000E+00 -.68075838E+03 0.68075846E+03 0.32000000E+00 0.0000E+00 0.9000E+01
       24  2    1    2    0    0 -.14674455E+02 0.50710436E+03 -.20832200E+02 0.51368613E+03 0.77905646E+02 0.0000E+00 0.0000E+00
       25  1    1    2    0    0 0.23546041E+02 -.49686735E+03 -.25374879E+03 0.57222812E+03 0.12500000E+03 0.0000E+00 0.9000E+01
       -1  1    3    3    0  502 -.54816543E+00 0.16719535E+03 0.29504252E+02 0.16977983E+03 0.32000000E+00 0.0000E+00 0.9000E+01
        2  1    3    3  502    0 -.14126289E+02 0.33990900E+03 -.50336453E+02 0.34390630E+03 0.32000000E+00 0.0000E+00 0.9000E+01
       21  1    1    2  501  503 -.88715869E+01 -.10237007E+02 0.89566538E+02 0.90588237E+02 0.75000000E+00 0.0000E+00 0.9000E+01
#aMCatNLO 2  0  0  1  4 0.68553477D+03 0.00000000D+00  -5  6  0 0.00000000D+00 0.00000000D+00 0.00000000D+00 0.00000000D+00 0.00000000D+00
  <mgrwgt>
 0.1590989985D-02    1    2    0
 0.525269345028540D+03 0.000000000000000D+00 0.000000000000000D+00 0.525269345028540D+03
 0.525269345028540D+03 0.000000000000000D+00 0.000000000000000D+00 -.525269345028540D+03
 0.529817349986360D+03 0.190918146570603D+02 -.502007121930772D+03 -.112719902814243D+03
 0.181581254828153D+03 -.208808465812998D+01 0.165415249122580D+03 0.748677992540317D+02
 0.339140085242567D+03 -.170037299989303D+02 0.336591872808192D+03 0.378521035602111D+02
 0.000000000000000D+00 -.000000000000000D+00 -.000000000000000D+00 0.000000000000000D+00
 0.641956150130040D+03 0.000000000000000D+00 0.000000000000000D+00 0.641956150130040D+03
 0.525706308157021D+03 0.000000000000000D+00 0.000000000000000D+00 -.525706308157021D+03
 0.525130796971171D+03 0.235460414451755D+02 -.496867347859957D+03 -.112719902814243D+03
 0.183190610652446D+03 -.547936339503791D+00 0.167192440713813D+03 0.748677992540317D+02
 0.342304615602475D+03 -.141265182138042D+02 0.339911914474883D+03 0.378521035602111D+02
 0.117036435060969D+03 -.887158689186756D+01 -.102370073287399D+02 0.116249841973018D+03
0.129799236807D-03 0.000000000000D+00 0.000000000000D+00 0.481254219757D-04 0.169099900416D-05  6 -1 2 25 -1 2 21 2 0.76268136D-01 0.10473183D+00 0.26720388D+06 0.26720388D+06 0.26720388D+06 0.10882914D+01  1  2  1  1  6  1       -1 0.159098998459D-02 0.100000000000D+01
  </mgrwgt>
  </event>
  <event>
  7     66 0.16841828E-05 0.57501196E+02 0.75467711E-02 0.93088141E-01
       -1 -1    0    0    0  501 0.00000000E+00 0.00000000E+00 0.37498377E+03 0.37498391E+03 0.32000000E+00 0.0000E+00 0.9000E+01
        2 -1    0    0  503    0 0.00000000E+00 0.00000000E+00 -.99756868E+03 0.99756873E+03 0.32000000E+00 0.0000E+00 0.9000E+01
       24  2    1    2    0    0 0.33225686E+03 0.45684345E+03 -.81131500E+02 0.57635167E+03 0.80612468E+02 0.0000E+00 0.0000E+00
       25  1    1    2    0    0 -.33027705E+03 -.44040613E+03 -.51055543E+03 0.76113884E+03 0.12500000E+03 0.0000E+00 0.9000E+01
       -1  1    3    3    0  502 0.18129112E+03 0.28749726E+03 -.81350008E+02 0.34948401E+03 0.32000000E+00 0.0000E+00 0.9000E+01
        2  1    3    3  502    0 0.15096575E+03 0.16934619E+03 0.21850757E+00 0.22686767E+03 0.32000000E+00 0.0000E+00 0.9000E+01
       21  1    1    2  503  501 -.19798123E+01 -.16437321E+02 -.30897982E+02 0.35062130E+02 0.75000000E+00 0.0000E+00 0.9000E+01
#aMCatNLO 2  0  0  2  2 0.30083134D+02 0.00000000D+00  -5  6  0 0.00000000D+00 0.00000000D+00 0.00000000D+00 0.00000000D+00 0.00000000D+00
  <mgrwgt>
 0.1147879103D-01    1    2    0
 0.599690199332834D+03 0.000000000000000D+00 0.000000000000000D+00 0.599690199332834D+03
 0.599690199332834D+03 0.000000000000000D+00 0.000000000000000D+00 -.599690199332834D+03
 0.603494926365037D+03 -.331267711061774D+03 -.448631054931726D+03 -.193837577128586D+03
 0.345357479017261D+03 0.180718069418499D+03 0.282737458517084D+03 0.816841309564372D+02
 0.250527993283369D+03 0.150549641643276D+03 0.165893596414642D+03 0.112153446172149D+03
 0.000000000000000D+00 -.000000000000000D+00 -.000000000000000D+00 -.000000000000000D+00
 0.603090110154773D+03 0.000000000000000D+00 0.000000000000000D+00 0.603090110154773D+03
 0.620247129766028D+03 0.000000000000000D+00 0.000000000000000D+00 -.620247129766028D+03
 0.596857180225673D+03 -.330277050104340D+03 -.440406127857272D+03 -.193837577128586D+03
 0.349563564145279D+03 0.181291593755384D+03 0.287499123757752D+03 0.816841309564372D+02
 0.253073918338946D+03 0.150965268649047D+03 0.169344324725865D+03 0.112153446172149D+03
 0.238425772109025D+02 -.197981230009046D+01 -.164373206263456D+02 -.171570196112545D+02
0.915821658069D-03 0.000000000000D+00 0.000000000000D+00 0.185381704442D-03 0.422035809099D-05  6 -1 2 25 -1 2 21 2 0.57689264D-01 0.15347062D+00 0.32936823D+06 0.32936823D+06 0.32936823D+06 0.10815637D+01  1  2  1  2  6  2        2 0.114787910291D-01 0.100000000000D+01
  </mgrwgt>
  </event>
  <event>
  6     66 0.16841828E-05 0.87949375E+02 0.75467711E-02 0.92768129E-01
       -1 -1    0    0    0  501 0.00000000E+00 0.00000000E+00 0.53623985E+03 0.53623995E+03 0.32000000E+00 0.0000E+00 0.9000E+01
        2 -1    0    0  501    0 -.00000000E+00 -.00000000E+00 -.72873195E+03 0.72873202E+03 0.32000000E+00 0.0000E+00 0.9000E+01
       25  1    1    2    0    0 -.80860066E+02 0.57802287E+03 -.28260845E+03 0.66040997E+03 0.12500000E+03 0.0000E+00 0.9000E+01
       -1  1    1    2    0  503 0.19193456E+02 -.28202948E+03 0.89083312E+02 0.29638650E+03 0.32000000E+00 0.0000E+00 0.9000E+01
        2  1    1    2  502    0 0.57490134E+02 -.27928142E+03 0.15656741E+02 0.28556691E+03 0.32000000E+00 0.0000E+00 0.9000E+01
       21  1    1    2  503  502 0.41764757E+01 -.16711973E+02 -.14623702E+02 0.22608586E+02 0.75000000E+00 0.0000E+00 0.9000E+01
#aMCatNLO 2  0  0  4  2 0.21575465D+01 0.00000000D+00  -5  6  0 0.00000000D+00 0.00000000D+00 0.00000000D+00 0.00000000D+00 0.00000000D+00
  <mgrwgt>
 0.5842131779D-01    1    2    0
 0.625120164675700D+03 0.000000000000000D+00 0.000000000000000D+00 0.625120164675700D+03
 0.625120164675700D+03 -.000000000000000D+00 -.000000000000000D+00 -.625120164675700D+03
 0.629462967941617D+03 -.812135343778896D+02 0.582541321771830D+03 -.186141339503209D+03
 0.331588121811633D+03 0.238737391773508D+02 -.305291182504335D+03 0.127192849599979D+03
 0.289189239598151D+03 0.573397952005388D+02 -.277250139267495D+03 0.589484899032301D+02
 0.000000000000000D+00 0.000000000000000D+00 0.000000000000000D+00 0.000000000000000D+00
 0.625120164675700D+03 0.000000000000000D+00 0.000000000000000D+00 0.625120164675700D+03
 0.625120164675700D+03 -.000000000000000D+00 -.000000000000000D+00 -.625120164675700D+03
 0.624670255482271D+03 -.808594706172090D+02 0.578013646262890D+03 -.184254983188159D+03
 0.313517573326341D+03 0.191721834329254D+02 -.281938491477613D+03 0.135780643650632D+03
 0.291409731498519D+03 0.575037084525876D+02 -.279346219407031D+03 0.598217755440089D+02
 0.206427690442686D+02 0.418357873169600D+01 -.167289353782459D+02 -.113474360064812D+02
0.623613889069D-02 0.000000000000D+00 0.000000000000D+00 0.295216209328D-05 0.168215413613D-05  6 -1 2 25 -1 2 21 2 0.82498452D-01 0.11211262D+00 0.34923069D+06 0.34923069D+06 0.34923069D+06 0.10797031D+01  1  2  1  3  6  4       -1 0.584213177925D-01 0.100000000000D+01
  </mgrwgt>
  </event>
  <event>
  7     66 0.16841828E-05 0.15700205E+03 0.75467711E-02 0.88851583E-01
       -1 -1    0    0    0  503 0.00000000E+00 0.00000000E+00 0.92631189E+03 0.92631195E+03 0.32000000E+00 0.0000E+00 0.9000E+01
        2 -1    0    0  501    0 0.00000000E+00 0.00000000E+00 -.93496813E+03 0.93496819E+03 0.32000000E+00 0.0000E+00 0.9000E+01
       24  2    1    2    0    0 -.81338851E+03 -.46474515E+02 0.15392702E+03 0.83282667E+03 0.78396341E+02 0.0000E+00 0.0000E+00
       25  1    1    2    0    0 0.68661746E+03 0.18137012E+03 -.31671155E+03 0.78757213E+03 0.12500000E+03 0.0000E+00 0.9000E+01
       -1  1    3    3    0  502 -.53658077E+03 -.28917628E+02 0.63522682E+02 0.54110109E+03 0.32000000E+00 0.0000E+00 0.9000E+01
        2  1    3    3  502    0 -.27680773E+03 -.17556887E+02 0.90404342E+02 0.29172558E+03 0.32000000E+00 0.0000E+00 0.9000E+01
       21  1    1    2  501  503 0.12677105E+03 -.13489561E+03 0.15412829E+03 0.24088133E+03 0.75000000E+00 0.0000E+00 0.9000E+01
#aMCatNLO 2  0  0  1  1 0.46377636D+03 0.00000000D+00  -5  6  0 0.00000000D+00 0.00000000D+00 0.00000000D+00 0.00000000D+00 0.00000000D+00
  <mgrwgt>
 0.3640813152D-03    1    2    0
 0.800769277389281D+03 0.000000000000000D+00 0.000000000000000D+00 0.800769277389281D+03
 0.800769277389281D+03 0.000000000000000D+00 0.000000000000000D+00 -.800769277389281D+03
 0.803728623456677D+03 0.748285350459743D+03 0.115750030340219D+03 -.238800470952516D+03
 0.513895936748909D+03 -.494607380037246D+03 -.735858252122907D+02 0.118480799067006D+03
 0.283913994572976D+03 -.253677970422497D+03 -.421642051279284D+02 0.120319671885510D+03
 0.000000000000000D+00 0.000000000000000D+00 -.000000000000000D+00 0.000000000000000D+00
 0.102455124482731D+04 0.000000000000000D+00 0.000000000000000D+00 0.102455124482731D+04
 0.845317519335852D+03 0.000000000000000D+00 0.000000000000000D+00 -.845317519335852D+03
 0.759598128753688D+03 0.686617456406693D+03 0.181370121124085D+03 -.238800470952516D+03
 0.550270399324167D+03 -.536585102720614D+03 -.289178173991341D+02 0.118480799067006D+03
 0.302332906812692D+03 -.276803405813700D+03 -.175566975571048D+02 0.120319671885510D+03
 0.257667329272613D+03 0.126771052127621D+03 -.134895606167846D+03 0.179233725491455D+03
0.213608738371D-03 0.000000000000D+00 0.000000000000D+00 0.391068823009D-04 0.706577357280D-08  6 -1 2 25 -1 2 21 2 0.14250944D+00 0.14384117D+00 0.74039475D+06 0.74039475D+06 0.74039475D+06 0.10566655D+01  1  2  1  1  6  1       -1 0.364081315194D-03 0.100000000000D+01
  </mgrwgt>
  </event>
  <event>
  6     66 -.16841828E-05 0.11658055E+02 0.75467711E-02 0.94197947E-01
       -1 -1    0    0    0  501 0.00000000E+00 0.00000000E+00 0.18341723E+03 0.18341751E+03 0.32000000E+00 0.0000E+00 0.9000E+01
        2 -1    0    0  501    0 -.00000000E+00 -.00000000E+00 -.15963030E+04 0.15963030E+04 0.32000000E+00 0.0000E+00 0.9000E+01
       24  2    1    2    0    0 -.50194615E+03 -.92644587E+02 -.46129661E+03 0.69266954E+03 0.80396346E+02 0.0000E+00 0.0000E+00
       25  1    1    2    0    0 0.50194615E+03 0.92644587E+02 -.95158916E+03 0.10870510E+04 0.12500000E+03 0.0000E+00 0.9000E+01
       -1  1    3    3    0  502 -.75462751E+01 -.88938989E+01 -.53597318E+00 0.11680641E+02 0.32000000E+00 0.0000E+00 0.9000E+01
        2  1    3    3  502    0 -.49439988E+03 -.83750688E+02 -.46076063E+03 0.68098890E+03 0.32000000E+00 0.0000E+00 0.9000E+01
#aMCatNLO 1  0  0  4  5 0.64831136D+01 0.00000000D+00  -5  6  0 0.00000000D+00 0.00000000D+00 0.00000000D+00 0.00000000D+00 0.00000000D+00
  <mgrwgt>
 -.6941977836D-02    8    2    0
 0.541100506785350D+03 0.000000000000000D+00 0.000000000000000D+00 0.541100506785350D+03
 0.541100506785350D+03 -.000000000000000D+00 -.000000000000000D+00 -.541100506785350D+03
 0.545333282139458D+03 0.501946153385194D+03 0.926445865676282D+02 -.145706651497160D+03
 0.185015882195463D+02 -.753856171459683D+01 -.889271288551730D+01 0.143665761911676D+02
 0.518366143211695D+03 -.494407591670597D+03 -.837518736821109D+02 0.131340075305992D+03
 0.000000000000000D+00 -.000000000000000D+00 0.000000000000000D+00 0.000000000000000D+00
 0.541100506785350D+03 0.000000000000000D+00 0.000000000000000D+00 0.541100506785350D+03
 0.541100506785350D+03 -.000000000000000D+00 -.000000000000000D+00 -.541100506785350D+03
 0.543567762419032D+03 0.500860797708351D+03 0.913642685469979D+02 -.143638240357713D+03
 0.954297893626597D+01 0.227651636200590D+01 -.181813723723089D+01 0.908737020364692D+01
 0.520053873595673D+03 -.495442630681554D+03 -.849728366586326D+02 0.133312595711701D+03
 0.903639861972858D+01 -.769468338880315D+01 -.457329465113454D+01 0.123827444236468D+01
0.100722751242D-03 0.000000000000D+00 0.000000000000D+00 0.508778261117D-04 0.000000000000D+00  6 -1 2 25 -1 2 21 0 0.28218060D-01 0.24558510D+00 0.26968107D+06 0.26968107D+06 0.26968107D+06 0.10879919D+01  1  2  2  3  6  4       -1 0.174092310616D-02 0.100000000000D+01
0.409689400647D-04 0.000000000000D+00 -.386801885679D-06 0.508778261117D-04 0.000000000000D+00  6 -1 2 25 -1 2 21 2 0.28218060D-01 0.24558510D+00 0.26968107D+06 0.26968107D+06 0.26968107D+06 0.10879919D+01  1  2  3  3  6  4       -1 0.838220037394D-03 0.100000000000D+01
-.337609494300D-04 0.000000000000D+00 0.000000000000D+00 0.508778261117D-04 0.000000000000D+00  6 -1 2 25 -1 2 21 2 0.28218060D-01 0.24558510D+00 0.26968107D+06 0.26968107D+06 0.26968107D+06 0.10879919D+01  1  2 15  3  6  4       -1 -.690745336563D-03 0.100000000000D+01
0.375252094821D-05 0.000000000000D+00 0.000000000000D+00 0.508778261117D-04 0.000000000000D+00  6 -1 2 25 -1 2 21 2 0.28218060D-01 0.24558510D+00 0.26976977D+06 0.26976977D+06 0.26976977D+06 0.10879812D+01  1  2 12  3  6  4       -1 0.767738116490D-04 0.100000000000D+01
0.448787457947D-09 0.000000000000D+00 0.000000000000D+00 0.508778261117D-04 0.000000000000D+00  6 -1 2 25 -1 2 21 2 0.28218060D-01 0.24558510D+00 0.26976977D+06 0.26976977D+06 0.26976977D+06 0.10879812D+01  1  2 12  3  6  4       -1 0.918186047257D-08 0.100000000000D+01
-.643061535482D-03 0.000000000000D+00 0.000000000000D+00 0.508778261117D-04 0.000000000000D+00  6 -1 2 25 -1 2 21 2 0.28218060D-01 0.24558510D+00 0.26968107D+06 0.26968107D+06 0.26968107D+06 0.10879919D+01  1  2  4  3  6  4       -1 -.131569687541D-01 0.100000000000D+01
-.780293172223D-04 0.000000000000D+00 0.000000000000D+00 0.508778261117D-04 0.000000000000D+00  6 -1 2 25 -1 2 21 2 0.28218060D-01 0.24558510D+00 0.26968107D+06 0.26968107D+06 0.26968107D+06 0.10879919D+01  1  2  5  3  6  4       -1 -.159647130476D-02 0.100000000000D+01
0.285743530960D-03 0.000000000000D+00 -.000000000000D+00 0.508778261117D-04 0.000000000000D+00  6 -1 2 25 -1 2 21 2 0.28218060D-01 0.24558510D+00 0.26968107D+06 0.26968107D+06 0.26968107D+06 0.10879919D+01  1  2  6  3  6  4       -1 0.584628142266D-02 0.100000000000D+01
  </mgrwgt>
  </event>
  <event>
  7     66 0.16841828E-05 0.38436537E+02 0.75467711E-02 0.93287624E-01
       -1 -1    0    0    0  501 0.00000000E+00 0.00000000E+00 0.20207271E+03 0.20207297E+03 0.32000000E+00 0.0000E+00 0.9000E+01
        2 -1    0    0  503    0 0.00000000E+00 0.00000000E+00 -.27422653E+04 0.27422654E+04 0.32000000E+00 0.0000E+00 0.9000E+01
       24  2    1    2    0    0 -.14317654E+03 -.51027483E+03 -.47209557E+03 0.71414686E+03 0.79066933E+02 0.0000E+00 0.0000E+00
       25  1    1    2    0    0 0.15850586E+03 0.53237145E+03 -.92099752E+03 0.10827765E+04 0.12500000E+03 0.0000E+00 0.9000E+01
       -1  1    3    3    0  502 -.86059650E+02 -.36031896E+03 -.28325340E+03 0.46633529E+03 0.32000000E+00 0.0000E+00 0.9000E+01
        2  1    3    3  502    0 -.57116886E+02 -.14995588E+03 -.18884217E+03 0.24781157E+03 0.32000000E+00 0.0000E+00 0.9000E+01
       21  1    1    2  503  501 -.15329319E+02 -.22096621E+02 -.11470995E+04 0.11474150E+04 0.75000000E+00 0.0000E+00 0.9000E+01
#aMCatNLO 2  0  0  2  1 0.82716995D+01 0.00000000D+00  -5  6  0 0.00000000D+00 0.00000000D+00 0.00000000D+00 0.00000000D+00 0.00000000D+00
  <mgrwgt>
 0.1166081667D-02    1    2    0
 0.567340696941284D+03 0.000000000000000D+00 0.000000000000000D+00 0.567340696941284D+03
 0.567340696941284D+03 0.000000000000000D+00 0.000000000000000D+00 -.567340696941284D+03
 0.571471116369753D+03 0.150703102693923D+03 0.521124087610624D+03 -.129122023664871D+03
 0.398927704914674D+03 -.913928161056260D+02 -.368009272546040D+03 0.123934830588125D+03
 0.164282572598140D+03 -.593102865882968D+02 -.153114815064584D+03 0.518719307674655D+01
 0.000000000000000D+00 -.000000000000000D+00 -.000000000000000D+00 -.000000000000000D+00
 0.567942985168904D+03 0.000000000000000D+00 0.000000000000000D+00 0.567942985168904D+03
 0.975690765705321D+03 0.000000000000000D+00 0.000000000000000D+00 -.975690765705321D+03
 0.583815868267718D+03 0.158505855177058D+03 0.532371453893301D+03 -.129122023664871D+03
 0.390638479266884D+03 -.860601242410539D+02 -.360322403226126D+03 0.123934830588125D+03
 0.160545702815570D+03 -.571164121083794D+02 -.149952429751558D+03 0.518719307674655D+01
 0.408633700524052D+03 -.153293188276248D+02 -.220966209156182D+02 -.407747780536416D+03
0.300763028919D-03 0.000000000000D+00 0.000000000000D+00 0.111531617403D-03 0.111333156089D-05  6 -1 2 25 -1 2 21 2 0.31088112D-01 0.42188674D+00 0.31762826D+06 0.31762826D+06 0.31762826D+06 0.10827220D+01  1  2  1  2  6  2        2 0.116608166731D-02 0.100000000000D+01
  </mgrwgt>
  </event>
  <event>
  6     66 -.16841828E-05 0.15792191E+02 0.75467711E-02 0.91127787E-01
       -1 -1    0    0    0  501 0.00000000E+00 0.00000000E+00 0.19141930E+04 0.19141930E+04 0.32000000E+00 0.0000E+00 0.9000E+01
        2 -1    0    0  501    0 0.00000000E+00 0.00000000E+00 -.19298105E+03 0.19298132E+03 0.32000000E+00 0.0000E+00 0.9000E+01
       24  2    1    2    0    0 0.54385195E+03 0.21257511E+03 0.10826565E+04 0.12329083E+04 0.83393973E+02 0.0000E+00 0.0000E+00
       25  1    1    2    0    0 -.54385195E+03 -.21257511E+03 0.63855545E+03 0.87426608E+03 0.12500000E+03 0.0000E+00 0.9000E+01
       -1  1    3    3    0  502 0.18153302E+02 -.72045668E+01 0.46104395E+02 0.50071607E+02 0.32000000E+00 0.0000E+00 0.9000E+01
        2  1    3    3  502    0 0.52569865E+03 0.21977968E+03 0.10365521E+04 0.11828367E+04 0.32000000E+00 0.0000E+00 0.9000E+01
#aMCatNLO 1  0  0  2  1 0.82716995D+01 0.00000000D+00  -5  6  0 0.00000000D+00 0.00000000D+00 0.00000000D+00 0.00000000D+00 0.00000000D+00
  <mgrwgt>
 -.8981747867D-03    5    2    0
 0.607785559296921D+03 0.000000000000000D+00 0.000000000000000D+00 0.607785559296921D+03
 0.607785559296921D+03 0.000000000000000D+00 0.000000000000000D+00 -.607785559296921D+03
 0.611351967465045D+03 -.543851951853027D+03 -.212575112138639D+03 -.131008031388460D+03
 0.215076879077199D+02 0.181458281705822D+02 -.720790882130756D+01 0.901973445081961D+01
 0.582711463221076D+03 0.525706123682444D+03 0.219783020959947D+03 0.121988296937640D+03
 0.000000000000000D+00 -.000000000000000D+00 0.000000000000000D+00 -.000000000000000D+00
 0.622876995462376D+03 0.000000000000000D+00 0.000000000000000D+00 0.622876995462376D+03
 0.153553284878515D+04 0.000000000000000D+00 0.000000000000000D+00 -.153553284878515D+04
 0.573392316344986D+03 -.475203758443642D+03 -.264900041744477D+03 -.131008031388460D+03
 0.244914006724746D+02 0.208111749231773D+02 -.923948568121104D+01 0.901973445081961D+01
 0.630660877428801D+03 0.596013126009274D+03 0.166193716349843D+03 0.121988296937640D+03
 0.929865249801260D+03 -.141620542488809D+03 0.107945811075846D+03 -.912655853322770D+03
0.401152692112D-03 0.000000000000D+00 0.000000000000D+00 0.450739299052D-05 0.000000000000D+00  6 -1 2 25 -1 2 21 0 0.29449126D+00 0.29689415D-01 0.35193044D+06 0.35193044D+06 0.35193044D+06 0.10794591D+01  1  2  2  2  6  2        2 0.220178881709D-03 0.100000000000D+01
0.167637774894D-03 0.000000000000D+00 -.154053196364D-05 0.450739299052D-05 0.000000000000D+00  6 -1 2 25 -1 2 21 2 0.29449126D+00 0.29689415D-01 0.35193044D+06 0.35193044D+06 0.35193044D+06 0.10794591D+01  1  2  3  2  6  2        2 0.107213682387D-03 0.100000000000D+01
-.131365010331D-03 0.000000000000D+00 0.000000000000D+00 0.450739299052D-05 0.000000000000D+00  6 -1 2 25 -1 2 21 2 0.29449126D+00 0.29689415D-01 0.35193044D+06 0.35193044D+06 0.35193044D+06 0.10794591D+01  1  2 15  2  6  2        2 -.840152316699D-04 0.100000000000D+01
-.428357771143D-02 0.000000000000D+00 -.201938949948D-03 0.450739299052D-05 0.000000000000D+00  6 -1 2 25 -1 2 21 2 0.29449126D+00 0.75722185D-01 0.35193044D+06 0.35193044D+06 0.35193044D+06 0.10794591D+01  1  2  5  2  6  2        2 -.958289919460D-03 0.100000000000D+01
-.430583536034D-03 0.000000000000D+00 -.208802377371D-04 0.450739299052D-05 0.000000000000D+00  6 -1 21 25 -1 2 -2 2 0.29449126D+00 0.75722185D-01 0.35193044D+06 0.35193044D+06 0.35193044D+06 0.10794591D+01  1  2  5  6  6  2        2 -.183262199664D-03 0.100000000000D+01
  </mgrwgt>
  </event>
  <event>
  7     66 0.16841828E-05 0.70108932E+02 0.75467711E-02 0.93355428E-01
       -1 -1    0    0    0  503 0.00000000E+00 0.00000000E+00 0.44886892E+03 0.44886903E+03 0.32000000E+00 0.0000E+00 0.9000E+01
        2 -1    0    0  501    0 0.00000000E+00 0.00000000E+00 -.10539679E+04 0.10539680E+04 0.32000000E+00 0.0000E+00 0.9000E+01
       24  2    1    2    0    0 0.35469989E+03 0.40827481E+03 -.35041581E+03 0.64935221E+03 0.79791698E+02 0.0000E+00 0.0000E+00
       25  1    1    2    0    0 -.36522968E+03 -.41203326E+03 -.40999363E+03 0.69777067E+03 0.12500000E+03 0.0000E+00 0.9000E+01
       -1  1    3    3    0  502 0.21062110E+03 0.19464252E+03 -.21370540E+03 0.35765494E+03 0.32000000E+00 0.0000E+00 0.9000E+01
        2  1    3    3  502    0 0.14407878E+03 0.21363230E+03 -.13671041E+03 0.29169726E+03 0.32000000E+00 0.0000E+00 0.9000E+01
       21  1    1    2  501  503 0.10529788E+02 0.37584474E+01 0.15531043E+03 0.15571414E+03 0.75000000E+00 0.0000E+00 0.9000E+01
#aMCatNLO 2  0  0  1  1 0.10191668D+02 0.00000000D+00  -5  6  0 0.00000000D+00 0.00000000D+00 0.00000000D+00 0.00000000D+00 0.00000000D+00
  <mgrwgt>
 0.5604207789D-02    1    2    0
 0.555965943118581D+03 0.000000000000000D+00 0.000000000000000D+00 0.555965943118581D+03
 0.555965943118581D+03 0.000000000000000D+00 0.000000000000000D+00 -.555965943118581D+03
 0.560129096067493D+03 -.359902657217054D+03 -.410131863931796D+03 -.195329408262364D+02
 0.289812175864634D+03 0.213353944595778D+03 0.195617274619119D+03 -.143203867057846D+02
 0.261990614305035D+03 0.146548712621276D+03 0.214514589312677D+03 0.338533275320210D+02
 0.000000000000000D+00 0.000000000000000D+00 0.000000000000000D+00 0.000000000000000D+00
 0.850733127736314D+03 0.000000000000000D+00 0.000000000000000D+00 0.850733127736314D+03
 0.556100075160021D+03 0.000000000000000D+00 0.000000000000000D+00 -.556100075160021D+03
 0.564951910785907D+03 -.365229676380151D+03 -.412033262267231D+03 -.195329408262364D+02
 0.287145196662928D+03 0.210622174206782D+03 0.194642210796107D+03 -.143203867057846D+02
 0.259890986907586D+03 0.144077714289962D+03 0.213632604102905D+03 0.338533275320210D+02
 0.294845108539914D+03 0.105297878834066D+02 0.375844736821850D+01 0.294633052576293D+03
0.680332366694D-03 0.000000000000D+00 0.000000000000D+00 0.173460404267D-03 0.948081865567D-05  6 -1 2 25 -1 2 21 2 0.69056710D-01 0.16214879D+00 0.31374515D+06 0.31374515D+06 0.31374515D+06 0.10831154D+01  1  2  1  1  6  1       -1 0.560420778861D-02 0.100000000000D+01
  </mgrwgt>
  </event>
  <event>
  7     66 0.16841828E-05 0.69363605E+02 0.75467711E-02 0.93663625E-01
       21 -1    0    0  503  501 0.00000000E+00 0.00000000E+00 0.10426111E+03 0.10426381E+03 0.75000000E+00 0.0000E+00 0.9000E+01
        2 -1    0    0  501    0 0.00000000E+00 0.00000000E+00 -.31448403E+04 0.31448403E+04 0.32000000E+00 0.0000E+00 0.9000E+01
       24  2    1    2    0    0 -.19788983E+03 -.49250411E+03 -.19561863E+04 0.20284767E+04 0.79574733E+02 0.0000E+00 0.0000E+00
       25  1    1    2    0    0 0.18274508E+03 0.49098714E+03 -.10759283E+04 0.12032085E+04 0.12500000E+03 0.0000E+00 0.9000E+01
       -1  1    3    3    0  502 -.12889057E+03 -.22383804E+03 -.88074434E+03 0.91783819E+03 0.32000000E+00 0.0000E+00 0.9000E+01
        2  1    3    3  502    0 -.68999258E+02 -.26866607E+03 -.10754420E+04 0.11106385E+04 0.32000000E+00 0.0000E+00 0.9000E+01
        1  1    1    2  503    0 0.15144752E+02 0.15169626E+01 -.84645498E+01 0.17418831E+02 0.32000000E+00 0.0000E+00 0.9000E+01
#aMCatNLO 2  0  0  1  1 0.10191668D+02 0.00000000D+00  -5  6  0 0.00000000D+00 0.00000000D+00 0.00000000D+00 0.00000000D+00 0.00000000D+00
  <mgrwgt>
 0.1874144108D-03    1    2    0
 0.558980980663093D+03 0.000000000000000D+00 0.000000000000000D+00 0.558980980663093D+03
 0.558980980663093D+03 0.000000000000000D+00 0.000000000000000D+00 -.558980980663093D+03
 0.563137142574376D+03 0.190351774228230D+03 0.491749062774658D+03 0.153125773974349D+03
 0.262400925953659D+03 -.125323310292385D+03 -.223479902755594D+03 -.566131336621299D+02
 0.292423892798152D+03 -.650284639358441D+02 -.268269160019064D+03 -.965126403122191D+02
 0.000000000000000D+00 0.000000000000000D+00 0.000000000000000D+00 0.000000000000000D+00
 0.584114344222522D+03 0.000000000000000D+00 0.000000000000000D+00 0.584114344222522D+03
 0.561341896819928D+03 0.000000000000000D+00 0.000000000000000D+00 -.561341896819928D+03
 0.559943428220821D+03 0.182745080656944D+03 0.490987144076227D+03 0.153125773974349D+03
 0.264426207040116D+03 -.128891542768249D+03 -.223837312058103D+03 -.566131336621299D+02
 0.293695931531748D+03 -.689982894458486D+02 -.268666794583574D+03 -.965126403122191D+02
 0.273906742497659D+02 0.151447515571531D+02 0.151696256545072D+01 0.227724474025942D+02
0.232414217211D-05 0.000000000000D+00 0.000000000000D+00 0.179319152938D-03 0.379109459334D-07  6 21 2 25 -1 2 1 2 0.16040353D-01 0.48382099D+00 0.29675247D+06 0.29675247D+06 0.29675247D+06 0.10849018D+01  1  2  1  5  6  1       -1 0.187414410817D-03 0.100000000000D+01
  </mgrwgt>
  </event>
  <event>
  7     66 0.16841828E-05 0.60012574E+02 0.75467711E-02 0.93754178E-01
       -1 -1    0    0    0  501 0.00000000E+00 0.00000000E+00 0.85114378E+03 0.85114384E+03 0.32000000E+00 0.0000E+00 0.9000E+01
        2 -1    0    0  503    0 0.00000000E+00 0.00000000E+00 -.36071711E+03 0.36071726E+03 0.32000000E+00 0.0000E+00 0.9000E+01
       24  2    1    2    0    0 -.45483535E+03 -.25052706E+03 0.21482184E+03 0.56782515E+03 0.81473748E+02 0.0000E+00 0.0000E+00
       25  1    1    2    0    0 0.42671879E+03 0.27404054E+03 0.29773485E+03 0.60121393E+03 0.12500000E+03 0.0000E+00 0.9000E+01
       -1  1    3    3    0  502 -.20651873E+03 -.14242416E+03 0.68755256E+02 0.26011923E+03 0.32000000E+00 0.0000E+00 0.9000E+01
        2  1    3    3  502    0 -.24831662E+03 -.10810290E+03 0.14606659E+03 0.30770592E+03 0.32000000E+00 0.0000E+00 0.9000E+01
       21  1    1    2  503  501 0.28116558E+02 -.23513485E+02 -.22130027E+02 0.42822020E+02 0.75000000E+00 0.0000E+00 0.9000E+01
#aMCatNLO 2  0  0  2  4 0.23132396D+00 0.00000000D+00  -5  6  0 0.00000000D+00 0.00000000D+00 0.00000000D+00 0.00000000D+00 0.00000000D+00
  <mgrwgt>
 0.1634015925D-02    1    2    0
 0.525022516000168D+03 0.000000000000000D+00 0.000000000000000D+00 0.525022516000168D+03
 0.525022516000168D+03 0.000000000000000D+00 0.000000000000000D+00 -.525022516000168D+03
 0.529301869795721D+03 0.440812278517622D+03 0.262254355114708D+03 0.379823340609540D+02
 0.253694504577067D+03 -.199697853867702D+03 -.148128352370225D+03 -.503950398086932D+02
 0.267048657627548D+03 -.241114424649920D+03 -.114126002744482D+03 0.124127057477391D+02
 0.000000000000000D+00 0.000000000000000D+00 -.000000000000000D+00 -.000000000000000D+00
 0.531804207319578D+03 0.000000000000000D+00 0.000000000000000D+00 0.531804207319578D+03
 0.577316788646566D+03 0.000000000000000D+00 0.000000000000000D+00 -.577316788646566D+03
 0.523693425183123D+03 0.426718792376462D+03 0.274040541000939D+03 0.379823340609540D+02
 0.255879211899927D+03 -.206518083877573D+03 -.142424689140414D+03 -.503950398086932D+02
 0.271111898841838D+03 -.248317266277501D+03 -.108102366755384D+03 0.124127057477391D+02
 0.584364600412572D+02 0.281165577786124D+02 -.235134851051408D+02 -.455125813269882D+02
0.221010718669D-03 0.000000000000D+00 0.000000000000D+00 0.105986330278D-03 0.497847366305D-06  6 -1 2 25 -1 2 21 2 0.13094463D+00 0.55494707D-01 0.29195764D+06 0.29195764D+06 0.29195764D+06 0.10854261D+01  1  2  1  2  6  2        2 0.163401592482D-02 0.100000000000D+01
  </mgrwgt>
  </event>
  <event>
  7     66 0.16841828E-05 0.64514490E+02 0.75467711E-02 0.93986997E-01
       -1 -1    0    0    0  501 0.00000000E+00 0.00000000E+00 0.44549038E+03 0.44549049E+03 0.32000000E+00 0.0000E+00 0.9000E+01
        2 -1    0    0  503    0 0.00000000E+00 0.00000000E+00 -.20412854E+04 0.20412854E+04 0.32000000E+00 0.0000E+00 0.9000E+01
       24  2    1    2    0    0 0.17871772E+03 -.38508101E+03 0.66029234E+02 0.43713112E+03 0.80599917E+02 0.0000E+00 0.0000E+00
       25  1    1    2    0    0 -.26566259E+03 0.43677555E+03 -.16806941E+03 0.55246884E+03 0.12500000E+03 0.0000E+00 0.9000E+01
       -1  1    3    3    0  502 0.11357222E+03 -.15743432E+03 0.46003510E+02 0.19950098E+03 0.32000000E+00 0.0000E+00 0.9000E+01
        2  1    3    3  502    0 0.65145500E+02 -.22764669E+03 0.20025725E+02 0.23763014E+03 0.32000000E+00 0.0000E+00 0.9000E+01
       21  1    1    2  503  501 0.86944866E+02 -.51694539E+02 -.14937548E+04 0.14971759E+04 0.75000000E+00 0.0000E+00 0.9000E+01
#aMCatNLO 2  0  0  2  2 0.77055474D+02 0.00000000D+00  -5  6  0 0.00000000D+00 0.00000000D+00 0.00000000D+00 0.00000000D+00 0.00000000D+00
  <mgrwgt>
 0.3870456629D-02    1    2    0
 0.489556981929922D+03 0.000000000000000D+00 0.000000000000000D+00 0.489556981929922D+03
 0.489556981929922D+03 0.000000000000000D+00 0.000000000000000D+00 -.489556981929922D+03
 0.494218672873997D+03 -.219953668072300D+03 0.409598540740799D+03 -.111698325600178D+03
 0.224828617082846D+03 0.132621614390762D+03 -.168758895884473D+03 0.669316779681086D+02
 0.260066673903002D+03 0.873320536815375D+02 -.240839644856326D+03 0.447666476320692D+02
 0.000000000000000D+00 0.000000000000000D+00 -.000000000000000D+00 -.000000000000000D+00
 0.494059488435205D+03 0.000000000000000D+00 0.000000000000000D+00 0.494059488435205D+03
 0.184061394055133D+04 0.000000000000000D+00 0.000000000000000D+00 -.184061394055133D+04
 0.538006514686128D+03 -.265662589207159D+03 0.436775551740915D+03 -.111698325600178D+03
 0.205338474480707D+03 0.113572986339390D+03 -.157433212380330D+03 0.669316779681086D+02
 0.240980104155206D+03 0.651447364767788D+02 -.227647800709366D+03 0.447666476320692D+02
 0.135034833566450D+04 0.869448663909898D+02 -.516945386512193D+02 -.134655445211613D+04
0.162610019317D-02 0.000000000000D+00 0.000000000000D+00 0.298318668655D-03 0.375866326278D-06  6 -1 2 25 -1 2 21 2 0.68536978D-01 0.31404385D+00 0.28002351D+06 0.28002351D+06 0.28002351D+06 0.10867729D+01  1  2  1  2  6  2        2 0.387045662894D-02 0.100000000000D+01
  </mgrwgt>
  </event>
  <event>
  7     66 0.16841828E-05 0.50627580E+02 0.75467711E-02 0.90927205E-01
       -1 -1    0    0    0  501 0.00000000E+00 0.00000000E+00 0.38436319E+03 0.38436332E+03 0.32000000E+00 0.0000E+00 0.9000E+01
        2 -1    0    0  503    0 0.00000000E+00 0.00000000E+00 -.19346687E+04 0.19346687E+04 0.32000000E+00 0.0000E+00 0.9000E+01
       24  2    1    2    0    0 -.51117165E+03 -.45414552E+03 -.11728896E+03 0.69815615E+03 0.78234922E+02 0.0000E+00 0.0000E+00
       25  1    1    2    0    0 0.51899010E+03 0.46178376E+03 -.12344013E+04 0.14219587E+04 0.12500000E+03 0.0000E+00 0.9000E+01
       -1  1    3    3    0  502 -.31602238E+03 -.32697856E+03 -.90981358E+02 0.46374867E+03 0.32000000E+00 0.0000E+00 0.9000E+01
        2  1    3    3  502    0 -.19514927E+03 -.12716696E+03 -.26307598E+02 0.23440748E+03 0.32000000E+00 0.0000E+00 0.9000E+01
       21  1    1    2  503  501 -.78184536E+01 -.76382336E+01 -.19861525E+03 0.19891719E+03 0.75000000E+00 0.0000E+00 0.9000E+01
#aMCatNLO 2  0  0  2  2 0.77055474D+02 0.00000000D+00  -5  6  0 0.00000000D+00 0.00000000D+00 0.00000000D+00 0.00000000D+00 0.00000000D+00
  <mgrwgt>
 0.3607892723D-02    1    2    0
 0.816654909352845D+03 0.000000000000000D+00 0.000000000000000D+00 0.816654909352845D+03
 0.816654909352845D+03 0.000000000000000D+00 0.000000000000000D+00 -.816654909352845D+03
 0.819564429918824D+03 0.515055919058143D+03 0.457940262335036D+03 -.425521998448795D+03
 0.529720013730222D+03 -.318552769756295D+03 -.329451989935989D+03 0.265685551270965D+03
 0.284025375056644D+03 -.196503149301848D+03 -.128488272399047D+03 0.159836447177830D+03
 0.000000000000000D+00 -.000000000000000D+00 -.000000000000000D+00 -.000000000000000D+00
 0.816992602521606D+03 0.000000000000000D+00 0.000000000000000D+00 0.816992602521606D+03
 0.910183137390346D+03 0.000000000000000D+00 0.000000000000000D+00 -.910183137390346D+03
 0.824189865465673D+03 0.518990100041044D+03 0.461783758085811D+03 -.425521998448795D+03
 0.526666307751343D+03 -.316024402233096D+03 -.326981902801195D+03 0.265685551270965D+03
 0.282490218308642D+03 -.195147244176494D+03 -.127163621700362D+03 0.159836447177830D+03
 0.938293483862942D+02 -.781845363145435D+01 -.763823358425400D+01 -.931905348687395D+02
0.106543701105D-02 0.000000000000D+00 0.000000000000D+00 0.317872550683D-04 0.163247636992D-05  6 -1 2 25 -1 2 21 2 0.59132702D-01 0.29764081D+00 0.49311306D+06 0.49311306D+06 0.49311306D+06 0.10689364D+01  1  2  1  2  6  2        2 0.360789272344D-02 0.100000000000D+01
  </mgrwgt>
  </event>
  <event>
  7     66 0.16841828E-05 0.22220299E+02 0.75467711E-02 0.95172005E-01
       -1 -1    0    0    0  503 0.00000000E+00 0.00000000E+00 0.19861426E+03 0.19861452E+03 0.32000000E+00 0.0000E+00 0.9000E+01
        2 -1    0    0  501    0 0.00000000E+00 0.00000000E+00 -.19007248E+04 0.19007248E+04 0.32000000E+00 0.0000E+00 0.9000E+01
       24  2    1    2    0    0 0.34342683E+03 0.26824306E+03 -.41783521E+03 0.60921246E+03 0.81591903E+02 0.0000E+00 0.0000E+00
       25  1    1    2    0    0 -.35415367E+03 -.30207137E+03 -.13400082E+04 0.14240502E+04 0.12500000E+03 0.0000E+00 0.9000E+01
       -1  1    3    3    0  502 0.67066043E+02 0.53133319E+02 -.41370712E+02 0.95040212E+02 0.32000000E+00 0.0000E+00 0.9000E+01
        2  1    3    3  502    0 0.27636078E+03 0.21510974E+03 -.37646450E+03 0.51417225E+03 0.32000000E+00 0.0000E+00 0.9000E+01
       21  1    1    2  501  503 0.10726840E+02 0.33828315E+02 0.55732849E+02 0.66076720E+02 0.75000000E+00 0.0000E+00 0.9000E+01
#aMCatNLO 2  0  0  1  2 0.88048119D+02 0.00000000D+00  -5  6  0 0.00000000D+00 0.00000000D+00 0.00000000D+00 0.00000000D+00 0.00000000D+00
  <mgrwgt>
 0.2085242357D-02    1    2    0
 0.510608481980903D+03 0.000000000000000D+00 0.000000000000000D+00 0.510608481980903D+03
 0.510608481980903D+03 0.000000000000000D+00 0.000000000000000D+00 -.510608481980903D+03
 0.514999204889923D+03 -.348675364526493D+03 -.284794922829371D+03 -.216602223303877D+03
 0.120475015300686D+03 0.683145956357268D+02 0.570784338455616D+02 0.811751053252510D+02
 0.385742743771198D+03 0.280360768890766D+03 0.227716488983810D+03 0.135427117978626D+03
 0.000000000000000D+00 0.000000000000000D+00 0.000000000000000D+00 0.000000000000000D+00
 0.736878770959841D+03 0.000000000000000D+00 0.000000000000000D+00 0.736878770959841D+03
 0.512310100055485D+03 0.000000000000000D+00 0.000000000000000D+00 -.512310100055485D+03
 0.528406526135678D+03 -.354153666340603D+03 -.302071372923852D+03 -.216602223303877D+03
 0.117939411855053D+03 0.670628235302454D+02 0.531308276267307D+02 0.811751053252510D+02
 0.375487466963149D+03 0.276364002608562D+03 0.215112230299859D+03 0.135427117978626D+03
 0.227355466061447D+03 0.107268402017958D+02 0.338283149972624D+02 0.224568670904356D+03
0.167670593514D-03 0.000000000000D+00 0.000000000000D+00 0.971352132629D-04 0.519848939882D-06  6 -1 2 25 -1 2 21 2 0.30556025D-01 0.29241887D+00 0.22716363D+06 0.22716363D+06 0.22716363D+06 0.10936026D+01  1  2  1  1  6  1       -1 0.208524235741D-02 0.100000000000D+01
  </mgrwgt>
  </event>
  <event>
  6     66 0.16841828E-05 0.46358517E+02 0.75467711E-02 0.95479002E-01
       -1 -1    0    0    0  501 0.00000000E+00 0.00000000E+00 0.13696073E+03 0.13696110E+03 0.32000000E+00 0.0000E+00 0.9000E+01
        2 -1    0    0  501    0 -.00000000E+00 -.00000000E+00 -.18426283E+04 0.18426284E+04 0.32000000E+00 0.0000E+00 0.9000E+01
       25  1    1    2    0    0 0.44858026E+03 0.63220128E+02 -.52604385E+03 0.70538512E+03 0.12500000E+03 0.0000E+00 0.9000E+01
       -1  1    1    2    0  503 -.15859799E+03 -.15867768E+02 -.33303879E+03 0.36921544E+03 0.32000000E+00 0.0000E+00 0.9000E+01
        2  1    1    2  502    0 -.27393495E+03 -.57453838E+02 -.83916593E+03 0.88461340E+03 0.32000000E+00 0.0000E+00 0.9000E+01
       21  1    1    2  503  502 -.16047317E+02 0.10101478E+02 -.74190301E+01 0.20375494E+02 0.75000000E+00 0.0000E+00 0.9000E+01
#aMCatNLO 2  0  0  4  5 0.64831136D+01 0.00000000D+00  -5  6  0 0.00000000D+00 0.00000000D+00 0.00000000D+00 0.00000000D+00 0.00000000D+00
  <mgrwgt>
 0.7579659080D-01    1    2    0
 0.502362538544873D+03 0.000000000000000D+00 0.000000000000000D+00 0.502362538544873D+03
 0.502362538544873D+03 -.000000000000000D+00 -.000000000000000D+00 -.502362538544873D+03
 0.503547680902304D+03 0.455901868681722D+03 0.634618759176045D+02 0.161435260645314D+03
 0.186945918921997D+03 -.186574542423804D+03 -.615610591100364D+01 -.100408705275316D+02
 0.314231477265445D+03 -.269327326257918D+03 -.573057700066009D+02 -.151394390117782D+03
 0.000000000000000D+00 -.000000000000000D+00 0.000000000000000D+00 0.000000000000000D+00
 0.502362538544873D+03 0.000000000000000D+00 0.000000000000000D+00 0.502362538544873D+03
 0.502362538544873D+03 -.000000000000000D+00 -.000000000000000D+00 -.502362538544873D+03
 0.496743650223494D+03 0.448551869507341D+03 0.632193595872656D+02 0.161039706197592D+03
 0.161949388429078D+03 -.158452763933760D+03 -.159038139791325D+02 -.294515655818454D+02
 0.318371248056709D+03 -.273975601579465D+03 -.574591418161265D+02 -.151644546061212D+03
 0.276607903804644D+02 -.161235039941163D+02 0.101435962079933D+02 0.200564054454653D+02
0.304872171632D-02 0.000000000000D+00 0.000000000000D+00 0.213800681343D-06 0.170181588388D-06  6 -1 2 25 -1 2 21 2 0.21070913D-01 0.28348131D+00 0.21536523D+06 0.21536523D+06 0.21536523D+06 0.10953650D+01  1  2  1  3  6  4       -1 0.757965907955D-01 0.100000000000D+01
  </mgrwgt>
  </event>
  <event>
  6     66 0.16841828E-05 0.53381513E+02 0.75467711E-02 0.93527774E-01
       -1 -1    0    0    0  501 0.00000000E+00 0.00000000E+00 0.51083917E+03 0.51083927E+03 0.32000000E+00 0.0000E+00 0.9000E+01
        2 -1    0    0  501    0 -.00000000E+00 -.00000000E+00 -.63675003E+03 0.63675011E+03 0.32000000E+00 0.0000E+00 0.9000E+01
       25  1    1    2    0    0 0.32779219E+03 0.43129921E+03 -.14012298E+03 0.57334647E+03 0.12500000E+03 0.0000E+00 0.9000E+01
       -1  1    1    2    0  502 -.20500794E+03 -.20715558E+03 0.14465818E+02 0.29180653E+03 0.32000000E+00 0.0000E+00 0.9000E+01
        2  1    1    2  503    0 -.10563678E+03 -.19402355E+03 0.44976262E+02 0.22544896E+03 0.32000000E+00 0.0000E+00 0.9000E+01
       21  1    1    2  502  503 -.17147469E+02 -.30120083E+02 -.45229959E+02 0.56987427E+02 0.75000000E+00 0.0000E+00 0.9000E+01
#aMCatNLO 2  0  0  5  2 0.59120317D+00 0.00000000D+00  -5  6  0 0.00000000D+00 0.00000000D+00 0.00000000D+00 0.00000000D+00 0.00000000D+00
  <mgrwgt>
 0.2648220367D-02    1    2    0
 0.570330574911599D+03 0.000000000000000D+00 0.000000000000000D+00 0.570330574911599D+03
 0.570330574911599D+03 -.000000000000000D+00 -.000000000000000D+00 -.570330574911599D+03
 0.574332677312085D+03 0.334203823523622D+03 0.443003696470100D+03 -.793004002794894D+02
 0.288586358729032D+03 -.201746015075378D+03 -.201171443233983D+03 0.459421622569425D+02
 0.277742113782080D+03 -.132457808448244D+03 -.241832253236117D+03 0.333582380225469D+02
 0.000000000000000D+00 -.000000000000000D+00 0.000000000000000D+00 0.000000000000000D+00
 0.570330574911599D+03 0.000000000000000D+00 0.000000000000000D+00 0.570330574911599D+03
 0.570330574911599D+03 -.000000000000000D+00 -.000000000000000D+00 -.570330574911599D+03
 0.561333057992784D+03 0.327778635946296D+03 0.431273035911145D+03 -.776822779577111D+02
 0.295238184547494D+03 -.205049084003306D+03 -.207201956729510D+03 0.467740087203072D+02
 0.231612214899845D+03 -.105527987017766D+03 -.193851335580123D+03 0.702119771876057D+02
 0.524776923830747D+02 -.172015649252241D+02 -.302197436015127D+02 -.393037079502017D+02
0.214363784072D-03 0.000000000000D+00 0.000000000000D+00 0.285898758735D-03 0.812805188265D-06  6 -1 2 25 -1 2 21 2 0.78590656D-01 0.97961557D-01 0.30411226D+06 0.30411226D+06 0.30411226D+06 0.10841147D+01  1  2  1  4  6  5        2 0.264822036713D-02 0.100000000000D+01
  </mgrwgt>
  </event>
  <event>
  7     66 0.16841828E-05 0.77528027E+02 0.75467711E-02 0.87908465E-01
       -1 -1    0    0    0  503 0.00000000E+00 0.00000000E+00 0.74992411E+03 0.74992418E+03 0.32000000E+00 0.0000E+00 0.9000E+01
        2 -1    0    0  501    0 0.00000000E+00 0.00000000E+00 -.16542302E+04 0.16542302E+04 0.32000000E+00 0.0000E+00 0.9000E+01
       24  2    1    2    0    0 0.91781006E+03 -.14443193E+03 -.65216491E+03 0.11386226E+04 0.88917713E+02 0.0000E+00 0.0000E+00
       25  1    1    2    0    0 -.92883152E+03 0.13371537E+03 -.46318177E+03 0.10539308E+04 0.12500000E+03 0.0000E+00 0.9000E+01
       -1  1    3    3    0  502 0.43411776E+03 -.10159823E+03 -.34866098E+03 0.56599029E+03 0.32000000E+00 0.0000E+00 0.9000E+01
        2  1    3    3  502    0 0.48369230E+03 -.42833697E+02 -.30350393E+03 0.57263226E+03 0.32000000E+00 0.0000E+00 0.9000E+01
       21  1    1    2  501  503 0.11021461E+02 0.10716556E+02 0.21104058E+03 0.21160106E+03 0.75000000E+00 0.0000E+00 0.9000E+01
#aMCatNLO 2  0  0  1  2 0.85430339D+02 0.00000000D+00  -5  6  0 0.00000000D+00 0.00000000D+00 0.00000000D+00 0.00000000D+00 0.00000000D+00
  <mgrwgt>
 0.1827887178D-02    1    2    0
 0.943802908113054D+03 0.000000000000000D+00 0.000000000000000D+00 0.943802908113054D+03
 0.943802908113054D+03 0.000000000000000D+00 0.000000000000000D+00 -.943802908113054D+03
 0.945847466528746D+03 -.923295421340544D+03 0.139098322065698D+03 0.847328252151553D+02
 0.453368505296676D+03 0.436758468488747D+03 -.990307158606850D+02 -.705546533860592D+02
 0.488389844400687D+03 0.486536952851797D+03 -.400676062050130D+02 -.141781718290961D+02
 0.000000000000000D+00 0.000000000000000D+00 0.000000000000000D+00 0.000000000000000D+00
 0.131414667888353D+04 0.000000000000000D+00 0.000000000000000D+00 0.131414667888353D+04
 0.943993745167289D+03 0.000000000000000D+00 0.000000000000000D+00 -.943993745167289D+03
 0.950480115877708D+03 -.928831522665550D+03 0.133715375005102D+03 0.847328252151553D+02
 0.451395599130885D+03 0.434117118015437D+03 -.101598994317238D+03 -.705546533860592D+02
 0.485792697248760D+03 0.483692943562653D+03 -.428329369936951D+02 -.141781718290961D+02
 0.370472011793466D+03 0.110214610874588D+02 0.107165563058304D+02 0.370152933716241D+03
0.166810606058D-02 0.000000000000D+00 0.000000000000D+00 0.323843088600D-05 0.851980365957D-07  6 -1 2 25 -1 2 21 2 0.11537290D+00 0.25449686D+00 0.89633711D+06 0.89633711D+06 0.89633711D+06 0.10510425D+01  1  2  1  1  6  1       -1 0.182788717841D-02 0.100000000000D+01
  </mgrwgt>
  </event>
  <event>
  7     66 0.16841828E-05 0.38458903E+02 0.75467711E-02 0.92872889E-01
       -1 -1    0    0    0  501 0.00000000E+00 0.00000000E+00 0.75015657E+03 0.75015664E+03 0.32000000E+00 0.0000E+00 0.9000E+01
        2 -1    0    0  503    0 0.00000000E+00 0.00000000E+00 -.84970246E+03 0.84970252E+03 0.32000000E+00 0.0000E+00 0.9000E+01
       24  2    1    2    0    0 -.44702211E+03 -.36103208E+03 0.43433495E+03 0.72460124E+03 0.78912501E+02 0.0000E+00 0.0000E+00
       25  1    1    2    0    0 0.38975797E+03 0.33404236E+03 -.25014604E+03 0.58454565E+03 0.12500000E+03 0.0000E+00 0.9000E+01
       -1  1    3    3    0  502 -.17418493E+03 -.18604508E+03 0.17005526E+03 0.30638547E+03 0.32000000E+00 0.0000E+00 0.9000E+01
        2  1    3    3  502    0 -.27283718E+03 -.17498700E+03 0.26427968E+03 0.41821577E+03 0.32000000E+00 0.0000E+00 0.9000E+01
       21  1    1    2  503  501 0.57264144E+02 0.26989719E+02 -.28373479E+03 0.29071226E+03 0.75000000E+00 0.0000E+00 0.9000E+01
#aMCatNLO 2  0  0  2  2 0.30299867D+03 0.00000000D+00  -5  6  0 0.00000000D+00 0.00000000D+00 0.00000000D+00 0.00000000D+00 0.00000000D+00
  <mgrwgt>
 0.3448167695D-02    1    2    0
 0.647289039445883D+03 0.000000000000000D+00 0.000000000000000D+00 0.647289039445883D+03
 0.647289039445883D+03 0.000000000000000D+00 0.000000000000000D+00 -.647289039445883D+03
 0.650918722890334D+03 0.417981857078680D+03 0.347344834625296D+03 -.335727444248109D+03
 0.274053305110729D+03 -.161819614451843D+03 -.180218008955090D+03 0.128222835988891D+03
 0.369606050890704D+03 -.256162242626837D+03 -.167126825670206D+03 0.207504608259218D+03
 0.000000000000000D+00 0.000000000000000D+00 0.000000000000000D+00 -.000000000000000D+00
 0.651090095988733D+03 0.000000000000000D+00 0.000000000000000D+00 0.651090095988733D+03
 0.978987650429282D+03 0.000000000000000D+00 0.000000000000000D+00 -.978987650429282D+03
 0.625966045495445D+03 0.389757969378014D+03 0.334042360484663D+03 -.335727444248109D+03
 0.285295914248751D+03 -.174183306104783D+03 -.186045260333082D+03 0.128222835988891D+03
 0.384863045578905D+03 -.272838807011970D+03 -.174986818908580D+03 0.207504608259218D+03
 0.333952741094913D+03 0.572641437387397D+02 0.269897187569991D+02 -.327897554440550D+03
0.945078680510D-03 0.000000000000D+00 0.000000000000D+00 0.581868451821D-04 0.956479973301D-07  6 -1 2 25 -1 2 21 2 0.11540864D+00 0.13072338D+00 0.34258448D+06 0.34258448D+06 0.34258448D+06 0.10803125D+01  1  2  1  2  6  2        2 0.344816769476D-02 0.100000000000D+01
  </mgrwgt>
  </event>
  <event>
  7     66 0.16841828E-05 0.70547934E+02 0.75467711E-02 0.93132432E-01
       -1 -1    0    0    0  501 0.00000000E+00 0.00000000E+00 0.57784871E+03 0.57784880E+03 0.32000000E+00 0.0000E+00 0.9000E+01
        2 -1    0    0  503    0 0.00000000E+00 0.00000000E+00 -.61082750E+03 0.61082759E+03 0.32000000E+00 0.0000E+00 0.9000E+01
       24  2    1    2    0    0 0.38150585E+03 -.39329905E+03 0.12030482E+03 0.56691691E+03 0.81796543E+02 0.0000E+00 0.0000E+00
       25  1    1    2    0    0 -.38070621E+03 0.41183571E+03 -.12519139E+03 0.58808482E+03 0.12500000E+03 0.0000E+00 0.9000E+01
       -1  1    3    3    0  502 0.20349736E+03 -.17534218E+03 0.24888704E+02 0.26976954E+03 0.32000000E+00 0.0000E+00 0.9000E+01
        2  1    3    3  502    0 0.17800849E+03 -.21795688E+03 0.95416116E+02 0.29714737E+03 0.32000000E+00 0.0000E+00 0.9000E+01
       21  1    1    2  503  501 -.79964394E+00 -.18536653E+02 -.28092225E+02 0.33674657E+02 0.75000000E+00 0.0000E+00 0.9000E+01
#aMCatNLO 2  0  0  2  2 0.30299867D+03 0.00000000D+00  -5  6  0 0.00000000D+00 0.00000000D+00 0.00000000D+00 0.00000000D+00 0.00000000D+00
  <mgrwgt>
 0.2151083783D-02    1    2    0
 0.577421177754576D+03 0.000000000000000D+00 0.000000000000000D+00 0.577421177754576D+03
 0.577421177754576D+03 0.000000000000000D+00 0.000000000000000D+00 -.577421177754576D+03
 0.581289379149772D+03 -.381110854412026D+03 0.402455567518194D+03 -.122704421824448D+03
 0.272585200887122D+03 0.203309953963550D+03 -.179694839885663D+03 0.260291928510652D+02
 0.300967775472258D+03 0.177800900448476D+03 -.222760727632531D+03 0.966752289733833D+02
 0.000000000000000D+00 -.000000000000000D+00 -.000000000000000D+00 -.000000000000000D+00
 0.580294571198231D+03 0.000000000000000D+00 0.000000000000000D+00 0.580294571198231D+03
 0.608244375214283D+03 0.000000000000000D+00 0.000000000000000D+00 -.608244375214283D+03
 0.587560415962668D+03 -.380706208986424D+03 0.411835707182047D+03 -.122704421824448D+03
 0.269876830797069D+03 0.203497749504604D+03 -.175341526362563D+03 0.260291928510652D+02
 0.297554144123916D+03 0.178008103425197D+03 -.217957527750762D+03 0.966752289733833D+02
 0.335475555288614D+02 -.799643943377070D+00 -.185366530687221D+02 -.279498040160516D+02
0.215662283550D-03 0.000000000000D+00 0.000000000000D+00 0.752544025717D-04 0.136663402503D-05  6 -1 2 25 -1 2 21 2 0.88899175D-01 0.93972799D-01 0.32672022D+06 0.32672022D+06 0.32672022D+06 0.10818210D+01  1  2  1  2  6  2        2 0.215108378257D-02 0.100000000000D+01
  </mgrwgt>
  </event>
  <event>
  7     66 0.16841828E-05 0.35631929E+02 0.75467711E-02 0.94291829E-01
       -1 -1    0    0    0  503 0.00000000E+00 0.00000000E+00 0.12666332E+03 0.12666372E+03 0.32000000E+00 0.0000E+00 0.9000E+01
        2 -1    0    0  501    0 0.00000000E+00 0.00000000E+00 -.23888974E+04 0.23888974E+04 0.32000000E+00 0.0000E+00 0.9000E+01
       24  2    1    2    0    0 0.26655186E+03 0.42402664E+03 -.14672374E+04 0.15525488E+04 0.82303697E+02 0.0000E+00 0.0000E+00
       25  1    1    2    0    0 -.25710939E+03 -.43047927E+03 -.79841088E+03 0.95105340E+03 0.12500000E+03 0.0000E+00 0.9000E+01
       -1  1    3    3    0  502 0.43420026E+02 0.92224671E+02 -.40249738E+03 0.41520469E+03 0.32000000E+00 0.0000E+00 0.9000E+01
        2  1    3    3  502    0 0.22313184E+03 0.33180197E+03 -.10647400E+04 0.11373442E+04 0.32000000E+00 0.0000E+00 0.9000E+01
       21  1    1    2  501  503 -.94424717E+01 0.64526364E+01 0.34141593E+01 0.11958920E+02 0.75000000E+00 0.0000E+00 0.9000E+01
#aMCatNLO 2  0  0  1  2 0.21981166D+02 0.00000000D+00  -5  6  0 0.00000000D+00 0.00000000D+00 0.00000000D+00 0.00000000D+00 0.00000000D+00
  <mgrwgt>
 0.1837749838D-02    1    2    0
 0.532618854453781D+03 0.000000000000000D+00 0.000000000000000D+00 0.532618854453781D+03
 0.532618854453781D+03 0.000000000000000D+00 0.000000000000000D+00 -.532618854453781D+03
 0.536773373934873D+03 -.261868634804951D+03 -.427226981033911D+03 0.146296205512885D+03
 0.119945389062539D+03 0.423549219619970D+02 0.929470453972991D+02 -.628792787400535D+02
 0.408518945910150D+03 0.219513712842954D+03 0.334279935636612D+03 -.834169267728320D+02
 0.000000000000000D+00 -.000000000000000D+00 0.000000000000000D+00 0.000000000000000D+00
 0.567057294663134D+03 0.000000000000000D+00 0.000000000000000D+00 0.567057294663134D+03
 0.533599894296778D+03 0.000000000000000D+00 0.000000000000000D+00 -.533599894296778D+03
 0.537070966183712D+03 -.257109390660522D+03 -.430479272676644D+03 0.146296205512885D+03
 0.119764720740587D+03 0.434173095854350D+02 0.922210489398376D+02 -.628792787400535D+02
 0.408463413454314D+03 0.223134552814488D+03 0.331805587353203D+03 -.834169267728320D+02
 0.353580885812997D+02 -.944247173940096D+01 0.645263638360289D+01 0.334574003663563D+02
0.133219554603D-03 0.000000000000D+00 0.000000000000D+00 0.259028047909D-04 0.125430638885D-05  6 -1 2 25 -1 2 21 2 0.19486552D-01 0.36751998D+00 0.26521654D+06 0.26521654D+06 0.26521654D+06 0.10885339D+01  1  2  1  1  6  1       -1 0.183774983833D-02 0.100000000000D+01
  </mgrwgt>
  </event>
  <event>
  7     66 0.16841828E-05 0.47990100E+02 0.75467711E-02 0.94134183E-01
       -1 -1    0    0    0  501 0.00000000E+00 0.00000000E+00 0.12688385E+03 0.12688425E+03 0.32000000E+00 0.0000E+00 0.9000E+01
        2 -1    0    0  503    0 0.00000000E+00 0.00000000E+00 -.24151651E+04 0.24151651E+04 0.32000000E+00 0.0000E+00 0.9000E+01
       24  2    1    2    0    0 0.45027810E+03 0.24336794E+03 -.10430627E+04 0.11645449E+04 0.78782442E+02 0.0000E+00 0.0000E+00
       25  1    1    2    0    0 -.42350063E+03 -.23445287E+03 -.88713431E+03 0.10183090E+04 0.12500000E+03 0.0000E+00 0.9000E+01
       -1  1    3    3    0  502 0.15543108E+03 0.12166288E+03 -.44252234E+03 0.48454803E+03 0.32000000E+00 0.0000E+00 0.9000E+01
        2  1    3    3  502    0 0.29484702E+03 0.12170506E+03 -.60054039E+03 0.67999688E+03 0.32000000E+00 0.0000E+00 0.9000E+01
       21  1    1    2  503  501 -.26777467E+02 -.89150671E+01 -.35808418E+03 0.35919542E+03 0.75000000E+00 0.0000E+00 0.9000E+01
#aMCatNLO 2  0  0  2  1 0.67312283D+02 0.00000000D+00  -5  6  0 0.00000000D+00 0.00000000D+00 0.00000000D+00 0.00000000D+00 0.00000000D+00
  <mgrwgt>
 0.2856898841D-02    1    2    0
 0.509508114110920D+03 0.000000000000000D+00 0.000000000000000D+00 0.509508114110920D+03
 0.509508114110920D+03 0.000000000000000D+00 0.000000000000000D+00 -.509508114110920D+03
 0.514129398175575D+03 -.436832554806959D+03 -.238891492695906D+03 0.284993306364644D+02
 0.194593208469856D+03 0.150249651511391D+03 0.119938586715637D+03 -.301047242132177D+02
 0.310293621576409D+03 0.286582903295568D+03 0.118952905980270D+03 0.160539357675337D+01
 0.000000000000000D+00 -.000000000000000D+00 -.000000000000000D+00 -.000000000000000D+00
 0.511943749638293D+03 0.000000000000000D+00 0.000000000000000D+00 0.511943749638293D+03
 0.598589458877241D+03 0.000000000000000D+00 0.000000000000000D+00 -.598589458877241D+03
 0.500757572244852D+03 -.423500631243190D+03 -.234452872983999D+03 0.284993306364644D+02
 0.199665357986243D+03 0.155428775123724D+03 0.121662881041669D+03 -.301047242132177D+02
 0.318984046662600D+03 0.294849323121485D+03 0.121705059021856D+03 0.160539357675337D+01
 0.911262316218384D+02 -.267774670020199D+02 -.891506707952553D+01 -.866457092389476D+02
0.215604751895D-03 0.000000000000D+00 0.000000000000D+00 0.655502287227D-04 0.525705059734D-06  6 -1 2 25 -1 2 21 2 0.19520566D-01 0.37156277D+00 0.27276138D+06 0.27276138D+06 0.27276138D+06 0.10876236D+01  1  2  1  2  6  2        2 0.285689884095D-02 0.100000000000D+01
  </mgrwgt>
  </event>
  <event>
  7     66 0.16841828E-05 0.13706746E+02 0.75467711E-02 0.94298913E-01
       -1 -1    0    0    0  503 0.00000000E+00 0.00000000E+00 0.54200662E+03 0.54200672E+03 0.32000000E+00 0.0000E+00 0.9000E+01
        2 -1    0    0  501    0 0.00000000E+00 0.00000000E+00 -.11309691E+04 0.11309691E+04 0.32000000E+00 0.0000E+00 0.9000E+01
       24  2    1    2    0    0 -.32841254E+03 0.37287717E+03 0.29380294E+03 0.58276178E+03 0.79993365E+02 0.0000E+00 0.0000E+00
       25  1    1    2    0    0 0.33928173E+03 -.36738626E+03 -.91805785E+03 0.10528722E+04 0.12500000E+03 0.0000E+00 0.9000E+01
       -1  1    3    3    0  502 -.32422742E+03 0.34479367E+03 0.28717711E+03 0.55360355E+03 0.32000000E+00 0.0000E+00 0.9000E+01
        2  1    3    3  502    0 -.41851212E+01 0.28083502E+02 0.66258359E+01 0.29158231E+02 0.32000000E+00 0.0000E+00 0.9000E+01
       21  1    1    2  501  503 -.10869189E+02 -.54909164E+01 0.35292466E+02 0.37341801E+02 0.75000000E+00 0.0000E+00 0.9000E+01
#aMCatNLO 2  0  0  1  2 0.21981166D+02 0.00000000D+00  -5  6  0 0.00000000D+00 0.00000000D+00 0.00000000D+00 0.00000000D+00 0.00000000D+00
  <mgrwgt>
 0.4962679963D-03    1    2    0
 0.755886264564672D+03 0.000000000000000D+00 0.000000000000000D+00 0.755886264564672D+03
 0.755886264564672D+03 0.000000000000000D+00 0.000000000000000D+00 -.755886264564672D+03
 0.758937669928874D+03 0.333821398201171D+03 -.370144716229797D+03 -.558495792273537D+03
 0.718634521356291D+03 -.329395258058848D+03 0.342190628530024D+03 0.539295756519146D+03
 0.342003378441798D+02 -.442614014232354D+01 0.279540876997736D+02 0.192000357543916D+02
 0.000000000000000D+00 -.000000000000000D+00 -.000000000000000D+00 0.000000000000000D+00
 0.810195334401059D+03 0.000000000000000D+00 0.000000000000000D+00 0.810195334401059D+03
 0.756593713103239D+03 0.000000000000000D+00 0.000000000000000D+00 -.756593713103239D+03
 0.760017961728309D+03 0.339281726103459D+03 -.367386257901223D+03 -.558495792273537D+03
 0.717532454573932D+03 -.324232538063887D+03 0.344798740757538D+03 0.539295756519146D+03
 0.342711569178167D+02 -.417999943513754D+01 0.280784335075508D+02 0.192000357543916D+02
 0.549674742842408D+02 -.108691886044347D+02 -.549091636386547D+01 0.536016212978202D+02
0.962439411467D-04 0.000000000000D+00 0.000000000000D+00 0.328954597278D-04 0.140612176195D-05  6 -1 2 25 -1 2 21 2 0.83385363D-01 0.17399466D+00 0.26488301D+06 0.26488301D+06 0.26488301D+06 0.10885748D+01  1  2  1  1  6  1       -1 0.496267996328D-03 0.100000000000D+01
  </mgrwgt>
  </event>
  <event>
  7     66 0.16841828E-05 0.68359643E+02 0.75467711E-02 0.93608392E-01
       -1 -1    0    0    0  501 0.00000000E+00 0.00000000E+00 0.39679800E+03 0.39679813E+03 0.32000000E+00 0.0000E+00 0.9000E+01
        2 -1    0    0  503    0 0.00000000E+00 0.00000000E+00 -.90216178E+03 0.90216184E+03 0.32000000E+00 0.0000E+00 0.9000E+01
       24  2    1    2    0    0 0.53435547E+03 -.18345291E+02 -.37355541E+02 0.54212574E+03 0.81440517E+02 0.0000E+00 0.0000E+00
       25  1    1    2    0    0 -.52124156E+03 -.13625943E+01 -.35865170E+03 0.64494237E+03 0.12500000E+03 0.0000E+00 0.9000E+01
       -1  1    3    3    0  502 0.27088845E+03 0.30523700E+01 -.57794142E+02 0.27700205E+03 0.32000000E+00 0.0000E+00 0.9000E+01
        2  1    3    3  502    0 0.26346702E+03 -.21397661E+02 0.20438601E+02 0.26512368E+03 0.32000000E+00 0.0000E+00 0.9000E+01
       21  1    1    2  503  501 -.13113915E+02 0.19707885E+02 -.10935654E+03 0.11189187E+03 0.75000000E+00 0.0000E+00 0.9000E+01
#aMCatNLO 2  0  0  2  1 0.34611484D+02 0.00000000D+00  -5  6  0 0.00000000D+00 0.00000000D+00 0.00000000D+00 0.00000000D+00 0.00000000D+00
  <mgrwgt>
 0.2648647988D-02    1    2    0
 0.559407850758955D+03 0.000000000000000D+00 0.000000000000000D+00 0.559407850758955D+03
 0.559407850758955D+03 0.000000000000000D+00 0.000000000000000D+00 -.559407850758955D+03
 0.563426583336458D+03 -.527808487233758D+03 0.850633658676894D+01 -.152218125898588D+03
 0.270322354631298D+03 0.267702475525660D+03 0.784087964145175D+01 0.367162173608772D+02
 0.285066763550154D+03 0.260106011708099D+03 -.163472162282207D+02 0.115501908537711D+03
 0.000000000000000D+00 -.000000000000000D+00 0.000000000000000D+00 -.000000000000000D+00
 0.561324590501200D+03 0.000000000000000D+00 0.000000000000000D+00 0.561324590501200D+03
 0.637730621307749D+03 0.000000000000000D+00 0.000000000000000D+00 -.637730621307749D+03
 0.557216272721114D+03 -.521241556353481D+03 -.136259433959304D+01 -.152218125898588D+03
 0.273382546098904D+03 0.270888568653424D+03 0.305274747193280D+01 0.367162173608772D+02
 0.288467287125569D+03 0.263466902689480D+03 -.213980385302945D+02 0.115501908537711D+03
 0.799891058633615D+02 -.131139149894239D+02 0.197078853979548D+02 -.764060308065489D+02
0.202624057284D-03 0.000000000000D+00 0.000000000000D+00 0.968985938743D-04 0.109277340652D-05  6 -1 2 25 -1 2 21 2 0.61045671D-01 0.13879370D+00 0.29972037D+06 0.29972037D+06 0.29972037D+06 0.10845818D+01  1  2  1  2  6  2        2 0.264864798781D-02 0.100000000000D+01
  </mgrwgt>
  </event>
  <event>
  7     66 0.16841828E-05 0.28172647E+02 0.75467711E-02 0.94312413E-01
       -1 -1    0    0    0  501 0.00000000E+00 0.00000000E+00 0.16715523E+03 0.16715554E+03 0.32000000E+00 0.0000E+00 0.9000E+01
        2 -1    0    0  503    0 0.00000000E+00 0.00000000E+00 -.19292485E+04 0.19292485E+04 0.32000000E+00 0.0000E+00 0.9000E+01
       24  2    1    2    0    0 -.38948054E+03 0.31809280E+03 -.51187989E+03 0.72198364E+03 0.79757284E+02 0.0000E+00 0.0000E+00
       25  1    1    2    0    0 0.35490077E+03 -.28566578E+03 -.85895582E+03 0.98030077E+03 0.12500000E+03 0.0000E+00 0.9000E+01
       -1  1    3    3    0  502 -.33730636E+03 0.23851553E+03 -.43208436E+03 0.59779782E+03 0.32000000E+00 0.0000E+00 0.9000E+01
        2  1    3    3  502    0 -.52174185E+02 0.79577273E+02 -.79795534E+02 0.12418582E+03 0.32000000E+00 0.0000E+00 0.9000E+01
       21  1    1    2  503  501 0.34579777E+02 -.32427016E+02 -.39125758E+03 0.39411969E+03 0.75000000E+00 0.0000E+00 0.9000E+01
#aMCatNLO 2  0  0  2  1 0.25604600D+03 0.00000000D+00  -5  6  0 0.00000000D+00 0.00000000D+00 0.00000000D+00 0.00000000D+00 0.00000000D+00
  <mgrwgt>
 0.1919441280D-02    1    2    0
 0.504067052237384D+03 0.000000000000000D+00 0.000000000000000D+00 0.504067052237384D+03
 0.504067052237384D+03 0.000000000000000D+00 0.000000000000000D+00 -.504067052237384D+03
 0.508661567775768D+03 0.371963234592524D+03 -.301666029397480D+03 -.117271263961501D+03
 0.402636781723408D+03 -.323185977920916D+03 0.225272464220476D+03 0.831836434397966D+02
 0.968357549755920D+02 -.487772566716081D+02 0.763935651770043D+02 0.340876205217049D+02
 0.000000000000000D+00 0.000000000000000D+00 -.000000000000000D+00 -.000000000000000D+00
 0.508980486099850D+03 0.000000000000000D+00 0.000000000000000D+00 0.508980486099850D+03
 0.633586198995455D+03 0.000000000000000D+00 0.000000000000000D+00 -.633586198995455D+03
 0.486761793972556D+03 0.354900767154586D+03 -.285665784078771D+03 -.117271263961501D+03
 0.421413184410453D+03 -.337310948516038D+03 0.238518086253957D+03 0.831836434397966D+02
 0.101073080786606D+03 -.521695952439536D+02 0.795747140676367D+02 0.340876205217049D+02
 0.133318625925690D+03 0.345797766054057D+02 -.324270162428224D+02 -.124605712895605D+03
0.121707430579D-03 0.000000000000D+00 0.000000000000D+00 0.995932408851D-04 0.285070841649D-06  6 -1 2 25 -1 2 21 2 0.25716163D-01 0.29680688D+00 0.26424877D+06 0.26424877D+06 0.26424877D+06 0.10886527D+01  1  2  1  2  6  2        2 0.191944127956D-02 0.100000000000D+01
  </mgrwgt>
  </event>
  <event>
  7     66 0.16841828E-05 0.54913220E+02 0.75467711E-02 0.93376530E-01
       -1 -1    0    0    0  503 0.00000000E+00 0.00000000E+00 0.91449548E+03 0.91449554E+03 0.32000000E+00 0.0000E+00 0.9000E+01
        2 -1    0    0  501    0 0.00000000E+00 0.00000000E+00 -.44587224E+03 0.44587235E+03 0.32000000E+00 0.0000E+00 0.9000E+01
       24  2    1    2    0    0 0.62170181E+02 -.46760670E+03 -.31144774E+02 0.47988086E+03 0.82428688E+02 0.0000E+00 0.0000E+00
       25  1    1    2    0    0 -.16631379E+02 0.54123174E+03 0.23759167E+03 0.60438663E+03 0.12500000E+03 0.0000E+00 0.9000E+01
       -1  1    3    3    0  502 0.94441867E+01 -.29928469E+03 -.45670048E+02 0.30289664E+03 0.32000000E+00 0.0000E+00 0.9000E+01
        2  1    3    3  502    0 0.52725995E+02 -.16832201E+03 0.14525274E+02 0.17698422E+03 0.32000000E+00 0.0000E+00 0.9000E+01
       21  1    1    2  501  503 -.45538802E+02 -.73625041E+02 0.26217635E+03 0.27610040E+03 0.75000000E+00 0.0000E+00 0.9000E+01
#aMCatNLO 2  0  0  1  1 0.17286761D+03 0.00000000D+00  -5  6  0 0.00000000D+00 0.00000000D+00 0.00000000D+00 0.00000000D+00 0.00000000D+00
  <mgrwgt>
 0.6816558543D-03    1    2    0
 0.530452928933114D+03 0.000000000000000D+00 0.000000000000000D+00 0.530452928933114D+03
 0.530452928933114D+03 0.000000000000000D+00 0.000000000000000D+00 -.530452928933114D+03
 0.534614708023425D+03 -.402902844182556D+02 0.502981108461690D+03 0.124798171249089D+03
 0.338820457414030D+03 -.461706819399776D+01 -.322019199888562D+03 -.105269273516419D+03
 0.187470692428773D+03 0.449073526122533D+02 -.180961908573129D+03 -.195288977326700D+02
 0.000000000000000D+00 -.000000000000000D+00 -.000000000000000D+00 0.000000000000000D+00
 0.754169438953669D+03 0.000000000000000D+00 0.000000000000000D+00 0.754169438953669D+03
 0.540657488233575D+03 0.000000000000000D+00 0.000000000000000D+00 -.540657488233575D+03
 0.569568240620102D+03 -.166313792084287D+02 0.541231738169138D+03 0.124798171249089D+03
 0.317400862371058D+03 0.944353473465253D+01 -.299286663817371D+03 -.105269273516419D+03
 0.177462984280809D+03 0.527266467570798D+02 -.168320033462900D+03 -.195288977326700D+02
 0.230394839915274D+03 -.455388022833037D+02 -.736250408888673D+02 0.213511950720094D+03
0.142289174178D-03 0.000000000000D+00 0.000000000000D+00 0.406125021020D-04 0.364218501268D-07  6 -1 2 25 -1 2 21 2 0.14069147D+00 0.68595666D-01 0.31254751D+06 0.31254751D+06 0.31254751D+06 0.10832378D+01  1  2  1  1  6  1       -1 0.681655854259D-03 0.100000000000D+01
  </mgrwgt>
  </event>
  <event>
  6     66 -.16841828E-05 0.19999597E+02 0.75467711E-02 0.92863592E-01
       -1 -1    0    0    0  501 0.00000000E+00 0.00000000E+00 0.11208893E+04 0.11208893E+04 0.32000000E+00 0.0000E+00 0.9000E+01
        2 -1    0    0  501    0 0.00000000E+00 0.00000000E+00 -.32400860E+03 0.32400875E+03 0.32000000E+00 0.0000E+00 0.9000E+01
       24  2    1    2    0    0 0.13799663E+03 0.56337375E+03 0.54167238E+03 0.79899613E+03 0.92481352E+02 0.0000E+00 0.0000E+00
       25  1    1    2    0    0 -.13799663E+03 -.56337375E+03 0.25520832E+03 0.64590196E+03 0.12500000E+03 0.0000E+00 0.9000E+01
       -1  1    3    3    0  502 0.13391597E+03 0.53664679E+03 0.53819213E+03 0.77173450E+03 0.32000000E+00 0.0000E+00 0.9000E+01
        2  1    3    3  502    0 0.40806603E+01 0.26726961E+02 0.34802505E+01 0.27261636E+02 0.32000000E+00 0.0000E+00 0.9000E+01
#aMCatNLO 1  0  0  5  4 0.42014601D+01 0.00000000D+00  -5  6  0 0.00000000D+00 0.00000000D+00 0.00000000D+00 0.00000000D+00 0.00000000D+00
  <mgrwgt>
 -.2041685823D-01    9    2    0
 0.602642442673073D+03 0.000000000000000D+00 0.000000000000000D+00 0.602642442673073D+03
 0.602642442673073D+03 -.000000000000000D+00 -.000000000000000D+00 -.602642442673073D+03
 0.605576273503250D+03 -.137996627002461D+03 -.563373755720508D+03 -.121097338250663D+03
 0.569334745924729D+03 0.133917520491953D+03 0.536652899281093D+03 0.134951162705845D+03
 0.303738659181683D+02 0.407910651050843D+01 0.267208564394146D+02 -.138538244551817D+02
 0.000000000000000D+00 0.000000000000000D+00 0.000000000000000D+00 -.000000000000000D+00
 0.602642442673073D+03 0.000000000000000D+00 0.000000000000000D+00 0.602642442673073D+03
 0.602642442673073D+03 -.000000000000000D+00 -.000000000000000D+00 -.602642442673073D+03
 0.604709223396283D+03 -.137842891118135D+03 -.562366683587412D+03 -.121619469739123D+03
 0.570146439944561D+03 0.134062262495580D+03 0.537601055523084D+03 0.134459577035213D+03
 0.555605390651737D+01 -.296738900984976D+00 0.519194627590552D+01 0.195585656551806D+01
 0.248731680987856D+02 0.407736752353977D+01 0.195736817884220D+02 -.147959638616086D+02
0.192190411754D-03 0.000000000000D+00 0.000000000000D+00 0.586343586037D-06 0.000000000000D+00  6 -1 2 25 -1 2 21 0 0.17244452D+00 0.49847492D-01 0.34426666D+06 0.34426666D+06 0.34426666D+06 0.10801571D+01  1  2  2  4  6  5        2 0.608459419784D-03 0.100000000000D+01
0.647605031255D-04 0.000000000000D+00 -.738061786033D-06 0.586343586037D-06 0.000000000000D+00  6 -1 2 25 -1 2 21 2 0.17244452D+00 0.49847492D-01 0.34426666D+06 0.34426666D+06 0.34426666D+06 0.10801571D+01  1  2  3  4  6  5        2 0.239212532287D-03 0.100000000000D+01
-.597126884547D-04 0.000000000000D+00 0.000000000000D+00 0.586343586037D-06 0.000000000000D+00  6 -1 2 25 -1 2 21 2 0.17244452D+00 0.49847492D-01 0.34426666D+06 0.34426666D+06 0.34426666D+06 0.10801571D+01  1  2 15  4  6  5        2 -.220566899971D-03 0.100000000000D+01
0.576930404884D-05 0.000000000000D+00 0.000000000000D+00 0.586343586037D-06 0.000000000000D+00  6 -1 2 25 -1 2 21 2 0.17244452D+00 0.49847492D-01 0.34316853D+06 0.34316853D+06 0.34316853D+06 0.10802585D+01  1  2 12  4  6  5        2 0.213176987937D-04 0.100000000000D+01
0.613811047242D-07 0.000000000000D+00 0.000000000000D+00 0.586343586037D-06 0.000000000000D+00  6 -1 2 25 -1 2 21 2 0.17244452D+00 0.49847492D-01 0.34316853D+06 0.34316853D+06 0.34316853D+06 0.10802585D+01  1  2 12  4  6  5        2 0.226804462212D-06 0.100000000000D+01
-.626523003689D-02 0.000000000000D+00 0.000000000000D+00 0.586343586037D-06 0.000000000000D+00  6 -1 2 25 -1 2 21 2 0.17244452D+00 0.49847492D-01 0.34426666D+06 0.34426666D+06 0.34426666D+06 0.10801571D+01  1  2  4  4  6  5        2 -.231425246895D-01 0.100000000000D+01
-.118841550024D-03 0.000000000000D+00 0.000000000000D+00 0.586343586037D-06 0.000000000000D+00  6 -1 2 25 -1 2 21 2 0.17244452D+00 0.49847492D-01 0.34426666D+06 0.34426666D+06 0.34426666D+06 0.10801571D+01  1  2  5  4  6  5        2 -.438977258515D-03 0.100000000000D+01
0.662569734042D-03 0.000000000000D+00 -.000000000000D+00 0.586343586037D-06 0.000000000000D+00  6 -1 2 25 -1 2 21 2 0.17244452D+00 0.49847492D-01 0.34426666D+06 0.34426666D+06 0.34426666D+06 0.10801571D+01  1  2  6  4  6  5        2 0.244740198497D-02 0.100000000000D+01
0.185634086421D-04 0.000000000000D+00 0.000000000000D+00 0.586343586037D-06 0.311847375542D-08  6 -1 2 25 -1 2 21 2 0.17244452D+00 0.49847492D-01 0.34316853D+06 0.34316853D+06 0.34316853D+06 0.10802585D+01  1  2 11  4  6  5        2 0.685921821186D-04 0.100000000000D+01
  </mgrwgt>
  </event>
  <event>
  7     66 0.16841828E-05 0.35678062E+02 0.75467711E-02 0.89929850E-01
       -1 -1    0    0    0  503 0.00000000E+00 0.00000000E+00 0.10444723E+04 0.10444723E+04 0.32000000E+00 0.0000E+00 0.9000E+01
        2 -1    0    0  501    0 0.00000000E+00 0.00000000E+00 -.88657965E+03 0.88657971E+03 0.32000000E+00 0.0000E+00 0.9000E+01
       24  2    1    2    0    0 0.24203920E+03 0.67023795E+03 0.20286220E+03 0.74569953E+03 0.84337618E+02 0.0000E+00 0.0000E+00
       25  1    1    2    0    0 -.19909272E+03 -.72618701E+03 -.37319179E+03 0.84963674E+03 0.12500000E+03 0.0000E+00 0.9000E+01
       -1  1    3    3    0  502 0.13507037E+03 0.40060975E+03 0.16209351E+03 0.45277653E+03 0.32000000E+00 0.0000E+00 0.9000E+01
        2  1    3    3  502    0 0.10696883E+03 0.26962820E+03 0.40768694E+02 0.29292301E+03 0.32000000E+00 0.0000E+00 0.9000E+01
       21  1    1    2  501  503 -.42946486E+02 0.55949057E+02 0.32822223E+03 0.33571579E+03 0.75000000E+00 0.0000E+00 0.9000E+01
#aMCatNLO 2  0  0  1  1 0.17286761D+03 0.00000000D+00  -5  6  0 0.00000000D+00 0.00000000D+00 0.00000000D+00 0.00000000D+00 0.00000000D+00
  <mgrwgt>
 0.8156208206D-03    1    2    0
 0.792324262892797D+03 0.000000000000000D+00 0.000000000000000D+00 0.792324262892797D+03
 0.792324262892797D+03 0.000000000000000D+00 0.000000000000000D+00 -.792324262892797D+03
 0.795010084467318D+03 -.220891352571159D+03 -.697788570474361D+03 -.284102368310023D+03
 0.483739528582974D+03 0.122115488498345D+03 0.417489292525891D+03 0.211646945663574D+03
 0.305898912735302D+03 0.987758640728137D+02 0.280299277948470D+03 0.724554226464493D+02
 0.000000000000000D+00 -.000000000000000D+00 0.000000000000000D+00 0.000000000000000D+00
 0.116263275053424D+04 0.000000000000000D+00 0.000000000000000D+00 0.116263275053424D+04
 0.796474312811610D+03 0.000000000000000D+00 0.000000000000000D+00 -.796474312811610D+03
 0.814447440626491D+03 -.199092718619154D+03 -.726187005706183D+03 -.284102368310023D+03
 0.472787716194212D+03 0.135070777438203D+03 0.400611632454250D+03 0.211646945663574D+03
 0.298982245661652D+03 0.106968427561304D+03 0.269626316325152D+03 0.724554226464493D+02
 0.372889660863494D+03 -.429464863803535D+02 0.559490569267816D+02 0.366158437722630D+03
0.616532141608D-03 0.000000000000D+00 0.000000000000D+00 0.183510824840D-04 0.237521310009D-07  6 -1 2 25 -1 2 21 2 0.16068798D+00 0.13639681D+00 0.59803926D+06 0.59803926D+06 0.59803926D+06 0.10630578D+01  1  2  1  1  6  1       -1 0.815620820579D-03 0.100000000000D+01
  </mgrwgt>
  </event>
  <event>
  7     66 0.16841828E-05 0.21983441E+03 0.75467711E-02 0.91751750E-01
       21 -1    0    0  503  501 0.00000000E+00 0.00000000E+00 0.25194852E+03 0.25194963E+03 0.75000000E+00 0.0000E+00 0.9000E+01
        2 -1    0    0  501    0 0.00000000E+00 0.00000000E+00 -.19553188E+04 0.19553188E+04 0.32000000E+00 0.0000E+00 0.9000E+01
       24  2    1    2    0    0 -.22556418E+03 -.12122047E+03 -.62528602E+03 0.68056403E+03 0.81309213E+02 0.0000E+00 0.0000E+00
       25  1    1    2    0    0 0.53454642E+03 0.35025817E+03 -.87808800E+03 0.10931991E+04 0.12500000E+03 0.0000E+00 0.9000E+01
       -1  1    3    3    0  502 -.14079595E+03 -.41677175E+02 -.41611453E+03 0.44126170E+03 0.32000000E+00 0.0000E+00 0.9000E+01
        2  1    3    3  502    0 -.84768228E+02 -.79543291E+02 -.20917150E+03 0.23930233E+03 0.32000000E+00 0.0000E+00 0.9000E+01
        1  1    1    2  503    0 -.30898224E+03 -.22903770E+03 -.19999626E+03 0.43350536E+03 0.32000000E+00 0.0000E+00 0.9000E+01
#aMCatNLO 2  0  0  1  1 0.17286761D+03 0.00000000D+00  -5  6  0 0.00000000D+00 0.00000000D+00 0.00000000D+00 0.00000000D+00 0.00000000D+00
  <mgrwgt>
 0.2018315264D-02    1    2    0
 0.429585198534457D+03 0.000000000000000D+00 0.000000000000000D+00 0.429585198534457D+03
 0.429585198534457D+03 0.000000000000000D+00 0.000000000000000D+00 -.429585198534457D+03
 0.434830847120301D+03 0.347082112565417D+03 0.211297447624239D+03 0.913250314643673D+02
 0.244617258804074D+03 -.211418879203443D+03 -.940262444978359D+02 -.793645145314470D+02
 0.179722291144539D+03 -.135663233361974D+03 -.117271203126403D+03 -.119605169329203D+02
 0.000000000000000D+00 -.000000000000000D+00 -.000000000000000D+00 0.000000000000000D+00
 0.877133082994016D+03 0.000000000000000D+00 0.000000000000000D+00 0.877133082994016D+03
 0.561648917572664D+03 0.000000000000000D+00 0.000000000000000D+00 -.561648917572664D+03
 0.657560581093799D+03 0.534546418575886D+03 0.350258165963537D+03 0.913250314643673D+02
 0.166911380845578D+03 -.140796821172946D+03 -.416765885907032D+02 -.793645145314470D+02
 0.116857981254151D+03 -.847673607785442D+02 -.795438769744912D+02 -.119605169329203D+02
 0.497452057373152D+03 -.308982236624396D+03 -.229037700398342D+03 0.315484165421352D+03
0.287550093070D-04 0.000000000000D+00 0.000000000000D+00 0.114583466887D-03 0.348981566073D-09  6 21 2 25 -1 2 1 2 0.38761395D-01 0.30081834D+00 0.42177374D+06 0.42177374D+06 0.42177374D+06 0.10737721D+01  1  2  1  5  6  1       -1 0.201831526424D-02 0.100000000000D+01
  </mgrwgt>
  </event>
  <event>
  7     66 0.16841828E-05 0.21934111E+02 0.75467711E-02 0.90153355E-01
       -1 -1    0    0    0  501 0.00000000E+00 0.00000000E+00 0.17572438E+04 0.17572438E+04 0.32000000E+00 0.0000E+00 0.9000E+01
        2 -1    0    0  503    0 0.00000000E+00 0.00000000E+00 -.55871997E+03 0.55872006E+03 0.32000000E+00 0.0000E+00 0.9000E+01
       24  2    1    2    0    0 -.71488535E+03 -.19853655E+03 0.34259276E+03 0.82147127E+03 0.83471095E+02 0.0000E+00 0.0000E+00
       25  1    1    2    0    0 0.71053190E+03 0.16842570E+03 0.10571990E+04 0.12909367E+04 0.12500000E+03 0.0000E+00 0.9000E+01
       -1  1    3    3    0  502 -.11999969E+03 -.28820325E+02 0.92406266E+02 0.15417379E+03 0.32000000E+00 0.0000E+00 0.9000E+01
        2  1    3    3  502    0 -.59488566E+03 -.16971623E+03 0.25018649E+03 0.66729748E+03 0.32000000E+00 0.0000E+00 0.9000E+01
       21  1    1    2  503  501 0.43534504E+01 0.30110853E+02 -.20126800E+03 0.20355586E+03 0.75000000E+00 0.0000E+00 0.9000E+01
#aMCatNLO 2  0  0  2  1 0.11865871D+02 0.00000000D+00  -5  6  0 0.00000000D+00 0.00000000D+00 0.00000000D+00 0.00000000D+00 0.00000000D+00
  <mgrwgt>
 0.6949447081D-03    1    2    0
 0.790873698894195D+03 0.000000000000000D+00 0.000000000000000D+00 0.790873698894195D+03
 0.790873698894195D+03 0.000000000000000D+00 0.000000000000000D+00 -.790873698894195D+03
 0.793610411612676D+03 0.712708655223835D+03 0.183481311985386D+03 0.269394629384469D+03
 0.123234346881290D+03 -.119652389571543D+03 -.264643810442181D+02 -.130248399999438D+02
 0.664902639294424D+03 -.593056265652292D+03 -.157016930941168D+03 -.256369789384525D+03
 0.000000000000000D+00 0.000000000000000D+00 0.000000000000000D+00 -.000000000000000D+00
 0.791534941765867D+03 0.000000000000000D+00 0.000000000000000D+00 0.791534941765867D+03
 0.124038306873816D+04 0.000000000000000D+00 0.000000000000000D+00 -.124038306873816D+04
 0.788302776930963D+03 0.710531903174063D+03 0.168425699783960D+03 0.269394629384469D+03
 0.124090248393923D+03 -.119992714390644D+03 -.288182543296204D+02 -.130248399999438D+02
 0.669646938270808D+03 -.594892639196381D+03 -.169718298531319D+03 -.256369789384525D+03
 0.449878046908330D+03 0.435345041296189D+01 0.301108530769794D+02 -.448848126972289D+03
0.236164632424D-02 0.000000000000D+00 0.000000000000D+00 0.184266781830D-04 0.132815054731D-06  6 -1 2 25 -1 2 21 2 0.27034510D+00 0.85956893D-01 0.57251932D+06 0.57251932D+06 0.57251932D+06 0.10643780D+01  1  2  1  2  6  2        2 0.694944708134D-03 0.100000000000D+01
  </mgrwgt>
  </event>
  <event>
  7     66 0.16841828E-05 0.26201816E+03 0.75467711E-02 0.84994173E-01
       -1 -1    0    0    0  503 0.00000000E+00 0.00000000E+00 0.90263755E+03 0.90263760E+03 0.32000000E+00 0.0000E+00 0.9000E+01
        2 -1    0    0  501    0 0.00000000E+00 0.00000000E+00 -.22412742E+04 0.22412742E+04 0.32000000E+00 0.0000E+00 0.9000E+01
       24  2    1    2    0    0 0.11642754E+04 -.52661546E+03 -.59866715E+03 0.14132940E+04 0.78336103E+02 0.0000E+00 0.0000E+00
       25  1    1    2    0    0 -.93513398E+03 0.33850833E+03 -.93906036E+03 0.13735075E+04 0.12500000E+03 0.0000E+00 0.9000E+01
       -1  1    3    3    0  502 0.52273941E+03 -.19490533E+03 -.27056837E+03 0.62004187E+03 0.32000000E+00 0.0000E+00 0.9000E+01
        2  1    3    3  502    0 0.64153598E+03 -.33171013E+03 -.32809878E+03 0.79325213E+03 0.32000000E+00 0.0000E+00 0.9000E+01
       21  1    1    2  501  503 -.22914141E+03 0.18810713E+03 0.19909084E+03 0.35711035E+03 0.75000000E+00 0.0000E+00 0.9000E+01
#aMCatNLO 2  0  0  1  2 0.29439175D+01 0.00000000D+00  -5  6  0 0.00000000D+00 0.00000000D+00 0.00000000D+00 0.00000000D+00 0.00000000D+00
  <mgrwgt>
 0.5225894695D-03    1    2    0
 0.115258042722508D+04 0.000000000000000D+00 0.000000000000000D+00 0.115258042722508D+04
 0.115258042722508D+04 0.000000000000000D+00 0.000000000000000D+00 -.115258042722508D+04
 0.115463851676923D+04 -.104305203023413D+04 0.427100586872938D+03 -.217238705861330D+03
 0.501233204333900D+03 0.469988203880059D+03 -.151600067832589D+03 0.858092813953104D+02
 0.649289133347030D+03 0.573063826354069D+03 -.275500519040350D+03 0.131429424466019D+03
 0.000000000000000D+00 -.000000000000000D+00 0.000000000000000D+00 0.000000000000000D+00
 0.167953343161661D+04 0.000000000000000D+00 0.000000000000000D+00 0.167953343161661D+04
 0.120453545496984D+04 0.000000000000000D+00 0.000000000000000D+00 -.120453545496984D+04
 0.102561255553905D+04 -.935133983788725D+03 0.338508332421023D+03 -.217238705861330D+03
 0.564450924654338D+03 0.522737426567758D+03 -.194903043677815D+03 0.858092813953104D+02
 0.734082952646167D+03 0.641537964458462D+03 -.331712417477457D+03 0.131429424466019D+03
 0.559922453746898D+03 -.229141407237495D+03 0.188107128734249D+03 0.474997976646769D+03
0.178327851758D-02 0.000000000000D+00 0.000000000000D+00 0.528138408216D-04 0.368159901052D-08  6 -1 2 25 -1 2 21 2 0.13886729D+00 0.34481135D+00 0.16627020D+07 0.16627020D+07 0.16627020D+07 0.10334739D+01  1  2  1  1  6  1       -1 0.522589469496D-03 0.100000000000D+01
  </mgrwgt>
  </event>
  <event>
  7     66 0.16841828E-05 0.52259413E+02 0.75467711E-02 0.90193345E-01
       -1 -1    0    0    0  503 0.00000000E+00 0.00000000E+00 0.55990568E+03 0.55990577E+03 0.32000000E+00 0.0000E+00 0.9000E+01
        2 -1    0    0  501    0 0.00000000E+00 0.00000000E+00 -.13622995E+04 0.13622996E+04 0.32000000E+00 0.0000E+00 0.9000E+01
       24  2    1    2    0    0 0.44468631E+03 0.58845530E+03 -.52223068E+03 0.90738663E+03 0.81240670E+02 0.0000E+00 0.0000E+00
       25  1    1    2    0    0 -.46027089E+03 -.57825703E+03 -.42978302E+03 0.86404221E+03 0.12500000E+03 0.0000E+00 0.9000E+01
       -1  1    3    3    0  502 0.18104054E+03 0.20017071E+03 -.15319773E+03 0.31034439E+03 0.32000000E+00 0.0000E+00 0.9000E+01
        2  1    3    3  502    0 0.26364577E+03 0.38828459E+03 -.36903295E+03 0.59704224E+03 0.32000000E+00 0.0000E+00 0.9000E+01
       21  1    1    2  501  503 0.15584584E+02 -.10198267E+02 0.14961986E+03 0.15077649E+03 0.75000000E+00 0.0000E+00 0.9000E+01
#aMCatNLO 2  0  0  1  4 0.32351833D+02 0.00000000D+00  -5  6  0 0.00000000D+00 0.00000000D+00 0.00000000D+00 0.00000000D+00 0.00000000D+00
  <mgrwgt>
 0.2693034775D-02    1    2    0
 0.746874008226357D+03 0.000000000000000D+00 0.000000000000000D+00 0.746874008226357D+03
 0.746874008226357D+03 0.000000000000000D+00 0.000000000000000D+00 -.746874008226357D+03
 0.749894917212638D+03 -.452443237613721D+03 -.583379308784419D+03 0.410010448790846D+02
 0.270917190551047D+03 0.183862846685500D+03 0.198320085800732D+03 0.161158714554042D+02
 0.472935908689029D+03 0.268580390928221D+03 0.385059222983687D+03 -.571169163344889D+02
 0.000000000000000D+00 0.000000000000000D+00 -.000000000000000D+00 0.000000000000000D+00
 0.102075552907631D+04 0.000000000000000D+00 0.000000000000000D+00 0.102075552907631D+04
 0.747248765902037D+03 0.000000000000000D+00 0.000000000000000D+00 -.747248765902037D+03
 0.750690734352768D+03 -.460270894796494D+03 -.578257033130732D+03 0.410010448790846D+02
 0.270373960115681D+03 0.181039254737204D+03 0.200167792714178D+03 0.161158714554042D+02
 0.472799429396964D+03 0.263647055730428D+03 0.388287507281924D+03 -.571169163344889D+02
 0.274140171112931D+03 0.155845843288619D+02 -.101982668653707D+02 0.273506763174271D+03
0.825161449641D-03 0.000000000000D+00 0.000000000000D+00 0.192412095110D-03 0.351955882597D-05  6 -1 2 25 -1 2 21 2 0.86139286D-01 0.20958441D+00 0.56808252D+06 0.56808252D+06 0.56808252D+06 0.10646140D+01  1  2  1  1  6  1       -1 0.269303477482D-02 0.100000000000D+01
  </mgrwgt>
  </event>
  <event>
  7     66 0.16841828E-05 0.51860369E+02 0.75467711E-02 0.92593935E-01
       -1 -1    0    0    0  503 0.00000000E+00 0.00000000E+00 0.46395704E+03 0.46395715E+03 0.32000000E+00 0.0000E+00 0.9000E+01
        2 -1    0    0  501    0 0.00000000E+00 0.00000000E+00 -.12980871E+04 0.12980871E+04 0.32000000E+00 0.0000E+00 0.9000E+01
       24  2    1    2    0    0 0.37444926E+03 0.45077429E+03 0.72875284E+02 0.59570843E+03 0.78409321E+02 0.0000E+00 0.0000E+00
       25  1    1    2    0    0 -.29413988E+03 -.40960461E+03 -.93686241E+03 0.10712751E+04 0.12500000E+03 0.0000E+00 0.9000E+01
       -1  1    3    3    0  502 0.22191218E+03 0.20588434E+03 0.35369942E+02 0.30476961E+03 0.32000000E+00 0.0000E+00 0.9000E+01
        2  1    3    3  502    0 0.15253708E+03 0.24488995E+03 0.37505342E+02 0.29093882E+03 0.32000000E+00 0.0000E+00 0.9000E+01
       21  1    1    2  501  503 -.80309381E+02 -.41169677E+02 0.29857055E+02 0.95060744E+02 0.75000000E+00 0.0000E+00 0.9000E+01
#aMCatNLO 2  0  0  1  4 0.32351833D+02 0.00000000D+00  -5  6  0 0.00000000D+00 0.00000000D+00 0.00000000D+00 0.00000000D+00 0.00000000D+00
  <mgrwgt>
 0.1342387011D-02    1    2    0
 0.711374700646266D+03 0.000000000000000D+00 0.000000000000000D+00 0.711374700646266D+03
 0.711374700646266D+03 0.000000000000000D+00 0.000000000000000D+00 -.711374700646266D+03
 0.714705216311105D+03 -.333600948156564D+03 -.429833871602591D+03 -.446241858675844D+03
 0.360082782095287D+03 0.201108547837053D+03 0.195218355143524D+03 0.226063609993760D+03
 0.347961402886139D+03 0.132492400319511D+03 0.234615516459067D+03 0.220178248682084D+03
 0.000000000000000D+00 -.000000000000000D+00 -.000000000000000D+00 0.000000000000000D+00
 0.823690300601382D+03 0.000000000000000D+00 0.000000000000000D+00 0.823690300601382D+03
 0.731166820439813D+03 0.000000000000000D+00 0.000000000000000D+00 -.731166820439813D+03
 0.684872982222101D+03 -.294139879365523D+03 -.409604610215947D+03 -.446241858675844D+03
 0.377807332217067D+03 0.221913339303243D+03 0.205883691323159D+03 0.226063609993760D+03
 0.362928467022658D+03 0.152535920637794D+03 0.244890595772659D+03 0.220178248682084D+03
 0.129248339579370D+03 -.803093805755144D+02 -.411696768798712D+02 0.925234801615691D+02
0.245235749111D-03 0.000000000000D+00 0.000000000000D+00 0.363119591151D-04 0.282204004025D-07  6 -1 2 25 -1 2 21 2 0.71377913D-01 0.19970543D+00 0.36060390D+06 0.36060390D+06 0.36060390D+06 0.10786889D+01  1  2  1  1  6  1       -1 0.134238701135D-02 0.100000000000D+01
  </mgrwgt>
  </event>
  <event>
  7     66 0.16841828E-05 0.48568452E+02 0.75467711E-02 0.94431656E-01
       -3 -1    0    0    0  501 0.00000000E+00 0.00000000E+00 0.22536478E+03 0.22536533E+03 0.50000000E+00 0.0000E+00 0.9000E+01
        4 -1    0    0  503    0 0.00000000E+00 0.00000000E+00 -.12772123E+04 0.12772132E+04 0.15500000E+01 0.0000E+00 0.9000E+01
       24  2    1    2    0    0 0.16388720E+03 -.46972970E+03 -.29250014E+03 0.58265443E+03 0.80155169E+02 0.0000E+00 0.0000E+00
       25  1    1    2    0    0 -.16100482E+03 0.45765333E+03 -.70953047E+03 0.86857792E+03 0.12500000E+03 0.0000E+00 0.9000E+01
       -3  1    3    3    0  502 0.16017074E+02 -.15848599E+03 -.89383605E+02 0.18265824E+03 0.50000000E+00 0.0000E+00 0.9000E+01
        4  1    3    3  502    0 0.14787013E+03 -.31124371E+03 -.20311653E+03 0.39999619E+03 0.15500000E+01 0.0000E+00 0.9000E+01
       21  1    1    2  503  501 -.28823786E+01 0.12076365E+02 -.49816873E+02 0.51346178E+02 0.75000000E+00 0.0000E+00 0.9000E+01
#aMCatNLO 2  0  0  2  1 0.67454405D+01 0.00000000D+00  -5  6  0 0.00000000D+00 0.00000000D+00 0.00000000D+00 0.00000000D+00 0.00000000D+00
  <mgrwgt>
 0.3440031214D-04    1    2    0
 0.524846612387652D+03 0.000000000000000D+00 0.000000000000000D+00 0.524846612387652D+03
 0.524846612387652D+03 0.000000000000000D+00 0.000000000000000D+00 -.524846612387652D+03
 0.529228916089980D+03 -.162450107946631D+03 0.463708679991874D+03 -.151797457666777D+03
 0.165386180227238D+03 0.155606374336796D+02 -.156619834858785D+03 0.508004183213176D+02
 0.355078128458087D+03 0.146889470512951D+03 -.307088845133089D+03 0.100997039345460D+03
 0.000000000000000D+00 -.000000000000000D+00 0.000000000000000D+00 -.000000000000000D+00
 0.526664300446064D+03 0.000000000000000D+00 0.000000000000000D+00 0.526664300446064D+03
 0.546521264705402D+03 0.000000000000000D+00 0.000000000000000D+00 -.546521264705402D+03
 0.523485046464014D+03 -.161004821831046D+03 0.457653332845383D+03 -.151797457666777D+03
 0.167242334896546D+03 0.160173078984559D+02 -.158533157187112D+03 0.508004183213176D+02
 0.359039265491909D+03 0.147869892537439D+03 -.311196540934162D+03 0.100997039345460D+03
 0.234189182989967D+02 -.288237860484932D+01 0.120763652758915D+02 -.198569642593381D+02
0.138615974690D-03 0.000000000000D+00 0.000000000000D+00 0.219240283776D-03 0.900531135361D-05  6 -3 4 25 -3 4 21 2 0.34671226D-01 0.19649207D+00 0.25871994D+06 0.25871994D+06 0.25871994D+06 0.10893407D+01  1  2  1  2  6  2        4 0.344003121449D-04 0.100000000000D+01
  </mgrwgt>
  </event>
  <event>
  7     66 0.16841828E-05 0.52738184E+02 0.75467711E-02 0.94239125E-01
       -1 -1    0    0    0  501 0.00000000E+00 0.00000000E+00 0.18201228E+03 0.18201256E+03 0.32000000E+00 0.0000E+00 0.9000E+01
        2 -1    0    0  503    0 0.00000000E+00 0.00000000E+00 -.15701836E+04 0.15701836E+04 0.32000000E+00 0.0000E+00 0.9000E+01
       24  2    1    2    0    0 -.49940302E+03 -.76319676E+02 -.52702571E+03 0.73455206E+03 0.81133050E+02 0.0000E+00 0.0000E+00
       25  1    1    2    0    0 0.49052960E+03 0.63760561E+02 -.76025635E+03 0.91558693E+03 0.12500000E+03 0.0000E+00 0.9000E+01
       -1  1    3    3    0  502 -.31800507E+03 -.79568786E+02 -.30422388E+03 0.44722555E+03 0.32000000E+00 0.0000E+00 0.9000E+01
        2  1    3    3  502    0 -.18139794E+03 0.32491103E+01 -.22280182E+03 0.28732651E+03 0.32000000E+00 0.0000E+00 0.9000E+01
       21  1    1    2  503  501 0.88734154E+01 0.12559115E+02 -.10088927E+03 0.10205722E+03 0.75000000E+00 0.0000E+00 0.9000E+01
#aMCatNLO 2  0  0  2  1 0.67454405D+01 0.00000000D+00  -5  6  0 0.00000000D+00 0.00000000D+00 0.00000000D+00 0.00000000D+00 0.00000000D+00
  <mgrwgt>
 0.2534975829D-02    1    2    0
 0.516146083475627D+03 0.000000000000000D+00 0.000000000000000D+00 0.516146083475627D+03
 0.516146083475627D+03 0.000000000000000D+00 0.000000000000000D+00 -.516146083475627D+03
 0.520525864983839D+03 0.494982008164539D+03 0.700623381089952D+02 -.735272499776482D+02
 0.331828249900957D+03 -.315139266055459D+03 -.755109064323791D+02 0.713816042977391D+02
 0.179938052066458D+03 -.179842742109080D+03 0.544856832338389D+01 0.214564567990914D+01
 0.000000000000000D+00 0.000000000000000D+00 0.000000000000000D+00 -.000000000000000D+00
 0.517861127002349D+03 0.000000000000000D+00 0.000000000000000D+00 0.517861127002349D+03
 0.551863844829916D+03 0.000000000000000D+00 0.000000000000000D+00 -.551863844829916D+03
 0.515476435658973D+03 0.490529601621641D+03 0.637605611904268D+02 -.735272499776482D+02
 0.335492634817251D+03 -.318007197788321D+03 -.795700743956032D+02 0.713816042977391D+02
 0.181437625941973D+03 -.181395819194150D+03 0.325039858457879D+01 0.214564567990914D+01
 0.373182754140683D+02 0.887341536083030D+01 0.125591146205975D+02 -.340027178275668D+02
0.118279284210D-03 0.000000000000D+00 0.000000000000D+00 0.211473890290D-03 0.566089576248D-05  6 -1 2 25 -1 2 21 2 0.28001711D-01 0.24156498D+00 0.26771254D+06 0.26771254D+06 0.26771254D+06 0.10882297D+01  1  2  1  2  6  2        2 0.253497582910D-02 0.100000000000D+01
  </mgrwgt>
  </event>
  <event>
  6     66 0.16841828E-05 0.19021817E+02 0.75467711E-02 0.95595867E-01
       -1 -1    0    0    0  501 0.00000000E+00 0.00000000E+00 0.10092845E+03 0.10092896E+03 0.32000000E+00 0.0000E+00 0.9000E+01
        2 -1    0    0  501    0 -.00000000E+00 -.00000000E+00 -.22212094E+04 0.22212094E+04 0.32000000E+00 0.0000E+00 0.9000E+01
       24  2    1    2    0    0 0.13819243E+03 -.42888497E+03 -.12954517E+04 0.13739782E+04 0.81126409E+02 0.0000E+00 0.0000E+00
       25  1    1    2    0    0 -.13819243E+03 0.42888497E+03 -.82482930E+03 0.94816024E+03 0.12500000E+03 0.0000E+00 0.9000E+01
       -1  1    3    3    0  502 0.12481602E+03 -.40850122E+03 -.12637431E+04 0.13339787E+04 0.32000000E+00 0.0000E+00 0.9000E+01
        2  1    3    3  502    0 0.13376410E+02 -.20383755E+02 -.31708548E+02 0.39999503E+02 0.32000000E+00 0.0000E+00 0.9000E+01
#aMCatNLO 1  0  0  4  5 0.77311983D+01 0.00000000D+00  -5  6  0 0.00000000D+00 0.00000000D+00 0.00000000D+00 0.00000000D+00 0.00000000D+00
  <mgrwgt>
 0.4350401562D-03    9    2    0
 0.473480562886948D+03 0.000000000000000D+00 0.000000000000000D+00 0.473480562886948D+03
 0.473480562886948D+03 -.000000000000000D+00 -.000000000000000D+00 -.473480562886948D+03
 0.478255577146587D+03 -.138192428379812D+03 0.428884973911828D+03 0.100319135577199D+03
 0.441621814631736D+03 0.124817752850705D+03 -.408507257324358D+03 -.112125717144901D+03
 0.270837339955732D+02 0.133746755291069D+02 -.203777165874703D+02 0.118065815677027D+02
 0.000000000000000D+00 0.000000000000000D+00 0.000000000000000D+00 -.000000000000000D+00
 0.473480562886948D+03 0.000000000000000D+00 0.000000000000000D+00 0.473480562886948D+03
 0.473480562886948D+03 -.000000000000000D+00 -.000000000000000D+00 -.473480562886948D+03
 0.478010475060570D+03 -.138120599173886D+03 0.428649889148335D+03 0.100254610290992D+03
 0.370930620121194D+03 0.109336735775698D+03 -.343379474373353D+03 -.878950495334559D+02
 0.270941729096678D+02 0.133787450618722D+02 -.203910354754534D+02 0.118029258435022D+02
 0.709258576824654D+02 0.154051183363152D+02 -.648793792995288D+02 -.241624866010379D+02
0.201312563257D-06 0.000000000000D+00 0.000000000000D+00 0.177842969001D-04 0.000000000000D+00  6 -1 2 25 -1 2 21 0 0.15527495D-01 0.34172457D+00 0.21120513D+06 0.21120513D+06 0.21120513D+06 0.10960117D+01  1  2  2  3  6  4       -1 0.422871401232D-05 0.100000000000D+01
0.613906926085D-07 0.000000000000D+00 -.773093249722D-09 0.177842969001D-04 0.000000000000D+00  6 -1 2 25 -1 2 21 2 0.15527495D-01 0.34172457D+00 0.21120513D+06 0.21120513D+06 0.21120513D+06 0.10960117D+01  1  2  3  3  6  4       -1 0.154906763476D-05 0.100000000000D+01
-.593354568623D-07 0.000000000000D+00 0.000000000000D+00 0.177842969001D-04 0.000000000000D+00  6 -1 2 25 -1 2 21 2 0.15527495D-01 0.34172457D+00 0.21120513D+06 0.21120513D+06 0.21120513D+06 0.10960117D+01  1  2 15  3  6  4       -1 -.149720799544D-05 0.100000000000D+01
0.582895181402D-04 0.000000000000D+00 0.000000000000D+00 0.177842969001D-04 0.000000000000D+00  6 -1 2 25 -1 2 21 2 0.15527495D-01 0.34172457D+00 0.21105607D+06 0.21105607D+06 0.21105607D+06 0.10960352D+01  1  2 12  3  6  4       -1 0.147091724998D-02 0.100000000000D+01
0.126794569840D-08 0.000000000000D+00 0.000000000000D+00 0.177842969001D-04 0.000000000000D+00  6 -1 2 25 -1 2 21 2 0.15527495D-01 0.34172457D+00 0.21105607D+06 0.21105607D+06 0.21105607D+06 0.10960352D+01  1  2 12  3  6  4       -1 0.319962020502D-07 0.100000000000D+01
-.540897101760D-04 0.000000000000D+00 0.000000000000D+00 0.177842969001D-04 0.000000000000D+00  6 -1 2 25 -1 2 21 2 0.15527495D-01 0.34172457D+00 0.21120513D+06 0.21120513D+06 0.21120513D+06 0.10960117D+01  1  2  4  3  6  4       -1 -.136484238648D-02 0.100000000000D+01
-.740555617104D-04 0.000000000000D+00 0.000000000000D+00 0.177842969001D-04 0.000000000000D+00  6 -1 2 25 -1 2 21 2 0.15527495D-01 0.34172457D+00 0.21120513D+06 0.21120513D+06 0.21120513D+06 0.10960117D+01  1  2  5  3  6  4       -1 -.186863951106D-02 0.100000000000D+01
0.868897382307D-04 0.000000000000D+00 -.000000000000D+00 0.177842969001D-04 0.000000000000D+00  6 -1 2 25 -1 2 21 2 0.15527495D-01 0.34172457D+00 0.21120513D+06 0.21120513D+06 0.21120513D+06 0.10960117D+01  1  2  6  3  6  4       -1 0.219248351121D-02 0.100000000000D+01
0.320480687526D-07 0.000000000000D+00 0.000000000000D+00 0.177842969001D-04 0.729008581835D-07  6 -1 2 25 -1 2 21 2 0.15527495D-01 0.34172457D+00 0.21105607D+06 0.21105607D+06 0.21105607D+06 0.10960352D+01  1  2 11  3  6  4       -1 0.808722711405D-06 0.100000000000D+01
  </mgrwgt>
  </event>
  <event>
  6     66 -.16841828E-05 0.18791590E+02 0.75467711E-02 0.94704429E-01
       -1 -1    0    0    0  501 0.00000000E+00 0.00000000E+00 0.14052896E+03 0.14052932E+03 0.32000000E+00 0.0000E+00 0.9000E+01
        2 -1    0    0  501    0 0.00000000E+00 0.00000000E+00 -.20600595E+04 0.20600595E+04 0.32000000E+00 0.0000E+00 0.9000E+01
       24  2    1    2    0    0 0.46356555E+03 -.15248531E+03 -.54071477E+03 0.73263015E+03 0.78928398E+02 0.0000E+00 0.0000E+00
       25  1    1    2    0    0 -.46356555E+03 0.15248531E+03 -.13788158E+04 0.14679587E+04 0.12500000E+03 0.0000E+00 0.9000E+01
       -1  1    3    3    0  502 0.26840445E+02 -.28753851E+00 -.59113236E+02 0.64922794E+02 0.32000000E+00 0.0000E+00 0.9000E+01
        2  1    3    3  502    0 0.43672510E+03 -.15219777E+03 -.48160153E+03 0.66770736E+03 0.32000000E+00 0.0000E+00 0.9000E+01
#aMCatNLO 1  0  0  1  2 0.12373906D+01 0.00000000D+00  -5  6  0 0.00000000D+00 0.00000000D+00 0.00000000D+00 0.00000000D+00 0.00000000D+00
  <mgrwgt>
 -.6777092803D-02   11    2    0
 0.538050593738302D+03 0.000000000000000D+00 0.000000000000000D+00 0.538050593738302D+03
 0.538050593738302D+03 0.000000000000000D+00 0.000000000000000D+00 -.538050593738302D+03
 0.542416032625323D+03 -.463565548451514D+03 0.152485308257084D+03 -.201110331667929D+03
 0.273117822499771D+02 0.268337071825545D+02 -.285041391516053D+00 -.507979920038301D+01
 0.506373372601303D+03 0.436731841268960D+03 -.152200266865568D+03 0.206190130868312D+03
 0.000000000000000D+00 -.000000000000000D+00 0.000000000000000D+00 0.000000000000000D+00
 0.564426713817262D+03 0.000000000000000D+00 0.000000000000000D+00 0.564426713817262D+03
 0.538065462163340D+03 0.000000000000000D+00 0.000000000000000D+00 -.538065462163340D+03
 0.541862050126063D+03 -.463010785358112D+03 0.152200947780555D+03 -.201110331667929D+03
 0.273394083711499D+02 0.268616690717131D+02 -.299374097170766D+00 -.507979920038301D+01
 0.506900440406415D+03 0.437250275537723D+03 -.152466005912502D+03 0.206190130868312D+03
 0.263902770769742D+02 -.110115925132358D+01 0.564432229118361D+00 0.263612516539224D+02
0.130105934704D-06 0.000000000000D+00 0.000000000000D+00 0.878863533670D-05 0.000000000000D+00  6 -1 2 25 -1 2 21 0 0.21619870D-01 0.31693226D+00 0.24655383D+06 0.24655383D+06 0.24655383D+06 0.10909129D+01  1  2  2  1  6  1       -1 0.195842648881D-05 0.100000000000D+01
0.428395672569D-07 0.000000000000D+00 -.499641046943D-09 0.878863533670D-05 0.000000000000D+00  6 -1 2 25 -1 2 21 2 0.21619870D-01 0.31693226D+00 0.24655383D+06 0.24655383D+06 0.24655383D+06 0.10909129D+01  1  2  3  1  6  1       -1 0.767424037330D-06 0.100000000000D+01
-.388715375371D-07 0.000000000000D+00 0.000000000000D+00 0.878863533670D-05 0.000000000000D+00  6 -1 2 25 -1 2 21 2 0.21619870D-01 0.31693226D+00 0.24655383D+06 0.24655383D+06 0.24655383D+06 0.10909129D+01  1  2 15  1  6  1       -1 -.696341120699D-06 0.100000000000D+01
0.816716409016D-08 0.000000000000D+00 0.000000000000D+00 0.878863533670D-05 0.000000000000D+00  6 -1 2 25 -1 2 21 2 0.22680002D-01 0.31693226D+00 0.24717290D+06 0.24717290D+06 0.24717290D+06 0.10908309D+01  1  2 12  1  6  1       -1 0.135261012593D-06 0.100000000000D+01
0.235526315237D-12 0.000000000000D+00 0.000000000000D+00 0.878863533670D-05 0.000000000000D+00  6 -1 2 25 -1 2 21 2 0.22689853D-01 0.31693226D+00 0.24717290D+06 0.24717290D+06 0.24717290D+06 0.10908309D+01  1  2 12  1  6  1       -1 0.389791059148D-11 0.100000000000D+01
-.372922221347D-03 0.000000000000D+00 0.000000000000D+00 0.878863533670D-05 0.000000000000D+00  6 -1 2 25 -1 2 21 2 0.21619870D-01 0.31693226D+00 0.24655383D+06 0.24655383D+06 0.24655383D+06 0.10909129D+01  1  2  4  1  6  1       -1 -.668049410956D-02 0.100000000000D+01
-.376204246141D-03 0.000000000000D+00 -.431441513650D-06 0.878863533670D-05 0.000000000000D+00  6 -1 2 25 -1 2 21 2 0.22680012D-01 0.31693226D+00 0.24655383D+06 0.24655383D+06 0.24655383D+06 0.10909129D+01  1  2  5  1  6  1       -1 -.623208399850D-02 0.100000000000D+01
0.375794715628D-03 0.000000000000D+00 0.430947627843D-06 0.878863533670D-05 0.000000000000D+00  6 -1 2 25 -1 2 21 2 0.21619870D-01 0.31693226D+00 0.24655383D+06 0.24655383D+06 0.24655383D+06 0.10909129D+01  1  2  6  1  6  1       -1 0.673195170588D-02 0.100000000000D+01
0.156906834995D-09 0.000000000000D+00 0.000000000000D+00 0.878863533670D-05 0.000000000000D+00  6 21 2 25 -1 2 1 2 0.22680002D-01 0.31693226D+00 0.24717290D+06 0.24717290D+06 0.24717290D+06 0.10908309D+01  1  2 12  5  6  1       -1 0.298417169074D-07 0.100000000000D+01
0.456310172331D-14 0.000000000000D+00 0.000000000000D+00 0.878863533670D-05 0.000000000000D+00  6 21 2 25 -1 2 1 2 0.22689853D-01 0.31693226D+00 0.24717290D+06 0.24717290D+06 0.24717290D+06 0.10908309D+01  1  2 12  5  6  1       -1 0.867130247020D-12 0.100000000000D+01
-.314677218290D-05 0.000000000000D+00 -.360910467104D-08 0.878863533670D-05 0.000000000000D+00  6 21 2 25 -1 2 1 2 0.22680012D-01 0.31693226D+00 0.24655383D+06 0.24655383D+06 0.24655383D+06 0.10909129D+01  1  2  5  5  6  1       -1 -.598661017412D-03 0.100000000000D+01
  </mgrwgt>
  </event>
  <event>
  6     66 -.16841828E-05 0.14771776E+02 0.75467711E-02 0.94961081E-01
       -1 -1    0    0    0  501 0.00000000E+00 0.00000000E+00 0.21070270E+03 0.21070294E+03 0.32000000E+00 0.0000E+00 0.9000E+01
        2 -1    0    0  501    0 -.00000000E+00 -.00000000E+00 -.19156014E+04 0.19156014E+04 0.32000000E+00 0.0000E+00 0.9000E+01
       24  2    1    2    0    0 -.33618375E+03 -.33397132E+03 -.16201378E+03 0.50745439E+03 0.81884913E+02 0.0000E+00 0.0000E+00
       25  1    1    2    0    0 0.33618375E+03 0.33397132E+03 -.15428849E+04 0.16188499E+04 0.12500000E+03 0.0000E+00 0.9000E+01
       -1  1    3    3    0  502 -.33932840E+03 -.31953463E+03 -.15784788E+03 0.49209978E+03 0.32000000E+00 0.0000E+00 0.9000E+01
        2  1    3    3  502    0 0.31446488E+01 -.14436694E+02 -.41659043E+01 0.15354612E+02 0.32000000E+00 0.0000E+00 0.9000E+01
#aMCatNLO 1  0  0  5  4 0.77290276D-01 0.00000000D+00  -5  6  0 0.00000000D+00 0.00000000D+00 0.00000000D+00 0.00000000D+00 0.00000000D+00
  <mgrwgt>
 -.3991070122D-02    7    2    0
 0.635313041282228D+03 0.000000000000000D+00 0.000000000000000D+00 0.635313041282228D+03
 0.635313041282228D+03 -.000000000000000D+00 -.000000000000000D+00 -.635313041282228D+03
 0.638823067256919D+03 0.336183747778931D+03 0.333971320166472D+03 -.409772566547730D+03
 0.611706895569689D+03 -.339333626930334D+03 -.319539285350590D+03 0.396147271654679D+03
 0.200961197378472D+02 0.314987915140315D+01 -.144320348158820D+02 0.136252948930516D+02
 0.000000000000000D+00 0.000000000000000D+00 0.000000000000000D+00 0.000000000000000D+00
 0.635313041282228D+03 0.000000000000000D+00 0.000000000000000D+00 0.635313041282228D+03
 0.635313041282228D+03 -.000000000000000D+00 -.000000000000000D+00 -.635313041282228D+03
 0.638822840497366D+03 0.336183796610098D+03 0.333971096433093D+03 -.409772355320879D+03
 0.611707112528916D+03 -.339333580171890D+03 -.319539499587217D+03 0.396147473915640D+03
 0.120714354923886D+02 0.196827743871736D+01 -.865736790083322D+01 0.817896202465558D+01
 0.802469404578482D+01 0.118150612307491D+01 -.577422894504238D+01 0.544591938058447D+01
0.569818958159D-06 0.000000000000D+00 0.000000000000D+00 0.605850641131D-05 0.000000000000D+00  6 -1 2 25 -1 2 21 0 0.32415820D-01 0.29470792D+00 0.23569010D+06 0.23569010D+06 0.23569010D+06 0.10923901D+01  1  2  2  4  6  5        2 0.525390511585D-05 0.100000000000D+01
0.208081547121D-06 0.000000000000D+00 -.218825483611D-08 0.605850641131D-05 0.000000000000D+00  6 -1 2 25 -1 2 21 2 0.32415820D-01 0.29470792D+00 0.23569010D+06 0.23569010D+06 0.23569010D+06 0.10923901D+01  1  2  3  4  6  5        2 0.228946723208D-05 0.100000000000D+01
-.174413498484D-06 0.000000000000D+00 0.000000000000D+00 0.605850641131D-05 0.000000000000D+00  6 -1 2 25 -1 2 21 2 0.32415820D-01 0.29470792D+00 0.23569010D+06 0.23569010D+06 0.23569010D+06 0.10923901D+01  1  2 15  4  6  5        2 -.191902643525D-05 0.100000000000D+01
-.115026098683D-01 0.000000000000D+00 0.000000000000D+00 0.605850641131D-05 0.000000000000D+00  6 -1 2 25 -1 2 21 2 0.32415820D-01 0.29470792D+00 0.23569010D+06 0.23569010D+06 0.23569010D+06 0.10923901D+01  1  2  4  4  6  5        2 -.126560229589D+00 0.100000000000D+01
-.357570038249D-02 0.000000000000D+00 0.000000000000D+00 0.605850641131D-05 0.000000000000D+00  6 -1 2 25 -1 2 21 2 0.32415820D-01 0.29470792D+00 0.23569010D+06 0.23569010D+06 0.23569010D+06 0.10923901D+01  1  2  5  4  6  5        2 -.393425028347D-01 0.100000000000D+01
0.110479614477D-01 0.000000000000D+00 -.000000000000D+00 0.605850641131D-05 0.000000000000D+00  6 -1 2 25 -1 2 21 2 0.32415820D-01 0.29470792D+00 0.23569010D+06 0.23569010D+06 0.23569010D+06 0.10923901D+01  1  2  6  4  6  5        2 0.121557851072D+00 0.100000000000D+01
0.366710373225D-02 0.000000000000D+00 0.000000000000D+00 0.605850641131D-05 0.270550435347D-02  6 -1 2 25 -1 2 21 2 0.32415820D-01 0.29470792D+00 0.23569028D+06 0.23569028D+06 0.23569028D+06 0.10923901D+01  1  2 11  4  6  5        2 0.403481868838D-01 0.100000000000D+01
  </mgrwgt>
  </event>
  <event>
  7     66 0.16841828E-05 0.41997668E+02 0.75467711E-02 0.93802666E-01
       -1 -1    0    0    0  503 0.00000000E+00 0.00000000E+00 0.31439004E+03 0.31439020E+03 0.32000000E+00 0.0000E+00 0.9000E+01
        2 -1    0    0  501    0 0.00000000E+00 0.00000000E+00 -.10886927E+04 0.10886928E+04 0.32000000E+00 0.0000E+00 0.9000E+01
       24  2    1    2    0    0 0.27251653E+03 -.45133742E+03 -.48502812E+03 0.72129551E+03 0.83929845E+02 0.0000E+00 0.0000E+00
       25  1    1    2    0    0 -.24242584E+03 0.40127381E+03 -.34943662E+03 0.59793136E+03 0.12500000E+03 0.0000E+00 0.9000E+01
       -1  1    3    3    0  502 0.25971483E+03 -.38249536E+03 -.43859937E+03 0.63727859E+03 0.32000000E+00 0.0000E+00 0.9000E+01
        2  1    3    3  502    0 0.12801700E+02 -.68842054E+02 -.46428753E+02 0.84016923E+02 0.32000000E+00 0.0000E+00 0.9000E+01
       21  1    1    2  501  503 -.30090685E+02 0.50063613E+02 0.60162039E+02 0.83856116E+02 0.75000000E+00 0.0000E+00 0.9000E+01
#aMCatNLO 2  0  0  1  2 0.23696275D+02 0.00000000D+00  -5  6  0 0.00000000D+00 0.00000000D+00 0.00000000D+00 0.00000000D+00 0.00000000D+00
  <mgrwgt>
 0.2891775314D-03    1    2    0
 0.510053017800381D+03 0.000000000000000D+00 0.000000000000000D+00 0.510053017800381D+03
 0.510053017800381D+03 0.000000000000000D+00 0.000000000000000D+00 -.510053017800381D+03
 0.514258846104376D+03 -.257175492143599D+03 0.425813648618554D+03 0.371572831011205D+02
 0.438935503471842D+03 0.246403145730723D+03 -.360346537472743D+03 -.458283636352955D+02
 0.669116860245444D+02 0.107723464128759D+02 -.654671111458117D+02 0.867108053417499D+01
 0.000000000000000D+00 -.000000000000000D+00 0.000000000000000D+00 0.000000000000000D+00
 0.662667380803876D+03 0.000000000000000D+00 0.000000000000000D+00 0.662667380803876D+03
 0.516508187367121D+03 0.000000000000000D+00 0.000000000000000D+00 -.516508187367121D+03
 0.486617530055828D+03 -.242425843808612D+03 0.401273805678691D+03 0.371572831011205D+02
 0.464607455776014D+03 0.259718417448482D+03 -.382499925081336D+03 -.458283636352955D+02
 0.705519656496421D+02 0.127981116015957D+02 -.688374938447881D+02 0.867108053417499D+01
 0.157398616689514D+03 -.300906852414661D+02 0.500636132474330D+02 0.146159193436756D+03
0.187316639712D-04 0.000000000000D+00 0.000000000000D+00 0.773742367064D-05 0.147033419655D-07  6 -1 2 25 -1 2 21 2 0.48367632D-01 0.16749092D+00 0.28942590D+06 0.28942590D+06 0.28942590D+06 0.10857067D+01  1  2  1  1  6  1       -1 0.289177531409D-03 0.100000000000D+01
  </mgrwgt>
  </event>
  <event>
  7     66 0.16841828E-05 0.42963007E+02 0.75467711E-02 0.94751666E-01
       -1 -1    0    0    0  503 0.00000000E+00 0.00000000E+00 0.14089686E+03 0.14089722E+03 0.32000000E+00 0.0000E+00 0.9000E+01
        2 -1    0    0  501    0 0.00000000E+00 0.00000000E+00 -.22691855E+04 0.22691855E+04 0.32000000E+00 0.0000E+00 0.9000E+01
       24  2    1    2    0    0 -.15279006E+03 0.43067327E+03 -.62843534E+03 0.78109679E+03 0.79730486E+02 0.0000E+00 0.0000E+00
       25  1    1    2    0    0 0.18550724E+03 -.44016557E+03 -.15137110E+04 0.15922012E+04 0.12500000E+03 0.0000E+00 0.9000E+01
       -1  1    3    3    0  502 -.12604526E+03 0.26635808E+03 -.35994384E+03 0.46518137E+03 0.32000000E+00 0.0000E+00 0.9000E+01
        2  1    3    3  502    0 -.26744804E+02 0.16431518E+03 -.26849150E+03 0.31591542E+03 0.32000000E+00 0.0000E+00 0.9000E+01
       21  1    1    2  501  503 -.32717181E+02 0.94923072E+01 0.13857721E+02 0.36784736E+02 0.75000000E+00 0.0000E+00 0.9000E+01
#aMCatNLO 2  0  0  1  2 0.23696275D+02 0.00000000D+00  -5  6  0 0.00000000D+00 0.00000000D+00 0.00000000D+00 0.00000000D+00 0.00000000D+00
  <mgrwgt>
 0.1518684683D-02    1    2    0
 0.510536944885485D+03 0.000000000000000D+00 0.000000000000000D+00 0.510536944885485D+03
 0.510536944885485D+03 0.000000000000000D+00 0.000000000000000D+00 -.510536944885485D+03
 0.515075328323438D+03 0.168851761155806D+03 -.435333281930226D+03 -.177908994280610D+03
 0.332607122127519D+03 -.136594018512211D+03 0.269419797072900D+03 0.139221207945606D+03
 0.173391439320012D+03 -.322577426435949D+02 0.165913484857326D+03 0.386877863350035D+02
 0.000000000000000D+00 -.000000000000000D+00 0.000000000000000D+00 0.000000000000000D+00
 0.622734068090690D+03 0.000000000000000D+00 0.000000000000000D+00 0.622734068090690D+03
 0.513413461335811D+03 0.000000000000000D+00 0.000000000000000D+00 -.513413461335811D+03
 0.524819283321615D+03 0.185507244354022D+03 -.440165573611172D+03 -.177908994280610D+03
 0.325910815041804D+03 -.126046858910242D+03 0.266359726644703D+03 0.139221207945606D+03
 0.170911916342421D+03 -.267432042556581D+02 0.164313539802646D+03 0.386877863350035D+02
 0.114505514720662D+03 -.327171811881225D+02 0.949230716382313D+01 0.109320606754879D+03
0.111087495606D-03 0.000000000000D+00 0.000000000000D+00 0.197596192263D-03 0.110159865804D-05  6 -1 2 25 -1 2 21 2 0.21676418D-01 0.34910466D+00 0.24451288D+06 0.24451288D+06 0.24451288D+06 0.10911849D+01  1  2  1  1  6  1       -1 0.151868468280D-02 0.100000000000D+01
  </mgrwgt>
  </event>
  <event>
  7     66 0.16841828E-05 0.11943861E+03 0.75467711E-02 0.93567590E-01
       -1 -1    0    0    0  503 0.00000000E+00 0.00000000E+00 0.72820663E+03 0.72820670E+03 0.32000000E+00 0.0000E+00 0.9000E+01
        2 -1    0    0  501    0 0.00000000E+00 0.00000000E+00 -.46567268E+03 0.46567279E+03 0.32000000E+00 0.0000E+00 0.9000E+01
       24  2    1    2    0    0 0.13505393E+03 0.45480347E+03 0.48917531E+02 0.48395932E+03 0.82084946E+02 0.0000E+00 0.0000E+00
       25  1    1    2    0    0 -.25821297E+03 -.37553042E+03 0.27894667E+02 0.47339217E+03 0.12500000E+03 0.0000E+00 0.9000E+01
       -1  1    3    3    0  502 0.82411726E+01 0.14427718E+03 0.32577616E+02 0.14813921E+03 0.32000000E+00 0.0000E+00 0.9000E+01
        2  1    3    3  502    0 0.12681276E+03 0.31052629E+03 0.16339915E+02 0.33582012E+03 0.32000000E+00 0.0000E+00 0.9000E+01
       21  1    1    2  501  503 0.12315904E+03 -.79273057E+02 0.18572175E+03 0.23652800E+03 0.75000000E+00 0.0000E+00 0.9000E+01
#aMCatNLO 2  0  0  1  2 0.23696275D+02 0.00000000D+00  -5  6  0 0.00000000D+00 0.00000000D+00 0.00000000D+00 0.00000000D+00 0.00000000D+00
  <mgrwgt>
 0.1073018518D-02    1    2    0
 0.471478895506570D+03 0.000000000000000D+00 0.000000000000000D+00 0.471478895506570D+03
 0.471478895506570D+03 0.000000000000000D+00 0.000000000000000D+00 -.471478895506570D+03
 0.476191228332506D+03 -.196616716491084D+03 -.415177715671671D+03 -.101201357075178D+02
 0.136691000053261D+03 0.265899362297959D+02 0.132463051768959D+03 0.207592076657588D+02
 0.330075562627372D+03 0.170026780261288D+03 0.282714663902712D+03 -.106390719582410D+02
 0.000000000000000D+00 0.000000000000000D+00 -.000000000000000D+00 0.000000000000000D+00
 0.671945249584335D+03 0.000000000000000D+00 0.000000000000000D+00 0.671945249584335D+03
 0.504661990599348D+03 0.000000000000000D+00 0.000000000000000D+00 -.504661990599348D+03
 0.472677954301903D+03 -.258212968994394D+03 -.375530416849812D+03 -.101201357075178D+02
 0.145993175547316D+03 0.823937096995656D+01 0.144274652553727D+03 0.207592076657588D+02
 0.335593907733688D+03 0.126814559303426D+03 0.310528820891897D+03 -.106390719582410D+02
 0.222342202600776D+03 0.123159038721012D+03 -.792730565958128D+02 0.167283258984986D+03
0.131388154801D-03 0.000000000000D+00 0.000000000000D+00 0.764301420716D-04 0.235124414908D-07  6 -1 2 25 -1 2 21 2 0.11203167D+00 0.71641879D-01 0.30193422D+06 0.30193422D+06 0.30193422D+06 0.10843454D+01  1  2  1  1  6  1       -1 0.107301851764D-02 0.100000000000D+01
  </mgrwgt>
  </event>
  <event>
  7     66 0.16841828E-05 0.76586370E+02 0.75467711E-02 0.94933409E-01
       -1 -1    0    0    0  501 0.00000000E+00 0.00000000E+00 0.24371051E+03 0.24371072E+03 0.32000000E+00 0.0000E+00 0.9000E+01
        2 -1    0    0  503    0 0.00000000E+00 0.00000000E+00 -.98886518E+03 0.98886523E+03 0.32000000E+00 0.0000E+00 0.9000E+01
       24  2    1    2    0    0 0.45664486E+03 0.92349106E+02 -.40215771E+03 0.62172392E+03 0.88073448E+02 0.0000E+00 0.0000E+00
       25  1    1    2    0    0 -.45917556E+03 -.74753217E+02 -.30850352E+03 0.57203992E+03 0.12500000E+03 0.0000E+00 0.9000E+01
       -1  1    3    3    0  502 0.22811252E+03 0.90130705E+02 -.19667616E+03 0.31438906E+03 0.32000000E+00 0.0000E+00 0.9000E+01
        2  1    3    3  502    0 0.22853234E+03 0.22184005E+01 -.20548154E+03 0.30733486E+03 0.32000000E+00 0.0000E+00 0.9000E+01
       21  1    1    2  503  501 0.25307065E+01 -.17595889E+02 -.34493445E+02 0.38812112E+02 0.75000000E+00 0.0000E+00 0.9000E+01
#aMCatNLO 2  0  0  2  1 0.67454405D+01 0.00000000D+00  -5  6  0 0.00000000D+00 0.00000000D+00 0.00000000D+00 0.00000000D+00 0.00000000D+00
  <mgrwgt>
 0.3633195019D-02    1    2    0
 0.479509306092083D+03 0.000000000000000D+00 0.000000000000000D+00 0.479509306092083D+03
 0.479509306092083D+03 0.000000000000000D+00 0.000000000000000D+00 -.479509306092083D+03
 0.483611453487619D+03 -.457899817213462D+03 -.836234370783721D+02 0.398737521621130D+02
 0.244549678154288D+03 0.228759119912033D+03 0.856360300823347D+02 -.118440066774590D+02
 0.230857480542258D+03 0.229140697301429D+03 -.201259300396255D+01 -.280297454846541D+02
 0.000000000000000D+00 0.000000000000000D+00 -.000000000000000D+00 -.000000000000000D+00
 0.483872811398141D+03 0.000000000000000D+00 0.000000000000000D+00 0.483872811398141D+03
 0.498045900765147D+03 0.000000000000000D+00 0.000000000000000D+00 -.498045900765147D+03
 0.483368554494376D+03 -.459175565357757D+03 -.747532175955088D+02 0.398737521621130D+02
 0.245559261167267D+03 0.228112513400336D+03 0.901318560832963D+02 -.118440066774590D+02
 0.230255544435380D+03 0.228532345441960D+03 0.221725012019317D+01 -.280297454846541D+02
 0.227353520662646D+02 0.253070651546088D+01 -.175958886079806D+02 -.141730893670061D+02
0.128037413966D-03 0.000000000000D+00 0.000000000000D+00 0.490027535114D-05 0.987810602297D-07  6 -1 2 25 -1 2 21 2 0.37493468D-01 0.15213119D+00 0.23683534D+06 0.23683534D+06 0.23683534D+06 0.10922309D+01  1  2  1  2  6  2        2 0.363319501915D-02 0.100000000000D+01
  </mgrwgt>
  </event>
  <event>
  7     66 0.16841828E-05 0.63876436E+02 0.75467711E-02 0.91870552E-01
       -1 -1    0    0    0  501 0.00000000E+00 0.00000000E+00 0.35389735E+03 0.35389750E+03 0.32000000E+00 0.0000E+00 0.9000E+01
        2 -1    0    0  503    0 0.00000000E+00 0.00000000E+00 -.15587872E+04 0.15587872E+04 0.32000000E+00 0.0000E+00 0.9000E+01
       24  2    1    2    0    0 -.36909728E+03 0.50718969E+03 -.14530232E+03 0.64879634E+03 0.79685309E+02 0.0000E+00 0.0000E+00
       25  1    1    2    0    0 0.38138741E+03 -.48068478E+03 -.86927044E+03 0.10713404E+04 0.12500000E+03 0.0000E+00 0.9000E+01
       -1  1    3    3    0  502 -.20105123E+03 0.23596254E+03 -.38773635E+02 0.31241545E+03 0.32000000E+00 0.0000E+00 0.9000E+01
        2  1    3    3  502    0 -.16804605E+03 0.27122716E+03 -.10652868E+03 0.33638090E+03 0.32000000E+00 0.0000E+00 0.9000E+01
       21  1    1    2  503  501 -.12290130E+02 -.26504911E+02 -.19031710E+03 0.19254797E+03 0.75000000E+00 0.0000E+00 0.9000E+01
#aMCatNLO 2  0  0  2  1 0.32248057D+03 0.00000000D+00  -5  6  0 0.00000000D+00 0.00000000D+00 0.00000000D+00 0.00000000D+00 0.00000000D+00
  <mgrwgt>
 0.2153627737D-02    1    2    0
 0.694380854586365D+03 0.000000000000000D+00 0.000000000000000D+00 0.694380854586365D+03
 0.694380854586365D+03 0.000000000000000D+00 0.000000000000000D+00 -.694380854586365D+03
 0.697720250928380D+03 0.375239806402518D+03 -.493942707485473D+03 -.293945977976367D+03
 0.355911220143852D+03 -.204212823800481D+03 0.229144817353786D+03 0.180173726995974D+03
 0.335130238100498D+03 -.171026982602037D+03 0.264797890131687D+03 0.113772250980394D+03
 0.000000000000000D+00 -.000000000000000D+00 -.000000000000000D+00 -.000000000000000D+00
 0.696729073089601D+03 0.000000000000000D+00 0.000000000000000D+00 0.696729073089601D+03
 0.791769174099157D+03 0.000000000000000D+00 0.000000000000000D+00 -.791769174099157D+03
 0.691768351846449D+03 0.381387407488131D+03 -.480684782427478D+03 -.293945977976367D+03
 0.358556039175266D+03 -.201051761744805D+03 0.235961968182895D+03 0.180173726995974D+03
 0.338744593022599D+03 -.168045516158119D+03 0.271227724814503D+03 0.113772250980394D+03
 0.994292631444443D+02 -.122901295852071D+02 -.265049105699200D+02 -.950401010095555D+02
0.332135505479D-03 0.000000000000D+00 0.000000000000D+00 0.190280473683D-03 0.138240907635D-05  6 -1 2 25 -1 2 21 2 0.54445650D-01 0.23981295D+00 0.41248039D+06 0.41248039D+06 0.41248039D+06 0.10744670D+01  1  2  1  2  6  2        2 0.215362773672D-02 0.100000000000D+01
  </mgrwgt>
  </event>
  <event>
  7     66 0.16841828E-05 0.68461445E+02 0.75467711E-02 0.94094041E-01
       -1 -1    0    0    0  501 0.00000000E+00 0.00000000E+00 0.53021306E+03 0.53021315E+03 0.32000000E+00 0.0000E+00 0.9000E+01
        2 -1    0    0  503    0 0.00000000E+00 0.00000000E+00 -.57097836E+03 0.57097845E+03 0.32000000E+00 0.0000E+00 0.9000E+01
       24  2    1    2    0    0 0.85722672E+02 0.49370048E+03 -.42804503E+02 0.50962556E+03 0.82446610E+02 0.0000E+00 0.0000E+00
       25  1    1    2    0    0 -.87942386E+02 -.50572644E+03 0.60560491E+02 0.53177596E+03 0.12500000E+03 0.0000E+00 0.9000E+01
       -1  1    3    3    0  502 0.87554497E+02 0.26632312E+03 -.28503571E+02 0.28179133E+03 0.32000000E+00 0.0000E+00 0.9000E+01
        2  1    3    3  502    0 -.18318246E+01 0.22737735E+03 -.14300931E+02 0.22783423E+03 0.32000000E+00 0.0000E+00 0.9000E+01
       21  1    1    2  503  501 0.22197136E+01 0.12025960E+02 -.58521295E+02 0.59790094E+02 0.75000000E+00 0.0000E+00 0.9000E+01
#aMCatNLO 2  0  0  2  1 0.32248057D+03 0.00000000D+00  -5  6  0 0.00000000D+00 0.00000000D+00 0.00000000D+00 0.00000000D+00 0.00000000D+00
  <mgrwgt>
 0.1544516435D-02    1    2    0
 0.520589157626480D+03 0.000000000000000D+00 0.000000000000000D+00 0.520589157626480D+03
 0.520589157626480D+03 0.000000000000000D+00 0.000000000000000D+00 -.520589157626480D+03
 0.524828372266141D+03 -.868171426376379D+02 -.499630098789322D+03 0.515011501185717D+02
 0.285601436132513D+03 0.881612038756801D+02 0.269603435760164D+03 -.333132087685886D+02
 0.230748506854305D+03 -.134406123804218D+01 0.230026663029157D+03 -.181879413499831D+02
 0.000000000000000D+00 0.000000000000000D+00 0.000000000000000D+00 -.000000000000000D+00
 0.521246428497346D+03 0.000000000000000D+00 0.000000000000000D+00 0.521246428497346D+03
 0.580795542283652D+03 0.000000000000000D+00 0.000000000000000D+00 -.580795542283652D+03
 0.530820556012802D+03 -.879423857806397D+02 -.505726438902905D+03 0.515011501185717D+02
 0.282319172042524D+03 0.875558428006111D+02 0.266323711703993D+03 -.333132087685886D+02
 0.228110402797990D+03 -.183317066434863D+01 0.227376766929751D+03 -.181879413499831D+02
 0.607918399276812D+02 0.221971364437724D+01 0.120259602691609D+02 -.595491137863054D+02
0.117609903123D-03 0.000000000000D+00 0.000000000000D+00 0.540110685408D-04 0.229008954421D-05  6 -1 2 25 -1 2 21 2 0.81570892D-01 0.87842450D-01 0.27472084D+06 0.27472084D+06 0.27472084D+06 0.10873916D+01  1  2  1  2  6  2        2 0.154451643455D-02 0.100000000000D+01
  </mgrwgt>
  </event>
  <event>
  7     66 0.16841828E-05 0.15020457E+03 0.75467711E-02 0.89805518E-01
       -1 -1    0    0    0  503 0.00000000E+00 0.00000000E+00 0.66230036E+03 0.66230044E+03 0.32000000E+00 0.0000E+00 0.9000E+01
        2 -1    0    0  501    0 0.00000000E+00 0.00000000E+00 -.96589964E+03 0.96589970E+03 0.32000000E+00 0.0000E+00 0.9000E+01
       24  2    1    2    0    0 -.68411460E+03 -.27416140E+03 -.91944678E+02 0.74710309E+03 0.80820383E+02 0.0000E+00 0.0000E+00
       25  1    1    2    0    0 0.62472131E+03 0.10508909E+03 -.25904064E+03 0.69573521E+03 0.12500000E+03 0.0000E+00 0.9000E+01
       -1  1    3    3    0  502 -.24395838E+03 -.60126841E+02 -.46891670E+02 0.25559707E+03 0.32000000E+00 0.0000E+00 0.9000E+01
        2  1    3    3  502    0 -.44015622E+03 -.21403456E+03 -.45053007E+02 0.49150602E+03 0.32000000E+00 0.0000E+00 0.9000E+01
       21  1    1    2  501  503 0.59393295E+02 0.16907231E+03 0.47386037E+02 0.18536183E+03 0.75000000E+00 0.0000E+00 0.9000E+01
#aMCatNLO 2  0  0  1  2 0.11465913D+02 0.00000000D+00  -5  6  0 0.00000000D+00 0.00000000D+00 0.00000000D+00 0.00000000D+00 0.00000000D+00
  <mgrwgt>
 0.6387521064D-03    1    2    0
 0.693988230968388D+03 0.000000000000000D+00 0.000000000000000D+00 0.693988230968388D+03
 0.693988230968388D+03 0.000000000000000D+00 0.000000000000000D+00 -.693988230968388D+03
 0.697263886555914D+03 0.653477093858794D+03 0.186946933730702D+03 -.925767749795391D+02
 0.236075269804240D+03 -.233561135367962D+03 -.305357919902851D+02 0.157573622887654D+02
 0.454637305576622D+03 -.419915958490833D+03 -.156411141740417D+03 0.768194126907737D+02
 0.000000000000000D+00 0.000000000000000D+00 0.000000000000000D+00 0.000000000000000D+00
 0.848911535772091D+03 0.000000000000000D+00 0.000000000000000D+00 0.848911535772091D+03
 0.753570453328527D+03 0.000000000000000D+00 0.000000000000000D+00 -.753570453328527D+03
 0.652315790739499D+03 0.624721309392585D+03 0.105089091599931D+03 -.925767749795391D+02
 0.251748749630340D+03 -.243955306676478D+03 -.601244278020656D+02 0.157573622887654D+02
 0.495432394007021D+03 -.440159297931045D+03 -.214036976502246D+03 0.768194126907737D+02
 0.202985054723758D+03 0.593932952149370D+02 0.169072312704380D+03 0.953410824435642D+02
0.165616338566D-03 0.000000000000D+00 0.000000000000D+00 0.199503531087D-03 0.383255561281D-07  6 -1 2 25 -1 2 21 2 0.10189228D+00 0.14859982D+00 0.61278352D+06 0.61278352D+06 0.61278352D+06 0.10623227D+01  1  2  1  1  6  1       -1 0.638752106450D-03 0.100000000000D+01
  </mgrwgt>
  </event>
  <event>
  7     66 0.16841828E-05 0.14897415E+03 0.75467711E-02 0.91192577E-01
       -1 -1    0    0    0  503 0.00000000E+00 0.00000000E+00 0.31712830E+03 0.31712846E+03 0.32000000E+00 0.0000E+00 0.9000E+01
        2 -1    0    0  501    0 0.00000000E+00 0.00000000E+00 -.18243981E+04 0.18243982E+04 0.32000000E+00 0.0000E+00 0.9000E+01
       24  2    1    2    0    0 -.32854253E+03 0.49948634E+03 -.56146008E+03 0.82330589E+03 0.71891321E+02 0.0000E+00 0.0000E+00
       25  1    1    2    0    0 0.17779767E+03 -.56431474E+03 -.97908990E+03 0.11507846E+04 0.12500000E+03 0.0000E+00 0.9000E+01
       -1  1    3    3    0  502 -.31424699E+02 0.84449121E+02 -.10694811E+03 0.13984694E+03 0.32000000E+00 0.0000E+00 0.9000E+01
        2  1    3    3  502    0 -.29711783E+03 0.41503722E+03 -.45451197E+03 0.68345895E+03 0.32000000E+00 0.0000E+00 0.9000E+01
       21  1    1    2  501  503 0.15074487E+03 0.64828399E+02 0.33280145E+02 0.16743616E+03 0.75000000E+00 0.0000E+00 0.9000E+01
#aMCatNLO 2  0  0  1  2 0.11465913D+02 0.00000000D+00  -5  6  0 0.00000000D+00 0.00000000D+00 0.00000000D+00 0.00000000D+00 0.00000000D+00
  <mgrwgt>
 0.8236885268D-04    1    2    0
 0.611721383917431D+03 0.000000000000000D+00 0.000000000000000D+00 0.611721383917431D+03
 0.611721383917431D+03 0.000000000000000D+00 0.000000000000000D+00 -.611721383917431D+03
 0.615994831871860D+03 0.253509038347377D+03 -.531754773962230D+03 -.129594215678814D+03
 0.915767440641215D+02 -.202727375711504D+02 0.892362499099451D+02 0.349397578221577D+01
 0.515871191898880D+03 -.233236300776226D+03 0.442518524052285D+03 0.126100239896598D+03
 0.000000000000000D+00 0.000000000000000D+00 0.000000000000000D+00 0.000000000000000D+00
 0.902943240439478D+03 0.000000000000000D+00 0.000000000000000D+00 0.902943240439478D+03
 0.640757538077029D+03 0.000000000000000D+00 0.000000000000000D+00 -.640757538077029D+03
 0.618451931642625D+03 0.177797666574478D+03 -.564314735564967D+03 -.129594215678814D+03
 0.901661604096334D+02 -.314194350346554D+02 0.844425705337783D+02 0.349397578221577D+01
 0.525780118493132D+03 -.297123097639209D+03 0.415043765583767D+03 0.126100239896598D+03
 0.309302567971117D+03 0.150744866099387D+03 0.648283994474215D+02 0.262185702362449D+03
0.147183620054D-04 0.000000000000D+00 0.000000000000D+00 0.184299336584D-05 0.456051581796D-09  6 -1 2 25 -1 2 21 2 0.48788950D-01 0.28067646D+00 0.46877865D+06 0.46877865D+06 0.46877865D+06 0.10704951D+01  1  2  1  1  6  1       -1 0.823688526813D-04 0.100000000000D+01
  </mgrwgt>
  </event>
  <event>
  7     66 0.16841828E-05 0.39774285E+02 0.75467711E-02 0.91213430E-01
       -1 -1    0    0    0  503 0.00000000E+00 0.00000000E+00 0.26005187E+03 0.26005206E+03 0.32000000E+00 0.0000E+00 0.9000E+01
        2 -1    0    0  501    0 0.00000000E+00 0.00000000E+00 -.27548299E+04 0.27548299E+04 0.32000000E+00 0.0000E+00 0.9000E+01
       24  2    1    2    0    0 -.60046448E+03 0.25679388E+03 -.20272503E+04 0.21314129E+04 0.81709467E+02 0.0000E+00 0.0000E+00
       25  1    1    2    0    0 0.59925716E+03 -.18893620E+03 -.49565115E+03 0.81000068E+03 0.12500000E+03 0.0000E+00 0.9000E+01
       -1  1    3    3    0  502 -.17543771E+03 0.11625227E+03 -.63706209E+03 0.67092562E+03 0.32000000E+00 0.0000E+00 0.9000E+01
        2  1    3    3  502    0 -.42502677E+03 0.14054161E+03 -.13901882E+04 0.14604873E+04 0.32000000E+00 0.0000E+00 0.9000E+01
       21  1    1    2  501  503 0.12073266E+01 -.67857682E+02 0.28123403E+02 0.73468435E+02 0.75000000E+00 0.0000E+00 0.9000E+01
#aMCatNLO 2  0  0  1  2 0.17153168D+02 0.00000000D+00  -5  6  0 0.00000000D+00 0.00000000D+00 0.00000000D+00 0.00000000D+00 0.00000000D+00
  <mgrwgt>
 0.6133435860D-03    1    2    0
 0.755360162720327D+03 0.000000000000000D+00 0.000000000000000D+00 0.755360162720327D+03
 0.755360162720327D+03 0.000000000000000D+00 0.000000000000000D+00 -.755360162720327D+03
 0.758321850206271D+03 0.599859000208721D+03 -.222762703603699D+03 0.387263458451771D+03
 0.237051146155496D+03 -.175242492295434D+03 0.105494652721229D+03 -.119808985618552D+03
 0.515347329078887D+03 -.424616507913286D+03 0.117268050882470D+03 -.267454472833219D+03
 0.000000000000000D+00 0.000000000000000D+00 -.000000000000000D+00 0.000000000000000D+00
 0.939666159777366D+03 0.000000000000000D+00 0.000000000000000D+00 0.939666159777366D+03
 0.762395880240915D+03 0.000000000000000D+00 0.000000000000000D+00 -.762395880240915D+03
 0.748601372374674D+03 0.599257157700265D+03 -.188936199321937D+03 0.387263458451771D+03
 0.242168833870273D+03 -.175433885559908D+03 0.116251894008203D+03 -.119808985618552D+03
 0.521473829732874D+03 -.425030598716115D+03 0.140541987366042D+03 -.267454472833219D+03
 0.189818004040460D+03 0.120732657575741D+01 -.678576820523090D+02 0.177270279536451D+03
0.260810968231D-03 0.000000000000D+00 0.000000000000D+00 0.716140788107D-04 0.966952370345D-07  6 -1 2 25 -1 2 21 2 0.40007958D-01 0.42381960D+00 0.46692412D+06 0.46692412D+06 0.46692412D+06 0.10706175D+01  1  2  1  1  6  1       -1 0.613343586001D-03 0.100000000000D+01
  </mgrwgt>
  </event>
  <event>
  7     66 0.16841828E-05 0.53530567E+02 0.75467711E-02 0.90489910E-01
       -1 -1    0    0    0  501 0.00000000E+00 0.00000000E+00 0.42657777E+03 0.42657789E+03 0.32000000E+00 0.0000E+00 0.9000E+01
        2 -1    0    0  503    0 0.00000000E+00 0.00000000E+00 -.15259300E+04 0.15259300E+04 0.32000000E+00 0.0000E+00 0.9000E+01
       24  2    1    2    0    0 -.50389381E+02 -.66070519E+03 -.48602962E+03 0.82559141E+03 0.79410046E+02 0.0000E+00 0.0000E+00
       25  1    1    2    0    0 0.99528172E+02 0.71277315E+03 -.27406268E+03 0.78018381E+03 0.12500000E+03 0.0000E+00 0.9000E+01
       -1  1    3    3    0  502 -.44460260E+02 -.54644854E+03 -.43704348E+03 0.70113467E+03 0.32000000E+00 0.0000E+00 0.9000E+01
        2  1    3    3  502    0 -.59291205E+01 -.11425665E+03 -.48986137E+02 0.12445674E+03 0.32000000E+00 0.0000E+00 0.9000E+01
       21  1    1    2  503  501 -.49138791E+02 -.52067964E+02 -.33925993E+03 0.34673269E+03 0.75000000E+00 0.0000E+00 0.9000E+01
#aMCatNLO 2  0  0  2  2 0.52279251D+02 0.00000000D+00  -5  6  0 0.00000000D+00 0.00000000D+00 0.00000000D+00 0.00000000D+00 0.00000000D+00
  <mgrwgt>
 0.3853293655D-03    1    2    0
 0.706337041509205D+03 0.000000000000000D+00 0.000000000000000D+00 0.706337041509205D+03
 0.706337041509205D+03 0.000000000000000D+00 0.000000000000000D+00 -.706337041509205D+03
 0.709635411850909D+03 0.743595542193821D+02 0.686104227818079D+03 0.108115970232254D+03
 0.583516844606833D+03 -.643555895236266D+02 -.567536184460402D+03 -.119385700002596D+03
 0.119521826560668D+03 -.100039646957555D+02 -.118568043357677D+03 0.112697297703411D+02
 0.000000000000000D+00 -.000000000000000D+00 -.000000000000000D+00 -.000000000000000D+00
 0.713492347542747D+03 0.000000000000000D+00 0.000000000000000D+00 0.713492347542747D+03
 0.912310765493902D+03 0.000000000000000D+00 0.000000000000000D+00 -.912310765493902D+03
 0.738420940815931D+03 0.995281716727253D+02 0.712773151752861D+03 0.108115970232254D+03
 0.561109069444813D+03 -.444608860441017D+02 -.546455553600004D+03 -.119385700002596D+03
 0.114957090604860D+03 -.592849473483535D+01 -.114249633791170D+03 0.112697297703411D+02
 0.211316012171046D+03 -.491387908937883D+02 -.520679643616866D+02 -.198818417951156D+03
0.835346634780D-04 0.000000000000D+00 0.000000000000D+00 0.599598310745D-04 0.730455248673D-07  6 -1 2 25 -1 2 21 2 0.65627300D-01 0.23475825D+00 0.53635245D+06 0.53635245D+06 0.53635245D+06 0.10663629D+01  1  2  1  2  6  2        2 0.385329365549D-03 0.100000000000D+01
  </mgrwgt>
  </event>
  <event>
  7     66 0.16841828E-05 0.57560632E+02 0.75467711E-02 0.94222513E-01
       -1 -1    0    0    0  501 0.00000000E+00 0.00000000E+00 0.78784389E+03 0.78784395E+03 0.32000000E+00 0.0000E+00 0.9000E+01
        2 -1    0    0  503    0 0.00000000E+00 0.00000000E+00 -.37515857E+03 0.37515871E+03 0.32000000E+00 0.0000E+00 0.9000E+01
       24  2    1    2    0    0 -.65006555E+02 0.49809828E+03 0.32464860E+03 0.60351188E+03 0.80635777E+02 0.0000E+00 0.0000E+00
       25  1    1    2    0    0 0.84498357E+02 -.48262014E+03 0.11928481E+03 0.51953444E+03 0.12500000E+03 0.0000E+00 0.9000E+01
       -1  1    3    3    0  502 -.56938809E+02 0.20970543E+03 0.17186142E+03 0.27704665E+03 0.32000000E+00 0.0000E+00 0.9000E+01
        2  1    3    3  502    0 -.80677466E+01 0.28839284E+03 0.15278719E+03 0.32646523E+03 0.32000000E+00 0.0000E+00 0.9000E+01
       21  1    1    2  503  501 -.19491801E+02 -.15478143E+02 -.31248091E+02 0.39956338E+02 0.75000000E+00 0.0000E+00 0.9000E+01
#aMCatNLO 2  0  0  2  2 0.52279251D+02 0.00000000D+00  -5  6  0 0.00000000D+00 0.00000000D+00 0.00000000D+00 0.00000000D+00 0.00000000D+00
  <mgrwgt>
 0.3676548185D-02    1    2    0
 0.515639569439395D+03 0.000000000000000D+00 0.000000000000000D+00 0.515639569439395D+03
 0.515639569439395D+03 0.000000000000000D+00 0.000000000000000D+00 -.515639569439395D+03
 0.520062654854552D+03 0.747250555857848D+02 -.490380965791367D+03 -.937168044247794D+02
 0.225646192970550D+03 -.612227513945729D+02 0.206302992716378D+03 0.678752849721242D+02
 0.285570291053688D+03 -.135023041912119D+02 0.284077973074989D+03 0.258415194526552D+02
 0.000000000000000D+00 -.000000000000000D+00 -.000000000000000D+00 -.000000000000000D+00
 0.518653689952312D+03 0.000000000000000D+00 0.000000000000000D+00 0.518653689952312D+03
 0.569867153294747D+03 0.000000000000000D+00 0.000000000000000D+00 -.569867153294747D+03
 0.514266475326370D+03 0.844983566490715D+02 -.482620136273469D+03 -.937168044247794D+02
 0.227651091394999D+03 -.569395781743622D+02 0.209704195333839D+03 0.678752849721242D+02
 0.289661885144313D+03 -.806697700644107D+01 0.288394083607332D+03 0.258415194526552D+02
 0.569413913813770D+02 -.194918014682683D+02 -.154781426677022D+02 -.512134633424359D+02
0.423448921859D-03 0.000000000000D+00 0.000000000000D+00 0.321643611625D-03 0.329211228311D-05  6 -1 2 25 -1 2 21 2 0.12120619D+00 0.57716445D-01 0.26850473D+06 0.26850473D+06 0.26850473D+06 0.10881337D+01  1  2  1  2  6  2        2 0.367654818541D-02 0.100000000000D+01
  </mgrwgt>
  </event>
  <event>
  6     66 0.16841828E-05 0.20085255E+02 0.75467711E-02 0.95348050E-01
       -1 -1    0    0    0  501 0.00000000E+00 0.00000000E+00 0.83125069E+02 0.83125685E+02 0.32000000E+00 0.0000E+00 0.9000E+01
        2 -1    0    0  501    0 0.00000000E+00 0.00000000E+00 -.27254480E+04 0.27254480E+04 0.32000000E+00 0.0000E+00 0.9000E+01
       24  2    1    2    0    0 -.35630673E+03 -.29228017E+03 -.11646337E+04 0.12556498E+04 0.88896438E+02 0.0000E+00 0.0000E+00
       25  1    1    2    0    0 0.35630673E+03 0.29228017E+03 -.14776892E+04 0.15529239E+04 0.12500000E+03 0.0000E+00 0.9000E+01
       -1  1    3    3    0  502 -.15286576E+02 -.17971038E+02 -.22783750E+02 0.32799989E+02 0.32000000E+00 0.0000E+00 0.9000E+01
        2  1    3    3  502    0 -.34102015E+03 -.27430913E+03 -.11418499E+04 0.12228498E+04 0.32000000E+00 0.0000E+00 0.9000E+01
#aMCatNLO 1  0  0  2  2 0.52279251D+02 0.00000000D+00  -5  6  0 0.00000000D+00 0.00000000D+00 0.00000000D+00 0.00000000D+00 0.00000000D+00
  <mgrwgt>
 0.2870303738D-02    7    2    0
 0.475976828388702D+03 0.000000000000000D+00 0.000000000000000D+00 0.475976828388702D+03
 0.475976828388702D+03 0.000000000000000D+00 0.000000000000000D+00 -.475976828388702D+03
 0.480032922843902D+03 0.356306731460912D+03 0.292280173567479D+03 -.492384023813314D+02
 0.335249143712666D+02 -.152823585406336D+02 -.179677168513507D+02 0.238228997434396D+02
 0.438395819562235D+03 -.341024372920278D+03 -.274312456716129D+03 0.254155026378918D+02
 0.000000000000000D+00 0.000000000000000D+00 0.000000000000000D+00 -.000000000000000D+00
 0.511810636299192D+03 0.000000000000000D+00 0.000000000000000D+00 0.511810636299192D+03
 0.563546973355228D+03 0.000000000000000D+00 0.000000000000000D+00 -.563546973355228D+03
 0.442406897005805D+03 0.344681442933297D+03 0.242629646058884D+03 -.492384023813314D+02
 0.360569880512089D+02 -.161592826223513D+02 -.217129781529393D+02 0.238228997434396D+02
 0.479325917250495D+03 -.352590200575300D+03 -.323709032360792D+03 0.254155026378918D+02
 0.117567807346912D+03 0.240680402643551D+02 0.102792364454848D+03 -.517363370560366D+02
0.656857316628D-04 0.000000000000D+00 0.000000000000D+00 0.152087335880D-05 0.000000000000D+00  6 -1 2 25 -1 2 21 0 0.12788521D-01 0.41929973D+00 0.22031166D+06 0.22031166D+06 0.22031166D+06 0.10946136D+01  1  2  2  2  6  2        2 0.959784640861D-03 0.100000000000D+01
0.172814794301D-04 0.000000000000D+00 -.252250505036D-06 0.152087335880D-05 0.000000000000D+00  6 -1 2 25 -1 2 21 2 0.12788521D-01 0.41929973D+00 0.22031166D+06 0.22031166D+06 0.22031166D+06 0.10946136D+01  1  2  3  2  6  2        2 0.302555709269D-03 0.100000000000D+01
-.192366317890D-04 0.000000000000D+00 0.000000000000D+00 0.152087335880D-05 0.000000000000D+00  6 -1 2 25 -1 2 21 2 0.12788521D-01 0.41929973D+00 0.22031166D+06 0.22031166D+06 0.22031166D+06 0.10946136D+01  1  2 15  2  6  2        2 -.336785562739D-03 0.100000000000D+01
-.104630802275D-04 0.000000000000D+00 0.000000000000D+00 0.152087335880D-05 0.000000000000D+00  6 -1 2 25 -1 2 21 2 0.12788521D-01 0.41929973D+00 0.22031166D+06 0.22031166D+06 0.22031166D+06 0.10946136D+01  1  2  4  2  6  2        2 -.183182503105D-03 0.100000000000D+01
-.205015090005D-03 0.000000000000D+00 -.482110970605D-04 0.152087335880D-05 0.000000000000D+00  6 -1 2 25 -1 2 21 2 0.12788521D-01 0.50680138D+00 0.22031166D+06 0.22031166D+06 0.22031166D+06 0.10946136D+01  1  2  5  2  6  2        2 -.156782615583D-02 0.100000000000D+01
0.211201018611D-03 0.000000000000D+00 0.473579324432D-04 0.152087335880D-05 0.000000000000D+00  6 -1 2 25 -1 2 21 2 0.12788521D-01 0.41929973D+00 0.22031166D+06 0.22031166D+06 0.22031166D+06 0.10946136D+01  1  2  6  2  6  2        2 0.369760437713D-02 0.100000000000D+01
-.512276668534D-05 0.000000000000D+00 -.132364738985D-05 0.152087335880D-05 0.000000000000D+00  6 -1 21 25 -1 2 -2 2 0.12788521D-01 0.50680138D+00 0.22031166D+06 0.22031166D+06 0.22031166D+06 0.10946136D+01  1  2  5  6  6  2        2 -.184676736663D-05 0.100000000000D+01
  </mgrwgt>
  </event>
  <event>
  7     66 0.16841828E-05 0.45841975E+02 0.75467711E-02 0.89102443E-01
       -1 -1    0    0    0  503 0.00000000E+00 0.00000000E+00 0.20431226E+04 0.20431226E+04 0.32000000E+00 0.0000E+00 0.9000E+01
        2 -1    0    0  501    0 0.00000000E+00 0.00000000E+00 -.34711502E+03 0.34711516E+03 0.32000000E+00 0.0000E+00 0.9000E+01
       24  2    1    2    0    0 -.75979827E+03 -.31247245E+03 0.88300508E+03 0.12088436E+04 0.81685081E+02 0.0000E+00 0.0000E+00
       25  1    1    2    0    0 0.74711397E+03 0.33555870E+03 0.77060897E+03 0.11314778E+04 0.12500000E+03 0.0000E+00 0.9000E+01
       -1  1    3    3    0  502 -.27020848E+03 -.82196036E+02 0.26246644E+03 0.38556134E+03 0.32000000E+00 0.0000E+00 0.9000E+01
        2  1    3    3  502    0 -.48958979E+03 -.23027641E+03 0.62053863E+03 0.82328226E+03 0.32000000E+00 0.0000E+00 0.9000E+01
       21  1    1    2  501  503 0.12684308E+02 -.23086252E+02 0.42393518E+02 0.49916326E+02 0.75000000E+00 0.0000E+00 0.9000E+01
#aMCatNLO 2  0  0  1  2 0.21479697D+03 0.00000000D+00  -5  6  0 0.00000000D+00 0.00000000D+00 0.00000000D+00 0.00000000D+00 0.00000000D+00
  <mgrwgt>
 0.1064880335D-02    1    2    0
 0.827944923962904D+03 0.000000000000000D+00 0.000000000000000D+00 0.827944923962904D+03
 0.827944923962904D+03 0.000000000000000D+00 0.000000000000000D+00 -.827944923962904D+03
 0.830648167629585D+03 0.753472022051316D+03 0.323986628438662D+03 -.407916041022691D+02
 0.281892436754461D+03 -.268042520674048D+03 -.861298213164660D+02 -.140785968783805D+02
 0.543349243541762D+03 -.485429501377268D+03 -.237856807122196D+03 0.548702009806496D+02
 0.000000000000000D+00 0.000000000000000D+00 -.000000000000000D+00 0.000000000000000D+00
 0.847182948506643D+03 0.000000000000000D+00 0.000000000000000D+00 0.847182948506643D+03
 0.837115905214592D+03 0.000000000000000D+00 0.000000000000000D+00 -.837115905214592D+03
 0.829498566753816D+03 0.747113966098340D+03 0.335558696716695D+03 -.407916041022691D+02
 0.282780524858277D+03 -.270205114022400D+03 -.821937631770216D+02 -.140785968783805D+02
 0.543820257806898D+03 -.489593160153196D+03 -.230278681984918D+03 0.548702009806496D+02
 0.281995043022438D+02 0.126843080772560D+02 -.230862515547562D+02 0.100670432920517D+02
0.533620281985D-02 0.000000000000D+00 0.000000000000D+00 0.869428192718D-04 0.748523419979D-06  6 -1 2 25 -1 2 21 2 0.31432470D+00 0.53402007D-01 0.70418213D+06 0.70418213D+06 0.70418213D+06 0.10581561D+01  1  2  1  1  6  1       -1 0.106488033499D-02 0.100000000000D+01
  </mgrwgt>
  </event>
  <event>
  7     66 0.16841828E-05 0.12823512E+02 0.75467711E-02 0.93953995E-01
       -1 -1    0    0    0  503 0.00000000E+00 0.00000000E+00 0.17321276E+03 0.17321305E+03 0.32000000E+00 0.0000E+00 0.9000E+01
        2 -1    0    0  501    0 0.00000000E+00 0.00000000E+00 -.24970535E+04 0.24970535E+04 0.32000000E+00 0.0000E+00 0.9000E+01
       24  2    1    2    0    0 0.51181427E+03 0.10027519E+03 -.15652086E+04 0.16518915E+04 0.82816454E+02 0.0000E+00 0.0000E+00
       25  1    1    2    0    0 -.49639628E+03 -.10048750E+03 -.81071683E+03 0.96405072E+03 0.12500000E+03 0.0000E+00 0.9000E+01
       -1  1    3    3    0  502 0.48692526E+03 0.82643183E+02 -.14178132E+04 0.15013729E+04 0.32000000E+00 0.0000E+00 0.9000E+01
        2  1    3    3  502    0 0.24889016E+02 0.17632011E+02 -.14739535E+03 0.15051858E+03 0.32000000E+00 0.0000E+00 0.9000E+01
       21  1    1    2  501  503 -.15417989E+02 0.21230637E+00 0.52084690E+02 0.54324368E+02 0.75000000E+00 0.0000E+00 0.9000E+01
#aMCatNLO 2  0  0  1  2 0.45302077D+02 0.00000000D+00  -5  6  0 0.00000000D+00 0.00000000D+00 0.00000000D+00 0.00000000D+00 0.00000000D+00
  <mgrwgt>
 0.1186966741D-02    1    2    0
 0.547241769790784D+03 0.000000000000000D+00 0.000000000000000D+00 0.547241769790784D+03
 0.547241769790784D+03 0.000000000000000D+00 0.000000000000000D+00 -.547241769790784D+03
 0.551246597106002D+03 -.504111815408566D+03 -.100381256916810D+03 0.155057059324071D+03
 0.503802856153181D+03 0.479787594936749D+03 0.827425345123618D+02 -.129517777140374D+03
 0.394340863223845D+02 0.243242204718168D+02 0.176387224044486D+02 -.255392821836974D+02
 0.000000000000000D+00 -.000000000000000D+00 0.000000000000000D+00 0.000000000000000D+00
 0.789933528143153D+03 0.000000000000000D+00 0.000000000000000D+00 0.789933528143153D+03
 0.547541049693211D+03 0.000000000000000D+00 0.000000000000000D+00 -.547541049693211D+03
 0.544219349254363D+03 -.496396284009020D+03 -.100487500111460D+03 0.155057059324071D+03
 0.510595568792391D+03 0.486932155591804D+03 0.826441536090835D+02 -.129517777140374D+03
 0.397772333424147D+02 0.248821177082428D+02 0.176310401358381D+02 -.255392821836974D+02
 0.242882426447195D+03 -.154179892910268D+02 0.212306366538202D+00 0.242392478449942D+03
0.166979535328D-03 0.000000000000D+00 0.000000000000D+00 0.141716068400D-04 0.399206019870D-06  6 -1 2 25 -1 2 21 2 0.26648113D-01 0.38416169D+00 0.28168143D+06 0.28168143D+06 0.28168143D+06 0.10865821D+01  1  2  1  1  6  1       -1 0.118696674140D-02 0.100000000000D+01
  </mgrwgt>
  </event>
  <event>
  7     66 0.16841828E-05 0.55095655E+02 0.75467711E-02 0.94957892E-01
       -1 -1    0    0    0  503 0.00000000E+00 0.00000000E+00 0.41439344E+03 0.41439356E+03 0.32000000E+00 0.0000E+00 0.9000E+01
        2 -1    0    0  501    0 0.00000000E+00 0.00000000E+00 -.73875392E+03 0.73875399E+03 0.32000000E+00 0.0000E+00 0.9000E+01
       24  2    1    2    0    0 0.43891918E+03 0.12887750E+03 -.38344349E+03 0.60220021E+03 0.79729056E+02 0.0000E+00 0.0000E+00
       25  1    1    2    0    0 -.45820373E+03 -.11985422E+03 0.18105152E+01 0.48984076E+03 0.12500000E+03 0.0000E+00 0.9000E+01
       -1  1    3    3    0  502 0.26832942E+03 0.53551326E+02 -.18748138E+03 0.33168930E+03 0.32000000E+00 0.0000E+00 0.9000E+01
        2  1    3    3  502    0 0.17058976E+03 0.75326176E+02 -.19596211E+03 0.27051091E+03 0.32000000E+00 0.0000E+00 0.9000E+01
       21  1    1    2  501  503 0.19284552E+02 -.90232772E+01 0.57272492E+02 0.61106582E+02 0.75000000E+00 0.0000E+00 0.9000E+01
#aMCatNLO 2  0  0  1  2 0.45302077D+02 0.00000000D+00  -5  6  0 0.00000000D+00 0.00000000D+00 0.00000000D+00 0.00000000D+00 0.00000000D+00
  <mgrwgt>
 0.2711179628D-02    1    2    0
 0.511482267229684D+03 0.000000000000000D+00 0.000000000000000D+00 0.511482267229684D+03
 0.511482267229684D+03 0.000000000000000D+00 0.000000000000000D+00 -.511482267229684D+03
 0.516012374245431D+03 -.448406730925764D+03 -.124438258774979D+03 0.184635570213130D+03
 0.288731218654993D+03 0.273729659044177D+03 0.510249307094928D+02 -.763822415987352D+02
 0.218220941558944D+03 0.174677071881587D+03 0.734133280654865D+02 -.108253328614395D+03
 0.000000000000000D+00 0.000000000000000D+00 -.000000000000000D+00 0.000000000000000D+00
 0.596840631659005D+03 0.000000000000000D+00 0.000000000000000D+00 0.596840631659005D+03
 0.512922442111738D+03 0.000000000000000D+00 0.000000000000000D+00 -.512922442111738D+03
 0.523479692607317D+03 -.458203731670849D+03 -.119854224236077D+03 0.184635570213130D+03
 0.284083574640354D+03 0.268330996432252D+03 0.535509748040959D+02 -.763822415987352D+02
 0.215622811747337D+03 0.170588182981010D+03 0.753265266487757D+02 -.108253328614395D+03
 0.865769947757348D+02 0.192845522575865D+02 -.902327721679494D+01 0.839181895472662D+02
0.170165747243D-03 0.000000000000D+00 0.000000000000D+00 0.214454282381D-03 0.305275594396D-05  6 -1 2 25 -1 2 21 2 0.63752650D-01 0.11365411D+00 0.23582192D+06 0.23582192D+06 0.23582192D+06 0.10923718D+01  1  2  1  1  6  1       -1 0.271117962801D-02 0.100000000000D+01
  </mgrwgt>
  </event>
  <event>
  7     66 0.16841828E-05 0.14385248E+02 0.75467711E-02 0.94525389E-01
       21 -1    0    0  503  501 0.00000000E+00 0.00000000E+00 0.55809979E+03 0.55810029E+03 0.75000000E+00 0.0000E+00 0.9000E+01
        2 -1    0    0  501    0 0.00000000E+00 0.00000000E+00 -.10818597E+04 0.10818597E+04 0.32000000E+00 0.0000E+00 0.9000E+01
       24  2    1    2    0    0 0.16233093E+03 -.45435485E+03 -.50692378E+03 0.70454791E+03 0.81402603E+02 0.0000E+00 0.0000E+00
       25  1    1    2    0    0 -.18677297E+03 0.44330141E+03 -.34572262E+03 0.60543324E+03 0.12500000E+03 0.0000E+00 0.9000E+01
       -1  1    3    3    0  502 0.21070024E+01 -.50890027E+02 -.27878296E+02 0.58064930E+02 0.32000000E+00 0.0000E+00 0.9000E+01
        2  1    3    3  502    0 0.16022392E+03 -.40346482E+03 -.47904549E+03 0.64648298E+03 0.32000000E+00 0.0000E+00 0.9000E+01
        1  1    1    2  503    0 0.24442048E+02 0.11053440E+02 0.32888652E+03 0.32997884E+03 0.32000000E+00 0.0000E+00 0.9000E+01
#aMCatNLO 2  0  0  1  2 0.45302077D+02 0.00000000D+00  -5  6  0 0.00000000D+00 0.00000000D+00 0.00000000D+00 0.00000000D+00 0.00000000D+00
  <mgrwgt>
 0.7621869369D-03    1    2    0
 0.497072720133397D+03 0.000000000000000D+00 0.000000000000000D+00 0.497072720133397D+03
 0.497072720133397D+03 0.000000000000000D+00 0.000000000000000D+00 -.497072720133397D+03
 0.501598524840992D+03 -.174449304225521D+03 0.448874548769586D+03 0.636801369721424D+02
 0.520815734306145D+02 0.339088539598410D+01 -.503028626767063D+02 0.130619368306624D+02
 0.440465341995188D+03 0.171058418829537D+03 -.398571686092880D+03 -.767420738028048D+02
 0.000000000000000D+00 0.000000000000000D+00 0.000000000000000D+00 0.000000000000000D+00
 0.121362859474151D+04 0.000000000000000D+00 0.000000000000000D+00 0.121362859474151D+04
 0.497504767445430D+03 0.000000000000000D+00 0.000000000000000D+00 -.497504767445430D+03
 0.501079278315381D+03 -.186772973482204D+03 0.443301409527297D+03 0.636801369721424D+02
 0.525764558943112D+02 0.210455898644711D+01 -.508845787258851D+02 0.130619368306624D+02
 0.440851555164118D+03 0.160226366981250D+03 -.403470270432725D+03 -.767420738028048D+02
 0.716626072813127D+03 0.244420475145073D+02 0.110534396313128D+02 0.716123827296076D+03
0.197929819248D-04 0.000000000000D+00 0.000000000000D+00 0.824901878852D-04 0.100803099481D-06  6 21 2 25 -1 2 1 2 0.85861542D-01 0.16643998D+00 0.25446493D+06 0.25446493D+06 0.25446493D+06 0.10898812D+01  1  2  1  5  6  1       -1 0.762186936916D-03 0.100000000000D+01
  </mgrwgt>
  </event>
  <event>
  7     66 0.16841828E-05 0.27820384E+02 0.75467711E-02 0.89498205E-01
       -1 -1    0    0    0  501 0.00000000E+00 0.00000000E+00 0.26622508E+04 0.26622508E+04 0.32000000E+00 0.0000E+00 0.9000E+01
        2 -1    0    0  503    0 0.00000000E+00 0.00000000E+00 -.28202993E+03 0.28203011E+03 0.32000000E+00 0.0000E+00 0.9000E+01
       24  2    1    2    0    0 -.76291775E+03 -.16756275E+03 0.16473353E+04 0.18248841E+04 0.79798024E+02 0.0000E+00 0.0000E+00
       25  1    1    2    0    0 0.76623654E+03 0.12554756E+03 0.73600348E+03 0.10771289E+04 0.12500000E+03 0.0000E+00 0.9000E+01
       -1  1    3    3    0  502 -.54955454E+03 -.15666668E+03 0.11876364E+04 0.13179662E+04 0.32000000E+00 0.0000E+00 0.9000E+01
        2  1    3    3  502    0 -.21336320E+03 -.10896076E+02 0.45969892E+03 0.50691793E+03 0.32000000E+00 0.0000E+00 0.9000E+01
       21  1    1    2  503  501 -.33187954E+01 0.42015193E+02 -.31178851E+01 0.42267890E+02 0.75000000E+00 0.0000E+00 0.9000E+01
#aMCatNLO 2  0  0  2  2 0.72087884D+02 0.00000000D+00  -5  6  0 0.00000000D+00 0.00000000D+00 0.00000000D+00 0.00000000D+00 0.00000000D+00
  <mgrwgt>
 0.2723401084D-03    1    2    0
 0.827586825322867D+03 0.000000000000000D+00 0.000000000000000D+00 0.827586825322867D+03
 0.827586825322867D+03 0.000000000000000D+00 0.000000000000000D+00 -.827586825322867D+03
 0.830383291825316D+03 0.764573732794961D+03 0.146598372490113D+03 -.260475211192694D+03
 0.597802323971320D+03 -.550761098935927D+03 -.141462755438385D+03 0.184440015365921D+03
 0.226988034849098D+03 -.213812633859034D+03 -.513561705172783D+01 0.760351958267737D+02
 0.000000000000000D+00 -.000000000000000D+00 0.000000000000000D+00 -.000000000000000D+00
 0.833985439290079D+03 0.000000000000000D+00 0.000000000000000D+00 0.833985439290079D+03
 0.900293307534223D+03 0.000000000000000D+00 0.000000000000000D+00 -.900293307534223D+03
 0.828464221844837D+03 0.766236544236469D+03 0.125547558748252D+03 -.260475211192694D+03
 0.600482672833829D+03 -.549559950556431D+03 -.156669020070631D+03 0.184440015365921D+03
 0.226763256473041D+03 -.213357798298446D+03 -.108937315499181D+02 0.760351958267737D+02
 0.785685956725956D+02 -.331879538159134D+01 0.420151928722963D+02 -.663078682441434D+02
0.792551485584D-02 0.000000000000D+00 0.000000000000D+00 0.147016499649D-03 0.498442059867D-06  6 -1 2 25 -1 2 21 2 0.40957619D+00 0.43389143D-01 0.65099766D+06 0.65099766D+06 0.65099766D+06 0.10605035D+01  1  2  1  2  6  2        2 0.272340108429D-03 0.100000000000D+01
  </mgrwgt>
  </event>
  <event>
  6     66 0.16841828E-05 0.14800682E+02 0.75467711E-02 0.90871071E-01
       -1 -1    0    0    0  501 0.00000000E+00 0.00000000E+00 0.46772506E+03 0.46772517E+03 0.32000000E+00 0.0000E+00 0.9000E+01
        2 -1    0    0  501    0 0.00000000E+00 0.00000000E+00 -.25369877E+04 0.25369877E+04 0.32000000E+00 0.0000E+00 0.9000E+01
       24  2    1    2    0    0 -.25593460E+02 0.66954409E+03 0.14250091E+03 0.69030859E+03 0.85294364E+02 0.0000E+00 0.0000E+00
       25  1    1    2    0    0 0.25593460E+02 -.66954409E+03 -.22117636E+04 0.23144043E+04 0.12500000E+03 0.0000E+00 0.9000E+01
       -1  1    3    3    0  502 -.13489366E+02 0.13098693E+02 0.57085622E+01 0.19652706E+02 0.32000000E+00 0.0000E+00 0.9000E+01
        2  1    3    3  502    0 -.12104094E+02 0.65644539E+03 0.13679235E+03 0.67065588E+03 0.32000000E+00 0.0000E+00 0.9000E+01
#aMCatNLO 1  0  0  1  2 0.45302077D+02 0.00000000D+00  -5  6  0 0.00000000D+00 0.00000000D+00 0.00000000D+00 0.00000000D+00 0.00000000D+00
  <mgrwgt>
 0.1460177493D-03    7    2    0
 0.108931764842759D+04 0.000000000000000D+00 0.000000000000000D+00 0.108931764842759D+04
 0.108931764842759D+04 0.000000000000000D+00 0.000000000000000D+00 -.108931764842759D+04
 0.109123395621556D+04 0.255934601762728D+02 -.669544087981599D+03 -.852186737894316D+03
 0.325120510786190D+02 -.134893857843249D+02 0.130896375251567D+02 0.265279348227557D+02
 0.105488928956100D+04 -.121040743919479D+02 0.656454450456442D+03 0.825658803071560D+03
 0.000000000000000D+00 0.000000000000000D+00 0.000000000000000D+00 0.000000000000000D+00
 0.116472201362573D+04 0.000000000000000D+00 0.000000000000000D+00 0.116472201362573D+04
 0.109936819025535D+04 0.000000000000000D+00 0.000000000000000D+00 -.109936819025535D+04
 0.109564208347269D+04 -.410942759951297D+00 -.677188430172481D+03 -.852186737894316D+03
 0.327513734125337D+02 -.142654409226435D+02 0.128615057333656D+02 0.265279348227557D+02
 0.105091129627088D+04 -.371443994691367D+02 0.649093511851915D+03 0.825658803071560D+03
 0.847854507249801D+02 0.518207831517314D+02 0.152334125872005D+02 0.653538233703842D+02
0.752935564792D-04 0.000000000000D+00 0.000000000000D+00 0.520998478155D-06 0.000000000000D+00  6 -1 2 25 -1 2 21 0 0.71957712D-01 0.39030581D+00 0.46033211D+06 0.46033211D+06 0.46033211D+06 0.10710568D+01  1  2  2  1  6  1       -1 0.698859110476D-04 0.100000000000D+01
0.284165345433D-04 0.000000000000D+00 -.289147082129D-06 0.520998478155D-06 0.000000000000D+00  6 -1 2 25 -1 2 21 2 0.71957712D-01 0.39030581D+00 0.46033211D+06 0.46033211D+06 0.46033211D+06 0.10710568D+01  1  2  3  1  6  1       -1 0.302571450381D-04 0.100000000000D+01
-.227673538339D-04 0.000000000000D+00 0.000000000000D+00 0.520998478155D-06 0.000000000000D+00  6 -1 2 25 -1 2 21 2 0.71957712D-01 0.39030581D+00 0.46033211D+06 0.46033211D+06 0.46033211D+06 0.10710568D+01  1  2 15  1  6  1       -1 -.242420526696D-04 0.100000000000D+01
-.133324574148D-04 0.000000000000D+00 0.000000000000D+00 0.520998478155D-06 0.000000000000D+00  6 -1 2 25 -1 2 21 2 0.71957712D-01 0.39030581D+00 0.46033211D+06 0.46033211D+06 0.46033211D+06 0.10710568D+01  1  2  4  1  6  1       -1 -.141960342525D-04 0.100000000000D+01
-.122327820774D-02 0.000000000000D+00 -.157961139025D-03 0.520998478155D-06 0.000000000000D+00  6 -1 2 25 -1 2 21 2 0.77389557D-01 0.39030581D+00 0.46033211D+06 0.46033211D+06 0.46033211D+06 0.10710568D+01  1  2  5  1  6  1       -1 -.112504417816D-02 0.100000000000D+01
0.123192735738D-02 0.000000000000D+00 0.157543783405D-03 0.520998478155D-06 0.000000000000D+00  6 -1 2 25 -1 2 21 2 0.71957712D-01 0.39030581D+00 0.46033211D+06 0.46033211D+06 0.46033211D+06 0.10710568D+01  1  2  6  1  6  1       -1 0.131172239429D-02 0.100000000000D+01
-.147283793312D-04 0.000000000000D+00 -.193878747065D-05 0.520998478155D-06 0.000000000000D+00  6 21 2 25 -1 2 1 2 0.77389557D-01 0.39030581D+00 0.46033211D+06 0.46033211D+06 0.46033211D+06 0.10710568D+01  1  2  5  5  6  1       -1 -.102365436024D-03 0.100000000000D+01
  </mgrwgt>
  </event>
  <event>
  7     66 0.16841828E-05 0.66679154E+02 0.75467711E-02 0.93631758E-01
       -1 -1    0    0    0  503 0.00000000E+00 0.00000000E+00 0.13275554E+04 0.13275555E+04 0.32000000E+00 0.0000E+00 0.9000E+01
        2 -1    0    0  501    0 0.00000000E+00 0.00000000E+00 -.24527265E+03 0.24527286E+03 0.32000000E+00 0.0000E+00 0.9000E+01
       24  2    1    2    0    0 -.32650056E+03 -.42396600E+03 0.33060113E+03 0.63428242E+03 0.81653492E+02 0.0000E+00 0.0000E+00
       25  1    1    2    0    0 0.32841569E+03 0.40500498E+03 0.68919136E+03 0.87320996E+03 0.12500000E+03 0.0000E+00 0.9000E+01
       -1  1    3    3    0  502 -.17152042E+03 -.18250135E+03 0.19233756E+03 0.31578448E+03 0.32000000E+00 0.0000E+00 0.9000E+01
        2  1    3    3  502    0 -.15498014E+03 -.24146464E+03 0.13826357E+03 0.31849794E+03 0.32000000E+00 0.0000E+00 0.9000E+01
       21  1    1    2  501  503 -.19151332E+01 0.18961018E+02 0.62490297E+02 0.65335960E+02 0.75000000E+00 0.0000E+00 0.9000E+01
#aMCatNLO 2  0  0  1  2 0.45302077D+02 0.00000000D+00  -5  6  0 0.00000000D+00 0.00000000D+00 0.00000000D+00 0.00000000D+00 0.00000000D+00
  <mgrwgt>
 0.1034984218D-02    1    2    0
 0.555021022350683D+03 0.000000000000000D+00 0.000000000000000D+00 0.555021022350683D+03
 0.555021022350683D+03 0.000000000000000D+00 0.000000000000000D+00 -.555021022350683D+03
 0.559055872787764D+03 0.327456782607323D+03 0.414498769015569D+03 0.133720959118332D+03
 0.249328821534518D+03 -.171953203024065D+03 -.178218111026348D+03 -.289009017118182D+02
 0.301657350379085D+03 -.155503579583258D+03 -.236280657989220D+03 -.104820057406513D+03
 0.000000000000000D+00 -.000000000000000D+00 0.000000000000000D+00 0.000000000000000D+00
 0.583174405564559D+03 0.000000000000000D+00 0.000000000000000D+00 0.583174405564559D+03
 0.558337291674953D+03 0.000000000000000D+00 0.000000000000000D+00 -.558337291674953D+03
 0.552623012729613D+03 0.328415690555979D+03 0.405004979583544D+03 0.133720959118332D+03
 0.252113102372908D+03 -.171520671064623D+03 -.182500448399115D+03 -.289009017118182D+02
 0.305469509527728D+03 -.154979886294313D+03 -.241465549635156D+03 -.104820057406513D+03
 0.313060726092630D+02 -.191513319704326D+01 0.189610184507264D+02 0.248371138896057D+02
0.366738053383D-03 0.000000000000D+00 0.000000000000D+00 0.137327267869D-03 0.237532904964D-05  6 -1 2 25 -1 2 21 2 0.20423768D+00 0.37733970D-01 0.29846077D+06 0.29846077D+06 0.29846077D+06 0.10847172D+01  1  2  1  1  6  1       -1 0.103498421777D-02 0.100000000000D+01
  </mgrwgt>
  </event>
  <event>
  6     66 0.16841828E-05 0.42961615E+02 0.75467711E-02 0.94082696E-01
       -1 -1    0    0    0  501 0.00000000E+00 0.00000000E+00 0.82546541E+03 0.82546547E+03 0.32000000E+00 0.0000E+00 0.9000E+01
        2 -1    0    0  501    0 0.00000000E+00 0.00000000E+00 -.41434312E+03 0.41434324E+03 0.32000000E+00 0.0000E+00 0.9000E+01
       25  1    1    2    0    0 0.46915137E+03 -.17884658E+03 -.27886219E+02 0.51816189E+03 0.12500000E+03 0.0000E+00 0.9000E+01
       -1  1    1    2    0  503 -.30553240E+03 0.16250826E+03 0.38218377E+03 0.51558076E+03 0.32000000E+00 0.0000E+00 0.9000E+01
        2  1    1    2  502    0 -.10729161E+03 0.51996455E+02 0.69784067E+02 0.13814862E+03 0.32000000E+00 0.0000E+00 0.9000E+01
       21  1    1    2  503  502 -.56327350E+02 -.35658136E+02 -.12959326E+02 0.67917447E+02 0.75000000E+00 0.0000E+00 0.9000E+01
#aMCatNLO 2  0  0  4  1 0.38287944D+00 0.00000000D+00  -5  6  0 0.00000000D+00 0.00000000D+00 0.00000000D+00 0.00000000D+00 0.00000000D+00
  <mgrwgt>
 0.7285076780D-01    1    2    0
 0.584829912996915D+03 0.000000000000000D+00 0.000000000000000D+00 0.584829912996915D+03
 0.584829912996915D+03 -.000000000000000D+00 -.000000000000000D+00 -.584829912996915D+03
 0.589723666122475D+03 0.495880588707472D+03 -.188216519054349D+03 -.225446193321438D+03
 0.464281615835393D+03 -.394097773068086D+03 0.138147232006856D+03 0.202878550749809D+03
 0.115654544035962D+03 -.101782815639386D+03 0.500692870474929D+02 0.225676425716299D+02
 0.000000000000000D+00 -.000000000000000D+00 0.000000000000000D+00 0.000000000000000D+00
 0.584829912996915D+03 0.000000000000000D+00 0.000000000000000D+00 0.584829912996915D+03
 0.584829912996915D+03 -.000000000000000D+00 -.000000000000000D+00 -.584829912996915D+03
 0.559003630198894D+03 0.469120012090094D+03 -.178835853038864D+03 -.211670051022799D+03
 0.412076326295597D+03 -.305386585450421D+03 0.162524745296591D+03 0.223900958654684D+03
 0.121934762594155D+03 -.107317660039711D+03 0.520094741932890D+02 0.254169385770901D+02
 0.766451069051834D+02 -.564157665999617D+02 -.356983664510156D+02 -.376478462089751D+02
0.105581275899D-01 0.000000000000D+00 0.000000000000D+00 0.111387157067D-05 0.155017958914D-06  6 -1 2 25 -1 2 21 2 0.12699469D+00 0.63745109D-01 0.27527748D+06 0.27527748D+06 0.27527748D+06 0.10873261D+01  1  2  1  3  6  4       -1 0.728507677979D-01 0.100000000000D+01
  </mgrwgt>
  </event>
  <event>
  7     66 0.16841828E-05 0.72578322E+02 0.75467711E-02 0.92548180E-01
       -1 -1    0    0    0  501 0.00000000E+00 0.00000000E+00 0.44031404E+03 0.44031416E+03 0.32000000E+00 0.0000E+00 0.9000E+01
        2 -1    0    0  503    0 0.00000000E+00 0.00000000E+00 -.10235308E+04 0.10235309E+04 0.32000000E+00 0.0000E+00 0.9000E+01
       24  2    1    2    0    0 0.29671375E+03 0.50937740E+03 -.13476719E+03 0.61025262E+03 0.82107741E+02 0.0000E+00 0.0000E+00
       25  1    1    2    0    0 -.28758331E+03 -.51696452E+03 -.24917735E+03 0.65396546E+03 0.12500000E+03 0.0000E+00 0.9000E+01
       -1  1    3    3    0  502 0.14648419E+03 0.24158226E+03 -.22887274E+02 0.28344935E+03 0.32000000E+00 0.0000E+00 0.9000E+01
        2  1    3    3  502    0 0.15022956E+03 0.26779515E+03 -.11187992E+03 0.32680327E+03 0.32000000E+00 0.0000E+00 0.9000E+01
       21  1    1    2  503  501 -.91304422E+01 0.75871166E+01 -.19927223E+03 0.19962694E+03 0.75000000E+00 0.0000E+00 0.9000E+01
#aMCatNLO 2  0  0  2  1 0.13736490D+02 0.00000000D+00  -5  6  0 0.00000000D+00 0.00000000D+00 0.00000000D+00 0.00000000D+00 0.00000000D+00
  <mgrwgt>
 0.5718541734D-02    1    2    0
 0.602223593416902D+03 0.000000000000000D+00 0.000000000000000D+00 0.602223593416902D+03
 0.602223593416902D+03 0.000000000000000D+00 0.000000000000000D+00 -.602223593416902D+03
 0.605911309654020D+03 -.292180339146340D+03 -.513144527203263D+03 -.530740876918251D+02
 0.290630828548804D+03 0.144282641589374D+03 0.243411231878558D+03 0.663307623529207D+02
 0.307905048630980D+03 0.147897697556965D+03 0.269733295324705D+03 -.132566746610957D+02
 0.000000000000000D+00 -.000000000000000D+00 0.000000000000000D+00 -.000000000000000D+00
 0.602494559220191D+03 0.000000000000000D+00 0.000000000000000D+00 0.602494559220191D+03
 0.748012849780206D+03 0.000000000000000D+00 0.000000000000000D+00 -.748012849780206D+03
 0.606958262044345D+03 -.287583306284540D+03 -.516964520084333D+03 -.530740876918251D+02
 0.290205386485145D+03 0.146484134008790D+03 0.241581859406635D+03 0.663307623529207D+02
 0.307342040616406D+03 0.150229614486364D+03 0.267795544097479D+03 -.132566746610957D+02
 0.146001719854501D+03 -.913044221061474D+01 0.758711658021883D+01 -.145518290560015D+03
0.649762125182D-03 0.000000000000D+00 0.000000000000D+00 0.976476084758D-04 0.439962398426D-05  6 -1 2 25 -1 2 21 2 0.67740526D-01 0.15746604D+00 0.36365964D+06 0.36365964D+06 0.36365964D+06 0.10784223D+01  1  2  1  2  6  2        2 0.571854173371D-02 0.100000000000D+01
  </mgrwgt>
  </event>
  <event>
  7     66 0.16841828E-05 0.65678139E+02 0.75467711E-02 0.93064276E-01
       -1 -1    0    0    0  501 0.00000000E+00 0.00000000E+00 0.48825331E+03 0.48825341E+03 0.32000000E+00 0.0000E+00 0.9000E+01
        2 -1    0    0  503    0 0.00000000E+00 0.00000000E+00 -.89258635E+03 0.89258641E+03 0.32000000E+00 0.0000E+00 0.9000E+01
       24  2    1    2    0    0 0.49182646E+03 -.22693655E+03 -.12960395E+03 0.56284960E+03 0.81295901E+02 0.0000E+00 0.0000E+00
       25  1    1    2    0    0 -.47648453E+03 0.13592134E+03 0.17717789E+02 0.51132283E+03 0.12500000E+03 0.0000E+00 0.9000E+01
       -1  1    3    3    0  502 0.15957141E+03 -.35269141E+02 -.52060261E+02 0.17151478E+03 0.32000000E+00 0.0000E+00 0.9000E+01
        2  1    3    3  502    0 0.33225506E+03 -.19166741E+03 -.77543687E+02 0.39133482E+03 0.32000000E+00 0.0000E+00 0.9000E+01
       21  1    1    2  503  501 -.15341937E+02 0.91015214E+02 -.29244688E+03 0.30666739E+03 0.75000000E+00 0.0000E+00 0.9000E+01
#aMCatNLO 2  0  0  2  1 0.13736490D+02 0.00000000D+00  -5  6  0 0.00000000D+00 0.00000000D+00 0.00000000D+00 0.00000000D+00 0.00000000D+00
  <mgrwgt>
 0.1011962978D-02    1    2    0
 0.532167444338779D+03 0.000000000000000D+00 0.000000000000000D+00 0.532167444338779D+03
 0.532167444338779D+03 0.000000000000000D+00 0.000000000000000D+00 -.532167444338779D+03
 0.536402942280001D+03 -.484055111945595D+03 0.180833418298985D+03 0.713655372871530D+02
 0.162308038337183D+03 0.157199778258271D+03 -.212130367723002D+02 -.343822060855862D+02
 0.365623908060374D+03 0.326855333687323D+03 -.159620381526685D+03 -.369833312015668D+02
 0.000000000000000D+00 -.000000000000000D+00 0.000000000000000D+00 -.000000000000000D+00
 0.542058041825538D+03 0.000000000000000D+00 0.000000000000000D+00 0.542058041825538D+03
 0.803986865521343D+03 0.000000000000000D+00 0.000000000000000D+00 -.803986865521343D+03
 0.515974955219562D+03 -.476484527712860D+03 0.135921335160442D+03 0.713655372871530D+02
 0.166997177208920D+03 0.159568730398462D+03 -.352667177301602D+02 -.343822060855862D+02
 0.385357357720879D+03 0.332257734234989D+03 -.191669831752116D+03 -.369833312015668D+02
 0.277715417197520D+03 -.153419369205907D+02 0.910152143218337D+02 -.261928823695804D+03
0.115401082840D-03 0.000000000000D+00 0.000000000000D+00 0.122254378705D-03 0.967253537923D-07  6 -1 2 25 -1 2 21 2 0.75115837D-01 0.13732086D+00 0.33080501D+06 0.33080501D+06 0.33080501D+06 0.10814251D+01  1  2  1  2  6  2        2 0.101196297791D-02 0.100000000000D+01
  </mgrwgt>
  </event>
  <event>
  7     66 0.16841828E-05 0.37709842E+02 0.75467711E-02 0.91773880E-01
       -1 -1    0    0    0  501 0.00000000E+00 0.00000000E+00 0.16170503E+03 0.16170535E+03 0.32000000E+00 0.0000E+00 0.9000E+01
        2 -1    0    0  503    0 0.00000000E+00 0.00000000E+00 -.31226392E+04 0.31226392E+04 0.32000000E+00 0.0000E+00 0.9000E+01
       24  2    1    2    0    0 -.16831253E+03 0.61463528E+03 -.14576668E+04 0.15929000E+04 0.80201539E+02 0.0000E+00 0.0000E+00
       25  1    1    2    0    0 0.13613012E+03 -.57271687E+03 -.88091261E+03 0.10668496E+04 0.12500000E+03 0.0000E+00 0.9000E+01
       -1  1    3    3    0  502 -.12504218E+03 0.54802697E+03 -.12505273E+04 0.13710535E+04 0.32000000E+00 0.0000E+00 0.9000E+01
        2  1    3    3  502    0 -.43270354E+02 0.66608312E+02 -.20713951E+03 0.22184650E+03 0.32000000E+00 0.0000E+00 0.9000E+01
       21  1    1    2  503  501 0.32182407E+02 -.41918408E+02 -.62235472E+03 0.62459493E+03 0.75000000E+00 0.0000E+00 0.9000E+01
#aMCatNLO 2  0  0  2  1 0.13736490D+02 0.00000000D+00  -5  6  0 0.00000000D+00 0.00000000D+00 0.00000000D+00 0.00000000D+00 0.00000000D+00
  <mgrwgt>
 0.1358450214D-03    1    2    0
 0.632953672711100D+03 0.000000000000000D+00 0.000000000000000D+00 0.632953672711100D+03
 0.632953672711100D+03 0.000000000000000D+00 0.000000000000000D+00 -.632953672711100D+03
 0.636584551847399D+03 0.152014867078247D+03 -.593407160278725D+03 0.119892927096954D+03
 0.549182776658356D+03 -.110823353722174D+03 0.529512560351788D+03 -.945322954214339D+02
 0.801400169164460D+02 -.411915133560728D+02 0.638945999269368D+02 -.253606316755202D+02
 0.000000000000000D+00 0.000000000000000D+00 -.000000000000000D+00 -.000000000000000D+00
 0.637922907539205D+03 0.000000000000000D+00 0.000000000000000D+00 0.637922907539205D+03
 0.791546499480415D+03 0.000000000000000D+00 0.000000000000000D+00 -.791546499480415D+03
 0.613624756873512D+03 0.136130122388382D+03 -.572716874257015D+03 0.119892927096954D+03
 0.570012444028326D+03 -.125043476876523D+03 0.548034634270619D+03 -.945322954214339D+02
 0.833727704239312D+02 -.432690525827543D+02 0.666006478780121D+02 -.253606316755202D+02
 0.162459435693850D+03 0.321824070708958D+02 -.419184078916162D+02 -.153623591941211D+03
0.431380348255D-04 0.000000000000D+00 0.000000000000D+00 0.133817878051D-03 0.302602029728D-06  6 -1 2 25 -1 2 21 2 0.24877689D-01 0.48040540D+00 0.42002503D+06 0.42002503D+06 0.42002503D+06 0.10739016D+01  1  2  1  2  6  2        2 0.135845021377D-03 0.100000000000D+01
  </mgrwgt>
  </event>
  <event>
  7     66 0.16841828E-05 0.37426259E+02 0.75467711E-02 0.90698269E-01
       -1 -1    0    0    0  503 0.00000000E+00 0.00000000E+00 0.21519952E+03 0.21519976E+03 0.32000000E+00 0.0000E+00 0.9000E+01
        2 -1    0    0  501    0 0.00000000E+00 0.00000000E+00 -.34204312E+04 0.34204312E+04 0.32000000E+00 0.0000E+00 0.9000E+01
       24  2    1    2    0    0 0.20546528E+02 -.66235942E+03 -.23288793E+04 0.24226113E+04 0.78894832E+02 0.0000E+00 0.0000E+00
       25  1    1    2    0    0 0.39087168E+02 0.69340140E+03 -.89827435E+03 0.11423025E+04 0.12500000E+03 0.0000E+00 0.9000E+01
       -1  1    3    3    0  502 0.55868976E+01 -.29745348E+03 -.90528043E+03 0.95291266E+03 0.32000000E+00 0.0000E+00 0.9000E+01
        2  1    3    3  502    0 0.14959631E+02 -.36490593E+03 -.14235989E+04 0.14696986E+04 0.32000000E+00 0.0000E+00 0.9000E+01
       21  1    1    2  501  503 -.59633696E+02 -.31041980E+02 0.21921968E+02 0.70717165E+02 0.75000000E+00 0.0000E+00 0.9000E+01
#aMCatNLO 2  0  0  1  5 0.16410212D+03 0.00000000D+00  -5  6  0 0.00000000D+00 0.00000000D+00 0.00000000D+00 0.00000000D+00 0.00000000D+00
  <mgrwgt>
 0.1139140672D-02    1    2    0
 0.756566263978453D+03 0.000000000000000D+00 0.000000000000000D+00 0.756566263978453D+03
 0.756566263978453D+03 0.000000000000000D+00 0.000000000000000D+00 -.756566263978453D+03
 0.759672603089596D+03 0.886719576737113D+01 0.677670561772904D+03 0.319627042708440D+03
 0.320176872409129D+03 -.690349546389718D+01 -.303954095206008D+03 -.100386649428940D+03
 0.433283052458180D+03 -.196370030347395D+01 -.373716466566897D+03 -.219240393279500D+03
 0.000000000000000D+00 -.000000000000000D+00 -.000000000000000D+00 0.000000000000000D+00
 0.965023674012587D+03 0.000000000000000D+00 0.000000000000000D+00 0.965023674012587D+03
 0.762752643442396D+03 0.000000000000000D+00 0.000000000000000D+00 -.762752643442396D+03
 0.774673962863544D+03 0.390871675250471D+02 0.693401395760805D+03 0.319627042708440D+03
 0.313985039529881D+03 0.558674337382310D+01 -.297452372596836D+03 -.100386649428940D+03
 0.425966307502339D+03 0.149597848901580D+02 -.364907042844980D+03 -.219240393279500D+03
 0.213151007559219D+03 -.596336957890282D+02 -.310419803189892D+02 0.202271030570192D+03
0.956061998293D-03 0.000000000000D+00 0.000000000000D+00 0.920148634579D-04 0.127930734980D-06  6 -1 2 25 -1 2 21 2 0.33107610D-01 0.52621976D+00 0.51524353D+06 0.51524353D+06 0.51524353D+06 0.10675898D+01  1  2  1  1  6  1       -1 0.113914067238D-02 0.100000000000D+01
  </mgrwgt>
  </event>
  <event>
  7     66 0.16841828E-05 0.44549698E+02 0.75467711E-02 0.88960414E-01
       -1 -1    0    0    0  501 0.00000000E+00 0.00000000E+00 0.82036310E+03 0.82036317E+03 0.32000000E+00 0.0000E+00 0.9000E+01
        2 -1    0    0  503    0 0.00000000E+00 0.00000000E+00 -.16234623E+04 0.16234623E+04 0.32000000E+00 0.0000E+00 0.9000E+01
       24  2    1    2    0    0 0.83451313E+03 0.22512743E+02 -.40153287E+03 0.92979469E+03 0.79815626E+02 0.0000E+00 0.0000E+00
       25  1    1    2    0    0 -.83386526E+03 0.32034920E+00 0.23636885E+03 0.87568636E+03 0.12500000E+03 0.0000E+00 0.9000E+01
       -1  1    3    3    0  502 0.55912491E+03 0.38104483E+02 -.30157458E+03 0.63641178E+03 0.32000000E+00 0.0000E+00 0.9000E+01
        2  1    3    3  502    0 0.27538822E+03 -.15591740E+02 -.99958293E+02 0.29338292E+03 0.32000000E+00 0.0000E+00 0.9000E+01
       21  1    1    2  503  501 -.64787492E+00 -.22833092E+02 -.63793513E+03 0.63834439E+03 0.75000000E+00 0.0000E+00 0.9000E+01
#aMCatNLO 2  0  0  2  1 0.13736490D+02 0.00000000D+00  -5  6  0 0.00000000D+00 0.00000000D+00 0.00000000D+00 0.00000000D+00 0.00000000D+00
  <mgrwgt>
 0.2769167205D-02    1    2    0
 0.898882768125538D+03 0.000000000000000D+00 0.000000000000000D+00 0.898882768125538D+03
 0.898882768125538D+03 0.000000000000000D+00 0.000000000000000D+00 -.898882768125538D+03
 0.901456648200967D+03 -.834190043565960D+03 -.111260809913037D+02 0.317808543187436D+03
 0.610756646777559D+03 0.558909266730242D+03 0.303445112141224D+02 -.244383558745689D+03
 0.285552241272550D+03 0.275280776835718D+03 -.192184302228187D+02 -.734249844417464D+02
 0.000000000000000D+00 -.000000000000000D+00 -.000000000000000D+00 -.000000000000000D+00
 0.899179372703710D+03 0.000000000000000D+00 0.000000000000000D+00 0.899179372703710D+03
 0.148115934284010D+04 0.000000000000000D+00 0.000000000000000D+00 -.148115934284010D+04
 0.901087477175293D+03 -.833865258165612D+03 0.320349201897487D+00 0.317808543187436D+03
 0.611392763897573D+03 0.559129475644988D+03 0.381053464236543D+02 -.244383558745689D+03
 0.285430405533048D+03 0.275383657439262D+03 -.155926033061959D+02 -.734249844417464D+02
 0.582428068937895D+03 -.647874918638217D+00 -.228330923193559D+02 -.581979970136387D+03
0.296418991675D-02 0.000000000000D+00 0.000000000000D+00 0.140786546816D-03 0.181531554141D-05  6 -1 2 25 -1 2 21 2 0.12620968D+00 0.24976336D+00 0.72443568D+06 0.72443568D+06 0.72443568D+06 0.10573124D+01  1  2  1  2  6  2        2 0.276916720455D-02 0.100000000000D+01
  </mgrwgt>
  </event>
  <event>
  6     66 0.16841828E-05 0.99133284E+02 0.75467711E-02 0.91928347E-01
       -1 -1    0    0    0  501 0.00000000E+00 0.00000000E+00 0.39486345E+03 0.39486358E+03 0.32000000E+00 0.0000E+00 0.9000E+01
        2 -1    0    0  501    0 -.00000000E+00 -.00000000E+00 -.10427366E+04 0.10427366E+04 0.32000000E+00 0.0000E+00 0.9000E+01
       25  1    1    2    0    0 0.33929575E+03 -.48972799E+03 -.24564043E+03 0.65644446E+03 0.12500000E+03 0.0000E+00 0.9000E+01
       -1  1    1    2    0  503 -.82512303E+02 0.29409617E+03 -.16599254E+03 0.34764128E+03 0.32000000E+00 0.0000E+00 0.9000E+01
        2  1    1    2  502    0 -.12218650E+03 0.19337371E+03 -.15430076E+03 0.27591984E+03 0.32000000E+00 0.0000E+00 0.9000E+01
       21  1    1    2  503  502 -.13459694E+03 0.22581086E+01 -.81939387E+02 0.15759461E+03 0.75000000E+00 0.0000E+00 0.9000E+01
#aMCatNLO 2  0  0  4  1 0.44925997D+01 0.00000000D+00  -5  6  0 0.00000000D+00 0.00000000D+00 0.00000000D+00 0.00000000D+00 0.00000000D+00
  <mgrwgt>
 0.1275263334D-01    1    2    0
 0.641668674562372D+03 0.000000000000000D+00 0.000000000000000D+00 0.641668674562372D+03
 0.641668674562372D+03 -.000000000000000D+00 -.000000000000000D+00 -.641668674562372D+03
 0.647288087771147D+03 0.360946694706445D+03 -.519281550460609D+03 0.584895161729611D+02
 0.417709914947054D+03 -.246399932077422D+03 0.336314348292482D+03 -.257158637793835D+02
 0.218339346406544D+03 -.114546762629023D+03 0.182967202168127D+03 -.327736523935776D+02
 0.000000000000000D+00 0.000000000000000D+00 0.000000000000000D+00 -.000000000000000D+00
 0.641668674562372D+03 0.000000000000000D+00 0.000000000000000D+00 0.641668674562372D+03
 0.641668674562372D+03 -.000000000000000D+00 -.000000000000000D+00 -.641668674562372D+03
 0.611321028870802D+03 0.339280760649114D+03 -.489709446153577D+03 0.562283215201300D+02
 0.305286362730579D+03 -.822196064093305D+02 0.293822177764476D+03 -.104032420380268D+02
 0.231381697882125D+03 -.122288345270462D+03 0.193533785116656D+03 -.335816131870957D+02
 0.135348259641238D+03 -.134772808969322D+03 0.235348327244514D+01 -.122434662950074D+02
0.122046664480D-02 0.000000000000D+00 0.000000000000D+00 0.278400308658D-06 0.287148684407D-07  6 -1 2 25 -1 2 21 2 0.60748237D-01 0.16042102D+00 0.40804234D+06 0.40804234D+06 0.40804234D+06 0.10748049D+01  1  2  1  3  6  4       -1 0.127526333369D-01 0.100000000000D+01
  </mgrwgt>
  </event>
  <event>
  7     66 0.16841828E-05 0.39612914E+02 0.75467711E-02 0.94613843E-01
       -1 -1    0    0    0  501 0.00000000E+00 0.00000000E+00 0.36998804E+03 0.36998818E+03 0.32000000E+00 0.0000E+00 0.9000E+01
        2 -1    0    0  503    0 0.00000000E+00 0.00000000E+00 -.93694493E+03 0.93694498E+03 0.32000000E+00 0.0000E+00 0.9000E+01
       24  2    1    2    0    0 -.33416810E+03 0.30402000E+03 -.24117709E+03 0.51842357E+03 0.80623390E+02 0.0000E+00 0.0000E+00
       25  1    1    2    0    0 0.38009072E+03 -.30496010E+03 -.46223660E+02 0.50520416E+03 0.12500000E+03 0.0000E+00 0.9000E+01
       -1  1    3    3    0  502 -.13135382E+03 0.10955682E+03 -.48711682E+02 0.17784671E+03 0.32000000E+00 0.0000E+00 0.9000E+01
        2  1    3    3  502    0 -.20281427E+03 0.19446318E+03 -.19246541E+03 0.34057686E+03 0.32000000E+00 0.0000E+00 0.9000E+01
       21  1    1    2  503  501 -.45922626E+02 0.94010450E+00 -.27955614E+03 0.28330543E+03 0.75000000E+00 0.0000E+00 0.9000E+01
#aMCatNLO 2  0  0  2  5 0.83858320D+01 0.00000000D+00  -5  6  0 0.00000000D+00 0.00000000D+00 0.00000000D+00 0.00000000D+00 0.00000000D+00
  <mgrwgt>
 0.4606099310D-02    1    2    0
 0.490689506285809D+03 0.000000000000000D+00 0.000000000000000D+00 0.490689506285809D+03
 0.490689506285809D+03 0.000000000000000D+00 0.000000000000000D+00 -.490689506285809D+03
 0.495338509863395D+03 0.356514929962653D+03 -.304477469317719D+03 0.996283832313396D+02
 0.177487117694375D+03 -.139502915339788D+03 0.109722326638622D+03 0.127459647131192D+01
 0.308553385013848D+03 -.217012014622865D+03 0.194755142679097D+03 -.100902979702652D+03
 0.000000000000000D+00 -.000000000000000D+00 0.000000000000000D+00 -.000000000000000D+00
 0.493727618210630D+03 0.000000000000000D+00 0.000000000000000D+00 0.493727618210630D+03
 0.702123215299204D+03 0.000000000000000D+00 0.000000000000000D+00 -.702123215299204D+03
 0.512855178644596D+03 0.380090721280417D+03 -.304960100855542D+03 0.996283832313396D+02
 0.171048408741603D+03 -.131352694869511D+03 0.109555479495035D+03 0.127459647131192D+01
 0.298549738560737D+03 -.202815400705416D+03 0.194464516862363D+03 -.100902979702652D+03
 0.213397507562898D+03 -.459226257054898D+02 0.940104498143485D+00 -.208395597088574D+03
0.320013603519D-03 0.000000000000D+00 0.000000000000D+00 0.343075709535D-03 0.109251004626D-05  6 -1 2 25 -1 2 21 2 0.56921176D-01 0.14414520D+00 0.25052147D+06 0.25052147D+06 0.25052147D+06 0.10903910D+01  1  2  1  2  6  2        2 0.460609931039D-02 0.100000000000D+01
  </mgrwgt>
  </event>
  <event>
  7     66 0.16841828E-05 0.32853231E+02 0.75467711E-02 0.93941434E-01
       -1 -1    0    0    0  501 0.00000000E+00 0.00000000E+00 0.17593789E+03 0.17593819E+03 0.32000000E+00 0.0000E+00 0.9000E+01
        2 -1    0    0  503    0 0.00000000E+00 0.00000000E+00 -.26829652E+04 0.26829652E+04 0.32000000E+00 0.0000E+00 0.9000E+01
       24  2    1    2    0    0 -.26493290E+03 0.38359653E+03 -.10102809E+04 0.11154974E+04 0.79568854E+02 0.0000E+00 0.0000E+00
       25  1    1    2    0    0 0.31472305E+03 -.41128798E+03 -.45646435E+03 0.70156475E+03 0.12500000E+03 0.0000E+00 0.9000E+01
       -1  1    3    3    0  502 -.97590137E+02 0.79661228E+02 -.26885402E+03 0.29690459E+03 0.32000000E+00 0.0000E+00 0.9000E+01
        2  1    3    3  502    0 -.16734276E+03 0.30393531E+03 -.74142686E+03 0.81859279E+03 0.32000000E+00 0.0000E+00 0.9000E+01
       21  1    1    2  503  501 -.49790151E+02 0.27691448E+02 -.10402821E+04 0.10418413E+04 0.75000000E+00 0.0000E+00 0.9000E+01
#aMCatNLO 2  0  0  2  5 0.83858320D+01 0.00000000D+00  -5  6  0 0.00000000D+00 0.00000000D+00 0.00000000D+00 0.00000000D+00 0.00000000D+00
  <mgrwgt>
 0.9977729666D-03    1    2    0
 0.535520156293250D+03 0.000000000000000D+00 0.000000000000000D+00 0.535520156293250D+03
 0.535520156293250D+03 0.000000000000000D+00 0.000000000000000D+00 -.535520156293250D+03
 0.539858834011584D+03 0.289075710946716D+03 -.397023876876443D+03 0.186090932586727D+03
 0.142118285048689D+03 -.104033430390081D+03 0.832417509073530D+02 -.494516249715898D+02
 0.389063193526226D+03 -.185042280556635D+03 0.313782125969090D+03 -.136639307615137D+03
 0.000000000000000D+00 -.000000000000000D+00 0.000000000000000D+00 -.000000000000000D+00
 0.538663728628792D+03 0.000000000000000D+00 0.000000000000000D+00 0.538663728628792D+03
 0.876307334990510D+03 0.000000000000000D+00 0.000000000000000D+00 -.876307334990510D+03
 0.564325471032031D+03 0.314723049795933D+03 -.411287981822558D+03 0.186090932586727D+03
 0.135330747470120D+03 -.975890086410173D+02 0.796576009615791D+02 -.494516249715898D+02
 0.372898314657199D+03 -.167343890078544D+03 0.303938933244847D+03 -.136639307615137D+03
 0.342416530459952D+03 -.497901510763722D+02 0.276914476161319D+02 -.337643606361717D+03
0.185249093637D-03 0.000000000000D+00 0.000000000000D+00 0.118386425688D-03 0.252552314915D-06  6 -1 2 25 -1 2 21 2 0.27067372D-01 0.41276359D+00 0.28231534D+06 0.28231534D+06 0.28231534D+06 0.10865095D+01  1  2  1  2  6  2        2 0.997772966593D-03 0.100000000000D+01
  </mgrwgt>
  </event>
  <event>
  7     66 0.16841828E-05 0.38849976E+02 0.75467711E-02 0.93077005E-01
       -1 -1    0    0    0  501 0.00000000E+00 0.00000000E+00 0.32317513E+03 0.32317528E+03 0.32000000E+00 0.0000E+00 0.9000E+01
        2 -1    0    0  503    0 0.00000000E+00 0.00000000E+00 -.11774493E+04 0.11774494E+04 0.32000000E+00 0.0000E+00 0.9000E+01
       24  2    1    2    0    0 -.41199429E+03 0.35500510E+03 -.61278761E+03 0.82314217E+03 0.79287216E+02 0.0000E+00 0.0000E+00
       25  1    1    2    0    0 0.43868707E+03 -.33885938E+03 -.16016762E+03 0.59038182E+03 0.12500000E+03 0.0000E+00 0.9000E+01
       -1  1    3    3    0  502 -.30621329E+03 0.21538931E+03 -.42275337E+03 0.56469430E+03 0.32000000E+00 0.0000E+00 0.9000E+01
        2  1    3    3  502    0 -.10578100E+03 0.13961579E+03 -.19003424E+03 0.25844787E+03 0.32000000E+00 0.0000E+00 0.9000E+01
       21  1    1    2  503  501 -.26692777E+02 -.16145723E+02 -.81318944E+02 0.87100642E+02 0.75000000E+00 0.0000E+00 0.9000E+01
#aMCatNLO 2  0  0  2  5 0.83858320D+01 0.00000000D+00  -5  6  0 0.00000000D+00 0.00000000D+00 0.00000000D+00 0.00000000D+00 0.00000000D+00
  <mgrwgt>
 0.1394434936D-02    1    2    0
 0.591527068079891D+03 0.000000000000000D+00 0.000000000000000D+00 0.591527068079891D+03
 0.591527068079891D+03 0.000000000000000D+00 0.000000000000000D+00 -.591527068079891D+03
 0.595473860192555D+03 0.425196837501648D+03 -.347019247778369D+03 0.194292071949821D+03
 0.402466591101215D+03 -.315249338581933D+03 0.209926867311463D+03 -.136117309175145D+03
 0.185113684866013D+03 -.109947498919715D+03 0.137092380466907D+03 -.581747627746754D+02
 0.000000000000000D+00 -.000000000000000D+00 -.000000000000000D+00 -.000000000000000D+00
 0.597070851199735D+03 0.000000000000000D+00 0.000000000000000D+00 0.597070851199735D+03
 0.637309597241599D+03 0.000000000000000D+00 0.000000000000000D+00 -.637309597241599D+03
 0.600538451618926D+03 0.438687066511875D+03 -.338859381344989D+03 0.194292071949821D+03
 0.398358620012570D+03 -.306216559079249D+03 0.215390545815971D+03 -.136117309175145D+03
 0.184568296596440D+03 -.105777730313128D+03 0.139614558175088D+03 -.581747627746754D+02
 0.509150802133971D+02 -.266927771194975D+02 -.161457226460703D+02 -.402387460418645D+02
0.108482044014D-03 0.000000000000D+00 0.000000000000D+00 0.982658761473D-04 0.631069040041D-06  6 -1 2 25 -1 2 21 2 0.49719037D-01 0.18114523D+00 0.33003780D+06 0.33003780D+06 0.33003780D+06 0.10814990D+01  1  2  1  2  6  2        2 0.139443493602D-02 0.100000000000D+01
  </mgrwgt>
  </event>
  <event>
  6     66 0.16841828E-05 0.16017901E+02 0.75467711E-02 0.93809909E-01
       -1 -1    0    0    0  501 0.00000000E+00 0.00000000E+00 0.33320226E+03 0.33320241E+03 0.32000000E+00 0.0000E+00 0.9000E+01
        2 -1    0    0  501    0 0.00000000E+00 0.00000000E+00 -.92405611E+03 0.92405616E+03 0.32000000E+00 0.0000E+00 0.9000E+01
       24  2    1    2    0    0 -.99056567E+02 0.47713169E+03 -.56938684E+03 0.75371842E+03 0.80145002E+02 0.0000E+00 0.0000E+00
       25  1    1    2    0    0 0.99056567E+02 -.47713169E+03 -.21467003E+02 0.50354016E+03 0.12500000E+03 0.0000E+00 0.9000E+01
       -1  1    3    3    0  502 -.65072044E+01 0.18580438E+02 -.43497704E+01 0.20164308E+02 0.32000000E+00 0.0000E+00 0.9000E+01
        2  1    3    3  502    0 -.92549363E+02 0.45855125E+03 -.56503707E+03 0.73355411E+03 0.32000000E+00 0.0000E+00 0.9000E+01
#aMCatNLO 1  0  0  2  5 0.83858320D+01 0.00000000D+00  -5  6  0 0.00000000D+00 0.00000000D+00 0.00000000D+00 0.00000000D+00 0.00000000D+00
  <mgrwgt>
 0.1476384712D-03    7    2    0
 0.554885316385092D+03 0.000000000000000D+00 0.000000000000000D+00 0.554885316385092D+03
 0.554885316385092D+03 0.000000000000000D+00 0.000000000000000D+00 -.554885316385092D+03
 0.559031118394149D+03 0.990565669487463D+02 -.477131693420146D+03 0.243770250464174D+03
 0.205201432905724D+02 -.650583266901017D+01 0.185734240597758D+02 0.581191368175757D+01
 0.530219371085462D+03 -.925507342797361D+02 0.458558269360370D+03 -.249582164145931D+03
 0.000000000000000D+00 0.000000000000000D+00 0.000000000000000D+00 -.000000000000000D+00
 0.568820439988454D+03 0.000000000000000D+00 0.000000000000000D+00 0.568820439988454D+03
 0.692648774640021D+03 0.000000000000000D+00 0.000000000000000D+00 -.692648774640021D+03
 0.589051373205428D+03 0.802983895964774D+02 -.515252126528408D+03 0.243770250464174D+03
 0.195542081939826D+02 -.716059554356381D+01 0.172428126740072D+02 0.581191368175757D+01
 0.504208725836304D+03 -.109451946380962D+03 0.424211567479155D+03 -.249582164145931D+03
 0.148654907392761D+03 0.363141523280486D+02 0.737977463752461D+02 -.123828334651567D+03
0.349560161767D-05 0.000000000000D+00 0.000000000000D+00 0.730441628161D-04 0.000000000000D+00  6 -1 2 25 -1 2 21 0 0.51261902D-01 0.14216249D+00 0.24530576D+06 0.24530576D+06 0.24530576D+06 0.10910790D+01  1  2  2  2  6  2        2 0.523572581514D-04 0.100000000000D+01
0.130039013965D-05 0.000000000000D+00 -.134240306249D-07 0.730441628161D-04 0.000000000000D+00  6 -1 2 25 -1 2 21 2 0.51261902D-01 0.14216249D+00 0.24530576D+06 0.24530576D+06 0.24530576D+06 0.10910790D+01  1  2  3  2  6  2        2 0.231868093906D-04 0.100000000000D+01
-.109705539718D-05 0.000000000000D+00 0.000000000000D+00 0.730441628161D-04 0.000000000000D+00  6 -1 2 25 -1 2 21 2 0.51261902D-01 0.14216249D+00 0.24530576D+06 0.24530576D+06 0.24530576D+06 0.10910790D+01  1  2 15  2  6  2        2 -.195612175222D-04 0.100000000000D+01
-.120069803871D-05 0.000000000000D+00 0.000000000000D+00 0.730441628161D-04 0.000000000000D+00  6 -1 2 25 -1 2 21 2 0.51261902D-01 0.14216249D+00 0.24530576D+06 0.24530576D+06 0.24530576D+06 0.10910790D+01  1  2  4  2  6  2        2 -.214092338217D-04 0.100000000000D+01
-.221475733357D-04 0.000000000000D+00 -.317787305265D-05 0.730441628161D-04 0.000000000000D+00  6 -1 2 25 -1 2 21 2 0.51261902D-01 0.17944941D+00 0.24530576D+06 0.24530576D+06 0.24530576D+06 0.10910790D+01  1  2  5  2  6  2        2 -.281066290244D-03 0.100000000000D+01
0.223627010124D-04 0.000000000000D+00 0.309357520811D-05 0.730441628161D-04 0.000000000000D+00  6 -1 2 25 -1 2 21 2 0.51261902D-01 0.14216249D+00 0.24530576D+06 0.24530576D+06 0.24530576D+06 0.10910790D+01  1  2  6  2  6  2        2 0.398741631472D-03 0.100000000000D+01
-.663838073381D-06 0.000000000000D+00 -.102049965367D-06 0.730441628161D-04 0.000000000000D+00  6 -1 21 25 -1 2 -2 2 0.51261902D-01 0.17944941D+00 0.24530576D+06 0.24530576D+06 0.24530576D+06 0.10910790D+01  1  2  5  6  6  2        2 -.461048620582D-05 0.100000000000D+01
  </mgrwgt>
  </event>
  <event>
  7     66 0.16841828E-05 0.53218193E+02 0.75467711E-02 0.95452785E-01
       -1 -1    0    0    0  501 0.00000000E+00 0.00000000E+00 0.12896634E+03 0.12896674E+03 0.32000000E+00 0.0000E+00 0.9000E+01
        2 -1    0    0  501    0 -.00000000E+00 -.00000000E+00 -.17083805E+04 0.17083805E+04 0.32000000E+00 0.0000E+00 0.9000E+01
       24  2    1    2    0    0 0.14066601E+03 0.43091101E+03 -.85980323E+03 0.97773333E+03 0.10597004E+03 0.0000E+00 0.0000E+00
       25  1    1    2    0    0 -.14066601E+03 -.43091101E+03 -.71961093E+03 0.85961394E+03 0.12500000E+03 0.0000E+00 0.9000E+01
       -1  1    3    3    0  502 0.49823733E+02 0.27492331E+03 -.51739994E+03 0.58802043E+03 0.32000000E+00 0.0000E+00 0.9000E+01
        2  1    3    3  503    0 0.82797548E+02 0.13753102E+03 -.26590157E+03 0.31060258E+03 0.32000000E+00 0.0000E+00 0.9000E+01
       21  1    3    3  502  503 0.80447250E+01 0.18456681E+02 -.76501721E+02 0.79110319E+02 0.75000000E+00 0.0000E+00 0.9000E+01
#aMCatNLO 2  0  0  5  5 0.24281402D+01 0.00000000D+00  -5  6  0 0.00000000D+00 0.00000000D+00 0.00000000D+00 0.00000000D+00 0.00000000D+00
  <mgrwgt>
 0.4561965518D-02    1    2    0
 0.469386807007029D+03 0.000000000000000D+00 0.000000000000000D+00 0.469386807007029D+03
 0.469386807007029D+03 -.000000000000000D+00 -.000000000000000D+00 -.469386807007029D+03
 0.474385666246290D+03 -.142079617581282D+03 -.433338366226081D+03 0.380526341322696D+02
 0.278857708616112D+03 0.489957030350476D+02 0.273536238675219D+03 -.232157030938873D+02
 0.185530239151655D+03 0.930839145462342D+02 0.159802127550861D+03 -.148369310383822D+02
 0.000000000000000D+00 0.000000000000000D+00 0.000000000000000D+00 -.000000000000000D+00
 0.469386807007029D+03 0.000000000000000D+00 0.000000000000000D+00 0.469386807007029D+03
 0.469386807007029D+03 -.000000000000000D+00 -.000000000000000D+00 -.469386807007029D+03
 0.471718275872376D+03 -.140660671445519D+03 -.430902385611380D+03 0.378264639495250D+02
 0.280429345876047D+03 0.498345096073752D+02 0.274976262717128D+03 -.233494030497694D+02
 0.160420662008011D+03 0.827551863167356D+02 0.137409783392787D+03 0.221796409305129D+01
 0.262053302576235D+02 0.807097552140767D+01 0.185163395014649D+02 -.166950249928069D+02
0.140859988972D-03 0.000000000000D+00 0.000000000000D+00 0.939051584496D-04 0.146516942832D-05  6 -1 2 25 -1 2 21 2 0.19841008D-01 0.26282780D+00 0.21634546D+06 0.21634546D+06 0.21634546D+06 0.10952146D+01  1  2  1  4  6  5        2 0.456196551753D-02 0.100000000000D+01
  </mgrwgt>
  </event>
  <event>
  7     66 0.16841828E-05 0.18450068E+02 0.75467711E-02 0.90497400E-01
       -1 -1    0    0    0  503 0.00000000E+00 0.00000000E+00 0.66127430E+03 0.66127437E+03 0.32000000E+00 0.0000E+00 0.9000E+01
        2 -1    0    0  501    0 0.00000000E+00 0.00000000E+00 -.85070640E+03 0.85070646E+03 0.32000000E+00 0.0000E+00 0.9000E+01
       24  2    1    2    0    0 0.50419782E+03 0.51603022E+03 -.19601983E+03 0.75192334E+03 0.80388507E+02 0.0000E+00 0.0000E+00
       25  1    1    2    0    0 -.50799201E+03 -.50470402E+03 -.23895681E+02 0.72730876E+03 0.12500000E+03 0.0000E+00 0.9000E+01
       -1  1    3    3    0  502 0.47744586E+03 0.46134488E+03 -.19093271E+03 0.69083215E+03 0.32000000E+00 0.0000E+00 0.9000E+01
        2  1    3    3  502    0 0.26751956E+02 0.54685333E+02 -.50871219E+01 0.61091194E+02 0.32000000E+00 0.0000E+00 0.9000E+01
       21  1    1    2  501  503 0.37941898E+01 -.11326198E+02 0.30483414E+02 0.32748735E+02 0.75000000E+00 0.0000E+00 0.9000E+01
#aMCatNLO 2  0  0  1  5 0.34797498D+02 0.00000000D+00  -5  6  0 0.00000000D+00 0.00000000D+00 0.00000000D+00 0.00000000D+00 0.00000000D+00
  <mgrwgt>
 0.7814268974D-03    1    2    0
 0.731372354735076D+03 0.000000000000000D+00 0.000000000000000D+00 0.731372354735076D+03
 0.731372354735076D+03 0.000000000000000D+00 0.000000000000000D+00 -.731372354735076D+03
 0.734504373588923D+03 -.506090210397411D+03 -.510381150808497D+03 0.851789566768319D+02
 0.667589030988653D+03 0.479187620046311D+03 0.456173246678472D+03 -.892205587605379D+02
 0.606513048925757D+02 0.269025903511002D+02 0.542079041300256D+02 0.404160208370602D+01
 0.000000000000000D+00 0.000000000000000D+00 -.000000000000000D+00 0.000000000000000D+00
 0.768117344302565D+03 0.000000000000000D+00 0.000000000000000D+00 0.768117344302565D+03
 0.732368119724446D+03 0.000000000000000D+00 0.000000000000000D+00 -.732368119724446D+03
 0.731889663127800D+03 -.507992006534866D+03 -.504704017845561D+03 0.851789566768319D+02
 0.669900533542054D+03 0.477453002730623D+03 0.461351326992670D+03 -.892205587605379D+02
 0.610032828484221D+02 0.267448140513633D+02 0.546788889082392D+02 0.404160208370602D+01
 0.376919845087340D+02 0.379418975287918D+01 -.113261980553481D+02 0.357492245781194D+02
0.167207540618D-03 0.000000000000D+00 0.000000000000D+00 0.712649748545D-04 0.303332171537D-05  6 -1 2 25 -1 2 21 2 0.10173400D+00 0.13087725D+00 0.53557714D+06 0.53557714D+06 0.53557714D+06 0.10664070D+01  1  2  1  1  6  1       -1 0.781426897353D-03 0.100000000000D+01
  </mgrwgt>
  </event>
  <event>
  7     66 0.16841828E-05 0.68296486E+02 0.75467711E-02 0.94969746E-01
       -1 -1    0    0    0  503 0.00000000E+00 0.00000000E+00 0.60200979E+03 0.60200987E+03 0.32000000E+00 0.0000E+00 0.9000E+01
        2 -1    0    0  501    0 0.00000000E+00 0.00000000E+00 -.74112847E+03 0.74112854E+03 0.32000000E+00 0.0000E+00 0.9000E+01
       24  2    1    2    0    0 0.44279885E+03 -.15505634E+03 -.35267644E+03 0.59307917E+03 0.85140721E+02 0.0000E+00 0.0000E+00
       25  1    1    2    0    0 -.44332920E+03 0.14437420E+03 -.50897526E+02 0.48538670E+03 0.12500000E+03 0.0000E+00 0.9000E+01
       -1  1    3    3    0  502 0.26946678E+03 -.49804631E+02 -.20092915E+03 0.33980211E+03 0.32000000E+00 0.0000E+00 0.9000E+01
        2  1    3    3  502    0 0.17333208E+03 -.10525171E+03 -.15174729E+03 0.25327707E+03 0.32000000E+00 0.0000E+00 0.9000E+01
       21  1    1    2  501  503 0.53034605E+00 0.10682140E+02 0.26445529E+03 0.26467254E+03 0.75000000E+00 0.0000E+00 0.9000E+01
#aMCatNLO 2  0  0  1  2 0.66082453D+01 0.00000000D+00  -5  6  0 0.00000000D+00 0.00000000D+00 0.00000000D+00 0.00000000D+00 0.00000000D+00
  <mgrwgt>
 0.5420642953D-02    1    2    0
 0.500025575307416D+03 0.000000000000000D+00 0.000000000000000D+00 0.500025575307416D+03
 0.500025575307416D+03 0.000000000000000D+00 0.000000000000000D+00 -.500025575307416D+03
 0.504213390493451D+03 -.443062167804421D+03 0.149752716166583D+03 0.140982916036232D+03
 0.284972561005478D+03 0.269619354907212D+03 -.467579858525411D+02 -.795515854301659D+02
 0.210865199115904D+03 0.173442812897209D+03 -.102994730314042D+03 -.614313306060661D+02
 0.000000000000000D+00 0.000000000000000D+00 0.000000000000000D+00 0.000000000000000D+00
 0.892105315566701D+03 0.000000000000000D+00 0.000000000000000D+00 0.892105315566701D+03
 0.500127113267256D+03 0.000000000000000D+00 0.000000000000000D+00 -.500127113267256D+03
 0.502877591640729D+03 -.443329199869917D+03 0.144374201653204D+03 0.140982916036232D+03
 0.285345323348031D+03 0.269468134048968D+03 -.498038506975764D+02 -.795515854301659D+02
 0.211885425756250D+03 0.173330719774986D+03 -.105252490945158D+03 -.614313306060661D+02
 0.392124088088947D+03 0.530346045962374D+00 0.106821399895299D+02 0.391978202299445D+03
0.726625011087D-03 0.000000000000D+00 0.000000000000D+00 0.111045946307D-04 0.725155691126D-06  6 -1 2 25 -1 2 21 2 0.92616836D-01 0.11401969D+00 0.23533301D+06 0.23533301D+06 0.23533301D+06 0.10924399D+01  1  2  1  1  6  1       -1 0.542064295274D-02 0.100000000000D+01
  </mgrwgt>
  </event>
  <event>
  7     66 0.16841828E-05 0.69432186E+02 0.75467711E-02 0.94200963E-01
       -1 -1    0    0    0  501 0.00000000E+00 0.00000000E+00 0.78429494E+02 0.78430146E+02 0.32000000E+00 0.0000E+00 0.9000E+01
        2 -1    0    0  503    0 0.00000000E+00 0.00000000E+00 -.40584022E+04 0.40584022E+04 0.32000000E+00 0.0000E+00 0.9000E+01
       24  2    1    2    0    0 -.48314914E+03 0.16192958E+03 -.12618138E+04 0.13631837E+04 0.80257602E+02 0.0000E+00 0.0000E+00
       25  1    1    2    0    0 0.47474585E+03 -.14916519E+03 -.23585451E+04 0.24137095E+04 0.12500000E+03 0.0000E+00 0.9000E+01
       -1  1    3    3    0  502 -.25372875E+03 0.74328007E+02 -.75617392E+03 0.80106306E+03 0.32000000E+00 0.0000E+00 0.9000E+01
        2  1    3    3  502    0 -.22942039E+03 0.87601576E+02 -.50563993E+03 0.56212062E+03 0.32000000E+00 0.0000E+00 0.9000E+01
       21  1    1    2  503  501 0.84032893E+01 -.12764398E+02 -.35961377E+03 0.35993912E+03 0.75000000E+00 0.0000E+00 0.9000E+01
#aMCatNLO 2  0  0  2  1 0.13697273D+02 0.00000000D+00  -5  6  0 0.00000000D+00 0.00000000D+00 0.00000000D+00 0.00000000D+00 0.00000000D+00
  <mgrwgt>
 0.9562855153D-03    1    2    0
 0.537980051227118D+03 0.000000000000000D+00 0.000000000000000D+00 0.537980051227118D+03
 0.537980051227118D+03 0.000000000000000D+00 0.000000000000000D+00 -.537980051227118D+03
 0.542247736104481D+03 0.478959014489573D+03 -.155564879551443D+03 -.157497422200356D+03
 0.264719554316150D+03 -.251650699682382D+03 0.711706928299657D+02 0.410256050389429D+02
 0.268992812033605D+03 -.227308314807191D+03 0.843941867214777D+02 0.116471817161413D+03
 0.000000000000000D+00 0.000000000000000D+00 -.000000000000000D+00 -.000000000000000D+00
 0.539149974191425D+03 0.000000000000000D+00 0.000000000000000D+00 0.539149974191425D+03
 0.590367649115801D+03 0.000000000000000D+00 0.000000000000000D+00 -.590367649115801D+03
 0.536716232958490D+03 0.474745852147767D+03 -.149165185582580D+03 -.157497422200356D+03
 0.267555972585342D+03 -.253729140918333D+03 0.743277959186291D+02 0.410256050389429D+02
 0.271796420146430D+03 -.229420000547590D+03 0.876017874262674D+02 0.116471817161413D+03
 0.534489976169649D+02 0.840328931815626D+01 -.127643977623169D+02 -.512176749243759D+02
0.435708065583D-03 0.000000000000D+00 0.000000000000D+00 0.184171252247D-03 0.499563967680D-05  6 -1 2 25 -1 2 21 2 0.12066068D-01 0.62436657D+00 0.26953634D+06 0.26953634D+06 0.26953634D+06 0.10880093D+01  1  2  1  2  6  2        2 0.956285515261D-03 0.100000000000D+01
  </mgrwgt>
  </event>
  <event>
  7     66 0.16841828E-05 0.33592431E+02 0.75467711E-02 0.91396253E-01
       -1 -1    0    0    0  501 0.00000000E+00 0.00000000E+00 0.45250503E+03 0.45250515E+03 0.32000000E+00 0.0000E+00 0.9000E+01
        2 -1    0    0  503    0 0.00000000E+00 0.00000000E+00 -.10861554E+04 0.10861554E+04 0.32000000E+00 0.0000E+00 0.9000E+01
       24  2    1    2    0    0 0.37072678E+03 -.54806988E+03 -.25489017E+03 0.71351787E+03 0.79497276E+02 0.0000E+00 0.0000E+00
       25  1    1    2    0    0 -.36164192E+03 0.50556935E+03 -.23703503E+03 0.67690166E+03 0.12500000E+03 0.0000E+00 0.9000E+01
       -1  1    3    3    0  502 0.14801815E+03 -.15821192E+03 -.99384367E+02 0.23836471E+03 0.32000000E+00 0.0000E+00 0.9000E+01
        2  1    3    3  502    0 0.22270863E+03 -.38985796E+03 -.15550580E+03 0.47515315E+03 0.32000000E+00 0.0000E+00 0.9000E+01
       21  1    1    2  503  501 -.90848617E+01 0.42500524E+02 -.14172515E+03 0.14824105E+03 0.75000000E+00 0.0000E+00 0.9000E+01
#aMCatNLO 2  0  0  2  1 0.13697273D+02 0.00000000D+00  -5  6  0 0.00000000D+00 0.00000000D+00 0.00000000D+00 0.00000000D+00 0.00000000D+00
  <mgrwgt>
 0.1206236301D-02    1    2    0
 0.649882147748629D+03 0.000000000000000D+00 0.000000000000000D+00 0.649882147748629D+03
 0.649882147748629D+03 0.000000000000000D+00 0.000000000000000D+00 -.649882147748629D+03
 0.653461713367131D+03 -.366140262725062D+03 0.526613383996579D+03 0.261966486437604D+01
 0.211164246744372D+03 0.146520124284510D+03 -.151205830499451D+03 -.160931384677158D+02
 0.435138335385755D+03 0.219620138440551D+03 -.375407553497128D+03 0.134734736033397D+02
 0.000000000000000D+00 -.000000000000000D+00 0.000000000000000D+00 -.000000000000000D+00
 0.654959611997580D+03 0.000000000000000D+00 0.000000000000000D+00 0.654959611997580D+03
 0.750411007181354D+03 0.000000000000000D+00 0.000000000000000D+00 -.750411007181354D+03
 0.634048191433171D+03 -.361641915656617D+03 0.505569353556844D+03 0.261966486437604D+01
 0.217250605715878D+03 0.148016935057350D+03 -.158208165131903D+03 -.160931384677158D+02
 0.449191899886411D+03 0.222709842299560D+03 -.389861712117937D+03 0.134734736033397D+02
 0.104879922143474D+03 -.908486170029219D+01 0.425005236929951D+02 -.954513951837738D+02
0.161263038825D-03 0.000000000000D+00 0.000000000000D+00 0.126252308598D-03 0.413156410640D-06  6 -1 2 25 -1 2 21 2 0.69616030D-01 0.16710050D+00 0.45101094D+06 0.45101094D+06 0.45101094D+06 0.10716899D+01  1  2  1  2  6  2        2 0.120623630071D-02 0.100000000000D+01
  </mgrwgt>
  </event>
  <event>
  7     66 0.16841828E-05 0.11800286E+03 0.75467711E-02 0.87469836E-01
       -1 -1    0    0    0  501 0.00000000E+00 0.00000000E+00 0.37860123E+03 0.37860137E+03 0.32000000E+00 0.0000E+00 0.9000E+01
        2 -1    0    0  503    0 0.00000000E+00 0.00000000E+00 -.28761916E+04 0.28761917E+04 0.32000000E+00 0.0000E+00 0.9000E+01
       24  2    1    2    0    0 0.88196319E+03 -.32220421E+03 -.73622569E+03 0.11958660E+04 0.79953233E+02 0.0000E+00 0.0000E+00
       25  1    1    2    0    0 -.76584626E+03 0.42478079E+03 -.13016878E+04 0.15738409E+04 0.12500000E+03 0.0000E+00 0.9000E+01
       -1  1    3    3    0  502 0.48778535E+03 -.14237303E+03 -.37025071E+03 0.62872117E+03 0.32000000E+00 0.0000E+00 0.9000E+01
        2  1    3    3  502    0 0.39417785E+03 -.17983119E+03 -.36597499E+03 0.56714480E+03 0.32000000E+00 0.0000E+00 0.9000E+01
       21  1    1    2  503  501 -.11611693E+03 -.10257658E+03 -.45967694E+03 0.48508613E+03 0.75000000E+00 0.0000E+00 0.9000E+01
#aMCatNLO 2  0  0  2  1 0.20501844D+02 0.00000000D+00  -5  6  0 0.00000000D+00 0.00000000D+00 0.00000000D+00 0.00000000D+00 0.00000000D+00
  <mgrwgt>
 0.3717173590D-03    1    2    0
 0.934636282020930D+03 0.000000000000000D+00 0.000000000000000D+00 0.934636282020930D+03
 0.934636282020930D+03 0.000000000000000D+00 0.000000000000000D+00 -.934636282020930D+03
 0.937105820355632D+03 -.823109447892422D+03 0.374195044213861D+03 -.212158488447717D+03
 0.505437697303773D+03 0.455802084080384D+03 -.170627457118840D+03 0.136374472981116D+03
 0.426729046382455D+03 0.367307363812038D+03 -.203567587095020D+03 0.757840154666009D+02
 0.000000000000000D+00 -.000000000000000D+00 -.000000000000000D+00 -.000000000000000D+00
 0.970404175524217D+03 0.000000000000000D+00 0.000000000000000D+00 0.970404175524217D+03
 0.112213916209873D+04 0.000000000000000D+00 0.000000000000000D+00 -.112213916209873D+04
 0.909722728679003D+03 -.765846261697079D+03 0.424780793232651D+03 -.212158488447717D+03
 0.526121574574575D+03 0.487786845572174D+03 -.142372425836960D+03 0.136374472981116D+03
 0.439838243248956D+03 0.394176346362094D+03 -.179831785824187D+03 0.757840154666009D+02
 0.216860791120413D+03 -.116116930237189D+03 -.102576581571504D+03 -.151734986574513D+03
0.409562321053D-03 0.000000000000D+00 0.000000000000D+00 0.248633410727D-03 0.616857884564D-07  6 -1 2 25 -1 2 21 2 0.58246317D-01 0.44249074D+00 0.98106412D+06 0.98106412D+06 0.98106412D+06 0.10484171D+01  1  2  1  2  6  2        2 0.371717359030D-03 0.100000000000D+01
  </mgrwgt>
  </event>
  <event>
  7     66 0.16841828E-05 0.19155437E+02 0.75467711E-02 0.95094187E-01
       -1 -1    0    0    0  501 0.00000000E+00 0.00000000E+00 0.59574921E+03 0.59574929E+03 0.32000000E+00 0.0000E+00 0.9000E+01
        2 -1    0    0  503    0 0.00000000E+00 0.00000000E+00 -.42222300E+03 0.42222313E+03 0.32000000E+00 0.0000E+00 0.9000E+01
       24  2    1    2    0    0 0.58417748E+02 -.46495081E+03 0.16485072E+03 0.50301480E+03 0.79096399E+02 0.0000E+00 0.0000E+00
       25  1    1    2    0    0 -.48187852E+02 0.46020274E+03 0.40667574E+02 0.48102753E+03 0.12500000E+03 0.0000E+00 0.9000E+01
       -1  1    3    3    0  502 0.59529208E+02 -.42208674E+03 0.17178675E+03 0.45957777E+03 0.32000000E+00 0.0000E+00 0.9000E+01
        2  1    3    3  502    0 -.11114592E+01 -.42864075E+02 -.69360361E+01 0.43437026E+02 0.32000000E+00 0.0000E+00 0.9000E+01
       21  1    1    2  503  501 -.10229896E+02 0.47480719E+01 -.31992088E+02 0.33930092E+02 0.75000000E+00 0.0000E+00 0.9000E+01
#aMCatNLO 2  0  0  2  1 0.20501844D+02 0.00000000D+00  -5  6  0 0.00000000D+00 0.00000000D+00 0.00000000D+00 0.00000000D+00 0.00000000D+00
  <mgrwgt>
 0.4075512927D-02    1    2    0
 0.481137801230582D+03 0.000000000000000D+00 0.000000000000000D+00 0.481137801230582D+03
 0.481137801230582D+03 0.000000000000000D+00 0.000000000000000D+00 -.481137801230582D+03
 0.486005824334891D+03 -.533394055411162D+02 0.462593764030863D+03 -.611439169804734D+02
 0.430574822857603D+03 0.549386654509096D+02 -.419961842420335D+03 0.775143343404734D+02
 0.456949552686712D+02 -.159925990979336D+01 -.426319216105278D+02 -.163704173600001D+02
 0.000000000000000D+00 -.000000000000000D+00 0.000000000000000D+00 -.000000000000000D+00
 0.481951376394176D+03 0.000000000000000D+00 0.000000000000000D+00 0.481951376394176D+03
 0.521910731361338D+03 0.000000000000000D+00 0.000000000000000D+00 -.521910731361338D+03
 0.483189618997679D+03 -.481878520682106D+02 0.460202738188790D+03 -.611439169804734D+02
 0.433260625037290D+03 0.595302001431491D+02 -.422092942905201D+03 0.775143343404734D+02
 0.458914468720984D+02 -.111245175230049D+01 -.428578672191329D+02 -.163704173600001D+02
 0.415204168484458D+02 -.102298963226380D+02 0.474807193554420D+01 -.399593549671623D+02
0.277456281385D-03 0.000000000000D+00 0.000000000000D+00 0.608851977785D-04 0.305748993804D-05  6 -1 2 25 -1 2 21 2 0.91653097D-01 0.64956945D-01 0.23026848D+06 0.23026848D+06 0.23026848D+06 0.10931554D+01  1  2  1  2  6  2        2 0.407551292673D-02 0.100000000000D+01
  </mgrwgt>
  </event>
  <event>
  7     66 0.16841828E-05 0.71376673E+02 0.75467711E-02 0.94825342E-01
       -1 -1    0    0    0  503 0.00000000E+00 0.00000000E+00 0.14973395E+04 0.14973395E+04 0.32000000E+00 0.0000E+00 0.9000E+01
        2 -1    0    0  501    0 0.00000000E+00 0.00000000E+00 -.28699274E+03 0.28699292E+03 0.32000000E+00 0.0000E+00 0.9000E+01
       24  2    1    2    0    0 0.19211258E+03 0.41674195E+03 0.52503373E+01 0.46814674E+03 0.92480832E+02 0.0000E+00 0.0000E+00
       25  1    1    2    0    0 -.18124668E+03 -.43822169E+03 0.10458190E+04 0.11550979E+04 0.12500000E+03 0.0000E+00 0.9000E+01
       -1  1    3    3    0  502 0.14865686E+03 0.21288249E+03 0.37617770E+00 0.25964988E+03 0.32000000E+00 0.0000E+00 0.9000E+01
        2  1    3    3  502    0 0.43455720E+02 0.20385947E+03 0.48741596E+01 0.20849686E+03 0.32000000E+00 0.0000E+00 0.9000E+01
       21  1    1    2  501  503 -.10865899E+02 0.21479742E+02 0.15927740E+03 0.16108786E+03 0.75000000E+00 0.0000E+00 0.9000E+01
#aMCatNLO 2  0  0  1  1 0.14031729D+03 0.00000000D+00  -5  6  0 0.00000000D+00 0.00000000D+00 0.00000000D+00 0.00000000D+00 0.00000000D+00
  <mgrwgt>
 0.1263747499D-02    1    2    0
 0.618384334613521D+03 0.000000000000000D+00 0.000000000000000D+00 0.618384334613521D+03
 0.618384334613521D+03 0.000000000000000D+00 0.000000000000000D+00 -.618384334613521D+03
 0.621243519129881D+03 -.186730143427197D+03 -.427381962333618D+03 0.390890038077723D+03
 0.342859814856867D+03 0.145656908013943D+03 0.218815377471960D+03 -.220128935792881D+03
 0.272665335240294D+03 0.410732354132541D+02 0.208566584861658D+03 -.170761102284842D+03
 0.000000000000000D+00 -.000000000000000D+00 0.000000000000000D+00 0.000000000000000D+00
 0.692591809299515D+03 0.000000000000000D+00 0.000000000000000D+00 0.692591809299515D+03
 0.620456656888443D+03 0.000000000000000D+00 0.000000000000000D+00 -.620456656888443D+03
 0.627143232943154D+03 -.181246676541445D+03 -.438221696177481D+03 0.390890038077723D+03
 0.340404145928967D+03 0.148658105597124D+03 0.212882601056540D+03 -.220128935792881D+03
 0.269455526648123D+03 0.434544700661405D+02 0.203859353032805D+03 -.170761102284842D+03
 0.760455606677141D+02 -.108658991218199D+02 0.214797420881360D+02 0.721351524110719D+02
0.849327016675D-03 0.000000000000D+00 0.000000000000D+00 0.101886934477D-05 0.112604215062D-07  6 -1 2 25 -1 2 21 2 0.23035925D+00 0.44152614D-01 0.24136737D+06 0.24136737D+06 0.24136737D+06 0.10916091D+01  1  2  1  1  6  1       -1 0.126374749933D-02 0.100000000000D+01
  </mgrwgt>
  </event>
  <event>
  7     66 0.16841828E-05 0.49498035E+02 0.75467711E-02 0.93521359E-01
       -1 -1    0    0    0  501 0.00000000E+00 0.00000000E+00 0.45513333E+03 0.45513344E+03 0.32000000E+00 0.0000E+00 0.9000E+01
        2 -1    0    0  503    0 0.00000000E+00 0.00000000E+00 -.99103212E+03 0.99103217E+03 0.32000000E+00 0.0000E+00 0.9000E+01
       24  2    1    2    0    0 -.53757939E+03 0.77948475E+02 -.27853135E+01 0.54908984E+03 0.80151930E+02 0.0000E+00 0.0000E+00
       25  1    1    2    0    0 0.45669565E+03 -.69413153E+02 -.14428638E+03 0.49983264E+03 0.12500000E+03 0.0000E+00 0.9000E+01
       -1  1    3    3    0  502 -.33048847E+03 0.36692023E+02 -.39166603E+02 0.33481795E+03 0.32000000E+00 0.0000E+00 0.9000E+01
        2  1    3    3  502    0 -.20709092E+03 0.41256452E+02 0.36381289E+02 0.21427189E+03 0.32000000E+00 0.0000E+00 0.9000E+01
       21  1    1    2  503  501 0.80883740E+02 -.85353216E+01 -.38882710E+03 0.39724313E+03 0.75000000E+00 0.0000E+00 0.9000E+01
#aMCatNLO 2  0  0  2  1 0.20501844D+02 0.00000000D+00  -5  6  0 0.00000000D+00 0.00000000D+00 0.00000000D+00 0.00000000D+00 0.00000000D+00
  <mgrwgt>
 0.1471535905D-02    1    2    0
 0.517685535092525D+03 0.000000000000000D+00 0.000000000000000D+00 0.517685535092525D+03
 0.517685535092525D+03 0.000000000000000D+00 0.000000000000000D+00 -.517685535092525D+03
 0.522128709361848D+03 0.495949957288363D+03 -.735554952369980D+02 -.749441000078047D+02
 0.307517895977473D+03 -.305525177923466D+03 0.340574709164902D+02 0.785561429924037D+01
 0.205724464845729D+03 -.190424779364897D+03 0.394980243205079D+02 0.670884857085643D+02
 0.000000000000000D+00 0.000000000000000D+00 -.000000000000000D+00 -.000000000000000D+00
 0.524125839206708D+03 0.000000000000000D+00 0.000000000000000D+00 0.524125839206708D+03
 0.860578012245977D+03 0.000000000000000D+00 0.000000000000000D+00 -.860578012245977D+03
 0.484386954892176D+03 0.456695651524738D+03 -.694131530916904D+02 -.749441000078047D+02
 0.332613799262205D+03 -.330490437964948D+03 0.366919500348095D+02 0.785561429924037D+01
 0.221559924883156D+03 -.207088953285005D+03 0.412565246583221D+02 0.670884857085643D+02
 0.346143172415147D+03 0.808837397252149D+02 -.853532160144117D+01 -.336452173039269D+03
0.167396814365D-03 0.000000000000D+00 0.000000000000D+00 0.179141016509D-03 0.187973491783D-06  6 -1 2 25 -1 2 21 2 0.70020471D-01 0.15246638D+00 0.30446481D+06 0.30446481D+06 0.30446481D+06 0.10840775D+01  1  2  1  2  6  2        2 0.147153590505D-02 0.100000000000D+01
  </mgrwgt>
  </event>
  <event>
  7     66 0.16841828E-05 0.20208903E+02 0.75467711E-02 0.92066753E-01
       21 -1    0    0  503  501 0.00000000E+00 0.00000000E+00 0.72111038E+03 0.72111077E+03 0.75000000E+00 0.0000E+00 0.9000E+01
        2 -1    0    0  501    0 0.00000000E+00 0.00000000E+00 -.77150499E+03 0.77150506E+03 0.32000000E+00 0.0000E+00 0.9000E+01
       24  2    1    2    0    0 0.58699167E+03 0.20415931E+03 0.48266786E+02 0.62797745E+03 0.76064122E+02 0.0000E+00 0.0000E+00
       25  1    1    2    0    0 -.55416246E+03 -.19830851E+03 -.29174082E+03 0.66870023E+03 0.12500000E+03 0.0000E+00 0.9000E+01
       -1  1    3    3    0  502 0.50825398E+02 0.42061588E+02 0.62979793E+01 0.66273412E+02 0.32000000E+00 0.0000E+00 0.9000E+01
        2  1    3    3  502    0 0.53616627E+03 0.16209772E+03 0.41968807E+02 0.56170404E+03 0.32000000E+00 0.0000E+00 0.9000E+01
        1  1    1    2  503    0 -.32829216E+02 -.58508007E+01 0.19307942E+03 0.19593814E+03 0.32000000E+00 0.0000E+00 0.9000E+01
#aMCatNLO 2  0  0  1  1 0.14031729D+03 0.00000000D+00  -5  6  0 0.00000000D+00 0.00000000D+00 0.00000000D+00 0.00000000D+00 0.00000000D+00
  <mgrwgt>
 0.1318445323D-03    1    2    0
 0.636588842099833D+03 0.000000000000000D+00 0.000000000000000D+00 0.636588842099833D+03
 0.636588842099833D+03 0.000000000000000D+00 0.000000000000000D+00 -.636588842099833D+03
 0.640452894004039D+03 -.570475163282684D+03 -.201215749049979D+03 -.169189892871887D+03
 0.671883964160148D+02 0.490655555286433D+02 0.417473561073803D+02 0.190790495482544D+02
 0.565536393779613D+03 0.521409607754040D+03 0.159468392942598D+03 0.150110843323632D+03
 0.000000000000000D+00 -.000000000000000D+00 -.000000000000000D+00 0.000000000000000D+00
 0.872021884094386D+03 0.000000000000000D+00 0.000000000000000D+00 0.872021884094386D+03
 0.637989041252473D+03 0.000000000000000D+00 0.000000000000000D+00 -.637989041252473D+03
 0.625038008028437D+03 -.554162455233519D+03 -.198308509246866D+03 -.169189892871887D+03
 0.686684531596853D+02 0.508168072524197D+02 0.420594630059583D+02 0.190790495482544D+02
 0.579907846535746D+03 0.536174864026410D+03 0.162099846935940D+03 0.150110843323632D+03
 0.236396617622991D+03 -.328292160453103D+02 -.585080069503256D+01 0.234032842841914D+03
0.442340793135D-05 0.000000000000D+00 0.000000000000D+00 0.572881924373D-05 0.133163721630D-08  6 21 2 25 -1 2 1 2 0.11094007D+00 0.11869309D+00 0.39762962D+06 0.39762962D+06 0.39762962D+06 0.10756138D+01  1  2  1  5  6  1       -1 0.131844532322D-03 0.100000000000D+01
  </mgrwgt>
  </event>
  <event>
  6     66 0.16841828E-05 0.57911687E+02 0.75467711E-02 0.93664297E-01
       -1 -1    0    0    0  501 0.00000000E+00 0.00000000E+00 0.16202014E+03 0.16202045E+03 0.32000000E+00 0.0000E+00 0.9000E+01
        2 -1    0    0  501    0 -.00000000E+00 -.00000000E+00 -.18804779E+04 0.18804780E+04 0.32000000E+00 0.0000E+00 0.9000E+01
       25  1    1    2    0    0 -.47394937E+03 0.23627644E+03 -.71430405E+03 0.89794757E+03 0.12500000E+03 0.0000E+00 0.9000E+01
       -1  1    1    2    0  502 0.33515131E+03 -.21309764E+03 -.66781729E+03 0.77699230E+03 0.32000000E+00 0.0000E+00 0.9000E+01
        2  1    1    2  503    0 0.12230709E+03 -.35709416E+02 -.28424396E+03 0.31149465E+03 0.32000000E+00 0.0000E+00 0.9000E+01
       21  1    1    2  502  503 0.16490973E+02 0.12530620E+02 -.52092516E+02 0.56063904E+02 0.75000000E+00 0.0000E+00 0.9000E+01
#aMCatNLO 2  0  0  5  2 0.64162655D+02 0.00000000D+00  -5  6  0 0.00000000D+00 0.00000000D+00 0.00000000D+00 0.00000000D+00 0.00000000D+00
  <mgrwgt>
 0.4617118119D-01    1    2    0
 0.551974314597338D+03 0.000000000000000D+00 0.000000000000000D+00 0.551974314597338D+03
 0.551974314597338D+03 -.000000000000000D+00 -.000000000000000D+00 -.551974314597338D+03
 0.552699075694911D+03 -.477256394802546D+03 0.236828724500339D+03 0.773935213414431D+02
 0.395774592907693D+03 0.332795871348368D+03 -.212716869639106D+03 -.252184411824065D+02
 0.155474960592071D+03 0.144460523454178D+03 -.241118548612329D+02 -.521750801590366D+02
 0.000000000000000D+00 0.000000000000000D+00 0.000000000000000D+00 -.000000000000000D+00
 0.551974314597338D+03 0.000000000000000D+00 0.000000000000000D+00 0.551974314597338D+03
 0.551974314597338D+03 -.000000000000000D+00 -.000000000000000D+00 -.551974314597338D+03
 0.549426069088459D+03 -.473933647982481D+03 0.236274126004152D+03 0.761934385953768D+02
 0.398058614268996D+03 0.335189162870018D+03 -.213116333080265D+03 -.260828308024930D+02
 0.133723193763221D+03 0.122172566982566D+03 -.357550972232899D+02 -.409552127290251D+02
 0.227407520739991D+02 0.165719181298972D+02 0.125973042994027D+02 -.915539506385869D+01
0.264482109958D-02 0.000000000000D+00 0.000000000000D+00 0.133849106652D-06 0.193151145532D-06  6 -1 2 25 -1 2 21 2 0.24926201D-01 0.28930433D+00 0.29671655D+06 0.29671655D+06 0.29671655D+06 0.10849057D+01  1  2  1  4  6  5        2 0.461711811942D-01 0.100000000000D+01
  </mgrwgt>
  </event>
  <event>
  7     66 0.16841828E-05 0.70136000E+02 0.75467711E-02 0.93104303E-01
       -1 -1    0    0    0  503 0.00000000E+00 0.00000000E+00 0.69451316E+03 0.69451324E+03 0.32000000E+00 0.0000E+00 0.9000E+01
        2 -1    0    0  501    0 0.00000000E+00 0.00000000E+00 -.52232423E+03 0.52232432E+03 0.32000000E+00 0.0000E+00 0.9000E+01
       24  2    1    2    0    0 -.48705725E+02 -.55410242E+03 -.56216883E+01 0.56206315E+03 0.80508644E+02 0.0000E+00 0.0000E+00
       25  1    1    2    0    0 0.37123940E+02 0.56127441E+03 0.11129245E+03 0.58687150E+03 0.12500000E+03 0.0000E+00 0.9000E+01
       -1  1    3    3    0  502 -.22105737E+02 -.28891880E+03 -.43012740E+02 0.29293844E+03 0.32000000E+00 0.0000E+00 0.9000E+01
        2  1    3    3  502    0 -.26599988E+02 -.26518363E+03 0.37391052E+02 0.26912471E+03 0.32000000E+00 0.0000E+00 0.9000E+01
       21  1    1    2  501  503 0.11581785E+02 -.71719843E+01 0.66518175E+02 0.67902910E+02 0.75000000E+00 0.0000E+00 0.9000E+01
#aMCatNLO 2  0  0  1  2 0.73505572D+01 0.00000000D+00  -5  6  0 0.00000000D+00 0.00000000D+00 0.00000000D+00 0.00000000D+00 0.00000000D+00
  <mgrwgt>
 0.1806291478D-02    1    2    0
 0.571991903018181D+03 0.000000000000000D+00 0.000000000000000D+00 0.571991903018181D+03
 0.571991903018181D+03 0.000000000000000D+00 0.000000000000000D+00 -.571991903018181D+03
 0.575988182606844D+03 0.429707859503363D+02 0.557653765778677D+03 0.575601908475448D+02
 0.299767343065155D+03 -.190790476544230D+02 -.290793394843477D+03 -.702541915073291D+02
 0.268228280364364D+03 -.238917382959134D+02 -.266860370935200D+03 0.126940006597843D+02
 0.000000000000000D+00 0.000000000000000D+00 -.000000000000000D+00 0.000000000000000D+00
 0.633318723680944D+03 0.000000000000000D+00 0.000000000000000D+00 0.633318723680944D+03
 0.572789457303974D+03 0.000000000000000D+00 0.000000000000000D+00 -.572789457303974D+03
 0.579090081321575D+03 0.371239401694203D+02 0.561274406846527D+03 0.575601908475448D+02
 0.298158681115290D+03 -.221056661624101D+02 -.288919170744305D+03 -.702541915073291D+02
 0.266816149870766D+03 -.266000589069198D+02 -.265183251818921D+03 0.126940006597843D+02
 0.620432686772857D+02 0.115817848999096D+02 -.717198428330108D+01 0.605292663769698D+02
0.227262185100D-03 0.000000000000D+00 0.000000000000D+00 0.208084293792D-03 0.703413647109D-05  6 -1 2 25 -1 2 21 2 0.10684777D+00 0.80357269D-01 0.32839921D+06 0.32839921D+06 0.32839921D+06 0.10816576D+01  1  2  1  1  6  1       -1 0.180629147813D-02 0.100000000000D+01
  </mgrwgt>
  </event>
  <event>
  7     66 0.16841828E-05 0.63921369E+02 0.75467711E-02 0.94455922E-01
       -1 -1    0    0    0  501 0.00000000E+00 0.00000000E+00 0.15104588E+04 0.15104589E+04 0.32000000E+00 0.0000E+00 0.9000E+01
        2 -1    0    0  503    0 0.00000000E+00 0.00000000E+00 -.18462382E+03 0.18462410E+03 0.32000000E+00 0.0000E+00 0.9000E+01
       24  2    1    2    0    0 -.43933630E+03 0.16025084E+03 0.52292937E+03 0.70620194E+03 0.81051485E+02 0.0000E+00 0.0000E+00
       25  1    1    2    0    0 0.46279953E+03 -.17780435E+03 0.81077610E+03 0.95853048E+03 0.12500000E+03 0.0000E+00 0.9000E+01
       -1  1    3    3    0  502 -.19780631E+03 0.11490705E+03 0.24442457E+03 0.33477520E+03 0.32000000E+00 0.0000E+00 0.9000E+01
        2  1    3    3  502    0 -.24152999E+03 0.45343797E+02 0.27850480E+03 0.37142674E+03 0.32000000E+00 0.0000E+00 0.9000E+01
       21  1    1    2  503  501 -.23463233E+02 0.17553510E+02 -.78704540E+01 0.30350545E+02 0.75000000E+00 0.0000E+00 0.9000E+01
#aMCatNLO 2  0  0  2  1 0.20501844D+02 0.00000000D+00  -5  6  0 0.00000000D+00 0.00000000D+00 0.00000000D+00 0.00000000D+00 0.00000000D+00
  <mgrwgt>
 0.1053660953D-02    1    2    0
 0.497921960407294D+03 0.000000000000000D+00 0.000000000000000D+00 0.497921960407294D+03
 0.497921960407294D+03 0.000000000000000D+00 0.000000000000000D+00 -.497921960407294D+03
 0.502468685367410D+03 0.450800641239001D+03 -.168827643656263D+03 0.715946113253833D+02
 0.238971896389564D+03 -.203354930097051D+03 0.119059723868181D+03 -.397381658066948D+02
 0.254403339057614D+03 -.247445711141950D+03 0.497679197880823D+02 -.318564455186884D+02
 0.000000000000000D+00 -.000000000000000D+00 0.000000000000000D+00 -.000000000000000D+00
 0.501869860661267D+03 0.000000000000000D+00 0.000000000000000D+00 0.501869860661267D+03
 0.555650841721649D+03 0.000000000000000D+00 0.000000000000000D+00 -.555650841721649D+03
 0.516283434382744D+03 0.462799532945516D+03 -.177804354706572D+03 0.715946113253833D+02
 0.232185413426811D+03 -.197805625778935D+03 0.114908131986831D+03 -.397381658066948D+02
 0.247806095990567D+03 -.241530674001599D+03 0.453427128140129D+02 -.318564455186884D+02
 0.612457585827940D+02 -.234632331649823D+02 0.175535099057278D+02 -.537809810603812D+02
0.450388504275D-03 0.000000000000D+00 0.000000000000D+00 0.194859223737D-03 0.144250502350D-05  6 -1 2 25 -1 2 21 2 0.23237725D+00 0.28403560D-01 0.25761078D+06 0.25761078D+06 0.25761078D+06 0.10894807D+01  1  2  1  2  6  2        2 0.105366095320D-02 0.100000000000D+01
  </mgrwgt>
  </event>
  <event>
  7     66 0.16841828E-05 0.93774149E+02 0.75467711E-02 0.92889107E-01
       -1 -1    0    0    0  503 0.00000000E+00 0.00000000E+00 0.95897553E+03 0.95897559E+03 0.32000000E+00 0.0000E+00 0.9000E+01
        2 -1    0    0  501    0 0.00000000E+00 0.00000000E+00 -.41181137E+03 0.41181150E+03 0.32000000E+00 0.0000E+00 0.9000E+01
       24  2    1    2    0    0 0.22106199E+03 0.39809866E+03 0.18302082E+03 0.49736273E+03 0.80759598E+02 0.0000E+00 0.0000E+00
       25  1    1    2    0    0 -.30745948E+03 -.48710665E+03 0.43315540E+03 0.73147305E+03 0.12500000E+03 0.0000E+00 0.9000E+01
       -1  1    3    3    0  502 0.15823098E+03 0.29072273E+03 0.17049812E+03 0.37232575E+03 0.32000000E+00 0.0000E+00 0.9000E+01
        2  1    3    3  502    0 0.62831005E+02 0.10737593E+03 0.12522702E+02 0.12503698E+03 0.32000000E+00 0.0000E+00 0.9000E+01
       21  1    1    2  501  503 0.86397492E+02 0.89007986E+02 -.69012059E+02 0.14195131E+03 0.75000000E+00 0.0000E+00 0.9000E+01
#aMCatNLO 2  0  0  1  2 0.73505572D+01 0.00000000D+00  -5  6  0 0.00000000D+00 0.00000000D+00 0.00000000D+00 0.00000000D+00 0.00000000D+00
  <mgrwgt>
 0.8767362087D-05    1    2    0
 0.527962421556655D+03 0.000000000000000D+00 0.000000000000000D+00 0.527962421556655D+03
 0.527962421556655D+03 0.000000000000000D+00 0.000000000000000D+00 -.527962421556655D+03
 0.532272807557651D+03 -.261524215852450D+03 -.439783455606814D+03 0.767133519186503D+02
 0.371258755921262D+03 0.186885453150437D+03 0.320244331929085D+03 -.187205533105357D+02
 0.152393279634399D+03 0.746387627020129D+02 0.119539123677729D+03 -.579927986081146D+02
 0.000000000000000D+00 0.000000000000000D+00 0.000000000000000D+00 -.000000000000000D+00
 0.552607849818892D+03 0.000000000000000D+00 0.000000000000000D+00 0.552607849818892D+03
 0.714640947016111D+03 0.000000000000000D+00 0.000000000000000D+00 -.714640947016111D+03
 0.594402352528810D+03 -.307459478601028D+03 -.487106648843530D+03 0.767133519186503D+02
 0.331525802544221D+03 0.158232479789173D+03 0.290725611145812D+03 -.187205533105357D+02
 0.137257728206665D+03 0.628295069183417D+02 0.107373052124132D+03 -.579927986081146D+02
 0.204062913555307D+03 0.863974918935132D+02 0.890079855735858D+02 -.162033097197219D+03
0.192918477188D-05 0.000000000000D+00 0.000000000000D+00 0.280484540190D-03 0.116249019163D-06  6 -1 2 25 -1 2 21 2 0.14753453D+00 0.63355533D-01 0.34156830D+06 0.34156830D+06 0.34156830D+06 0.10804068D+01  1  2  1  1  6  1       -1 0.876736208678D-05 0.100000000000D+01
  </mgrwgt>
  </event>
  <event>
  7     66 0.16841828E-05 0.65653382E+02 0.75467711E-02 0.95054086E-01
       -1 -1    0    0    0  501 0.00000000E+00 0.00000000E+00 0.18042289E+03 0.18042317E+03 0.32000000E+00 0.0000E+00 0.9000E+01
        2 -1    0    0  503    0 0.00000000E+00 0.00000000E+00 -.13989144E+04 0.13989145E+04 0.32000000E+00 0.0000E+00 0.9000E+01
       24  2    1    2    0    0 0.42722941E+03 0.18976260E+03 -.39201645E+03 0.61509410E+03 0.78288217E+02 0.0000E+00 0.0000E+00
       25  1    1    2    0    0 -.41606471E+03 -.19603353E+03 -.76409482E+03 0.90055810E+03 0.12500000E+03 0.0000E+00 0.9000E+01
       -1  1    3    3    0  502 0.21724008E+03 0.13809786E+03 -.22421812E+03 0.34137683E+03 0.32000000E+00 0.0000E+00 0.9000E+01
        2  1    3    3  502    0 0.20998933E+03 0.51664738E+02 -.16779832E+03 0.27371727E+03 0.32000000E+00 0.0000E+00 0.9000E+01
       21  1    1    2  503  501 -.11164693E+02 0.62709285E+01 -.62380274E+02 0.63685446E+02 0.75000000E+00 0.0000E+00 0.9000E+01
#aMCatNLO 2  0  0  2  1 0.20501844D+02 0.00000000D+00  -5  6  0 0.00000000D+00 0.00000000D+00 0.00000000D+00 0.00000000D+00 0.00000000D+00
  <mgrwgt>
 0.1252237855D-01    1    2    0
 0.490011311995731D+03 0.000000000000000D+00 0.000000000000000D+00 0.490011311995731D+03
 0.490011311995731D+03 0.000000000000000D+00 0.000000000000000D+00 -.490011311995731D+03
 0.494856075241342D+03 -.421681921032312D+03 -.192878485169802D+03 -.119330560362241D+03
 0.261859936654345D+03 0.214248212709901D+03 0.139779832419606D+03 0.559457614478287D+02
 0.223306612095776D+03 0.207433708322411D+03 0.530986527501966D+02 0.633847989144123D+02
 0.000000000000000D+00 -.000000000000000D+00 0.000000000000000D+00 -.000000000000000D+00
 0.491826453399266D+03 0.000000000000000D+00 0.000000000000000D+00 0.491826453399266D+03
 0.513170157462396D+03 0.000000000000000D+00 0.000000000000000D+00 -.513170157462396D+03
 0.491328580512026D+03 -.416064714588564D+03 -.196033529443134D+03 -.119330560362241D+03
 0.263428647454012D+03 0.217240202498290D+03 0.138099306638284D+03 0.559457614478287D+02
 0.225349051191642D+03 0.209989204869775D+03 0.516632942979081D+02 0.633847989144123D+02
 0.248903317039825D+02 -.111646927795014D+02 0.627092850694213D+01 -.213437040631294D+02
0.457514441262D-03 0.000000000000D+00 0.000000000000D+00 0.477109734667D-04 0.185467955235D-05  6 -1 2 25 -1 2 21 2 0.27757075D-01 0.21521517D+00 0.23188704D+06 0.23188704D+06 0.23188704D+06 0.10929249D+01  1  2  1  2  6  2        2 0.125223785453D-01 0.100000000000D+01
  </mgrwgt>
  </event>
  <event>
  7     66 0.16841828E-05 0.49440206E+02 0.75467711E-02 0.95389482E-01
       -1 -1    0    0    0  503 0.00000000E+00 0.00000000E+00 0.43720074E+03 0.43720086E+03 0.32000000E+00 0.0000E+00 0.9000E+01
        2 -1    0    0  501    0 0.00000000E+00 0.00000000E+00 -.68120719E+03 0.68120727E+03 0.32000000E+00 0.0000E+00 0.9000E+01
       24  2    1    2    0    0 -.44898593E+03 0.27098329E+02 0.11555384E+02 0.45724658E+03 0.81352467E+02 0.0000E+00 0.0000E+00
       25  1    1    2    0    0 0.45819981E+03 -.23035231E+02 -.33463305E+03 0.58144816E+03 0.12500000E+03 0.0000E+00 0.9000E+01
       -1  1    3    3    0  502 -.14024336E+03 0.77679016E+01 0.41479276E+02 0.14645536E+03 0.32000000E+00 0.0000E+00 0.9000E+01
        2  1    3    3  502    0 -.30874257E+03 0.19330427E+02 -.29923892E+02 0.31079122E+03 0.32000000E+00 0.0000E+00 0.9000E+01
       21  1    1    2  501  503 -.92138880E+01 -.40630984E+01 0.79071214E+02 0.79713386E+02 0.75000000E+00 0.0000E+00 0.9000E+01
#aMCatNLO 2  0  0  1  2 0.11145104D+01 0.00000000D+00  -5  6  0 0.00000000D+00 0.00000000D+00 0.00000000D+00 0.00000000D+00 0.00000000D+00
  <mgrwgt>
 0.3582955735D-02    1    2    0
 0.493560074014837D+03 0.000000000000000D+00 0.000000000000000D+00 0.493560074014837D+03
 0.493560074014837D+03 0.000000000000000D+00 0.000000000000000D+00 -.493560074014837D+03
 0.498122221902052D+03 0.453531012782876D+03 -.250940577748812D+02 -.161804377756497D+03
 0.168957911703191D+03 -.141811782593835D+03 0.707493704408972D+01 0.915758675115023D+02
 0.320040014424431D+03 -.311719230189040D+03 0.180191207307915D+02 0.702285102449950D+02
 0.000000000000000D+00 -.000000000000000D+00 -.000000000000000D+00 0.000000000000000D+00
 0.603103400521819D+03 0.000000000000000D+00 0.000000000000000D+00 0.603103400521819D+03
 0.493817235072620D+03 0.000000000000000D+00 0.000000000000000D+00 -.493817235072620D+03
 0.502278158852380D+03 0.458199814870841D+03 -.230352306542811D+02 -.161804377756497D+03
 0.167672137508051D+03 -.140240752527409D+03 0.776772274095482D+01 0.915758675115023D+02
 0.317221214141247D+03 -.308745174389239D+03 0.193306063374729D+02 0.702285102449950D+02
 0.109749125092761D+03 -.921388795419305D+01 -.406309842414665D+01 0.109286165449199D+03
0.224222466439D-03 0.000000000000D+00 0.000000000000D+00 0.170100066376D-03 0.109249696606D-04  6 -1 2 25 -1 2 21 2 0.67261493D-01 0.10480085D+00 0.21873299D+06 0.21873299D+06 0.21873299D+06 0.10948514D+01  1  2  1  1  6  1       -1 0.358295573467D-02 0.100000000000D+01
  </mgrwgt>
  </event>
  <event>
  7     66 0.16841828E-05 0.58504777E+02 0.75467711E-02 0.92455558E-01
       -1 -1    0    0    0  501 0.00000000E+00 0.00000000E+00 0.24996407E+03 0.24996427E+03 0.32000000E+00 0.0000E+00 0.9000E+01
        2 -1    0    0  503    0 0.00000000E+00 0.00000000E+00 -.19057528E+04 0.19057528E+04 0.32000000E+00 0.0000E+00 0.9000E+01
       24  2    1    2    0    0 0.38303388E+03 0.43561104E+03 -.67978484E+03 0.89588732E+03 0.63519536E+02 0.0000E+00 0.0000E+00
       25  1    1    2    0    0 -.30859379E+03 -.44754799E+03 -.41875276E+03 0.69750140E+03 0.12500000E+03 0.0000E+00 0.9000E+01
       -1  1    3    3    0  502 0.10178098E+03 0.77725239E+02 -.13779980E+03 0.18812088E+03 0.32000000E+00 0.0000E+00 0.9000E+01
        2  1    3    3  502    0 0.28125291E+03 0.35788580E+03 -.54198504E+03 0.70776644E+03 0.32000000E+00 0.0000E+00 0.9000E+01
       21  1    1    2  503  501 -.74440097E+02 0.11936948E+02 -.55725114E+03 0.56232839E+03 0.75000000E+00 0.0000E+00 0.9000E+01
#aMCatNLO 2  0  0  2  2 0.92092218D+02 0.00000000D+00  -5  6  0 0.00000000D+00 0.00000000D+00 0.00000000D+00 0.00000000D+00 0.00000000D+00
  <mgrwgt>
 0.2371873607D-02    1    2    0
 0.575851313314417D+03 0.000000000000000D+00 0.000000000000000D+00 0.575851313314417D+03
 0.575851313314417D+03 0.000000000000000D+00 0.000000000000000D+00 -.575851313314417D+03
 0.580883110734437D+03 -.345565772766935D+03 -.441619293248761D+03 0.857722849116914D+02
 0.123046657701673D+03 0.936543433649322D+02 0.790205556801368D+02 -.111846198164464D+02
 0.447772858192723D+03 0.251911429402003D+03 0.362598737568624D+03 -.745876650952450D+02
 0.000000000000000D+00 -.000000000000000D+00 0.000000000000000D+00 -.000000000000000D+00
 0.583004180044588D+03 0.000000000000000D+00 0.000000000000000D+00 0.583004180044588D+03
 0.817093712463127D+03 0.000000000000000D+00 0.000000000000000D+00 -.817093712463127D+03
 0.564367975774827D+03 -.308593786095278D+03 -.447547988940388D+03 0.857722849116914D+02
 0.128544323440109D+03 0.101776421144256D+03 0.777181283054605D+02 -.111846198164464D+02
 0.461255261816001D+03 0.281257461842421D+03 0.357892912652020D+03 -.745876650952450D+02
 0.245930331476778D+03 -.744400968913989D+02 0.119369479829071D+02 -.234089532418540D+03
0.299574693787D-03 0.000000000000D+00 0.000000000000D+00 0.954601266603D-06 0.110915651545D-08  6 -1 2 25 -1 2 21 2 0.38455991D-01 0.29319247D+00 0.36993442D+06 0.36993442D+06 0.36993442D+06 0.10778826D+01  1  2  1  2  6  2        2 0.237187360664D-02 0.100000000000D+01
  </mgrwgt>
  </event>
  <event>
  7     66 0.16841828E-05 0.62830582E+02 0.75467711E-02 0.93739173E-01
       -1 -1    0    0    0  503 0.00000000E+00 0.00000000E+00 0.85394291E+02 0.85394891E+02 0.32000000E+00 0.0000E+00 0.9000E+01
        2 -1    0    0  501    0 0.00000000E+00 0.00000000E+00 -.36954331E+04 0.36954331E+04 0.32000000E+00 0.0000E+00 0.9000E+01
       24  2    1    2    0    0 0.30677032E+03 -.42831513E+03 -.22748251E+04 0.23363947E+04 0.79682879E+02 0.0000E+00 0.0000E+00
       25  1    1    2    0    0 -.29688129E+03 0.43209323E+03 -.13208534E+04 0.14265769E+04 0.12500000E+03 0.0000E+00 0.9000E+01
       -1  1    3    3    0  502 0.20958416E+03 -.22652177E+03 -.13532969E+04 0.13880383E+04 0.32000000E+00 0.0000E+00 0.9000E+01
        2  1    3    3  502    0 0.97186157E+02 -.20179336E+03 -.92152811E+03 0.94835640E+03 0.32000000E+00 0.0000E+00 0.9000E+01
       21  1    1    2  501  503 -.98890284E+01 -.37780995E+01 -.14360347E+02 0.17856343E+02 0.75000000E+00 0.0000E+00 0.9000E+01
#aMCatNLO 2  0  0  1  2 0.11145104D+01 0.00000000D+00  -5  6  0 0.00000000D+00 0.00000000D+00 0.00000000D+00 0.00000000D+00 0.00000000D+00
  <mgrwgt>
 0.2262208427D-02    1    2    0
 0.554738689072834D+03 0.000000000000000D+00 0.000000000000000D+00 0.554738689072834D+03
 0.554738689072834D+03 0.000000000000000D+00 0.000000000000000D+00 -.554738689072834D+03
 0.558918872926643D+03 -.301857599871480D+03 0.430192028135666D+03 0.143464681514094D+03
 0.320793401997358D+03 0.206721909432018D+03 -.227616381977988D+03 -.914616946107487D+02
 0.229765103221667D+03 0.951356904394623D+02 -.202575646157678D+03 -.520029869033451D+02
 0.000000000000000D+00 -.000000000000000D+00 -.000000000000000D+00 0.000000000000000D+00
 0.566346902094543D+03 0.000000000000000D+00 0.000000000000000D+00 0.566346902094543D+03
 0.557182728798892D+03 0.000000000000000D+00 0.000000000000000D+00 -.557182728798892D+03
 0.557718719676917D+03 -.296881288629960D+03 0.432093225933402D+03 0.143464681514094D+03
 0.321875463347568D+03 0.209585972329752D+03 -.226522167848390D+03 -.914616946107487D+02
 0.229933698344228D+03 0.971843446573559D+02 -.201792958600902D+03 -.520029869033451D+02
 0.140017495247209D+02 -.988902835714837D+01 -.377809948410910D+01 0.916417329565040D+01
0.614488910841D-03 0.000000000000D+00 0.000000000000D+00 0.162609108970D-03 0.911689584473D-05  6 -1 2 25 -1 2 21 2 0.13137395D-01 0.56851800D+00 0.29274614D+06 0.29274614D+06 0.29274614D+06 0.10853392D+01  1  2  1  1  6  1       -1 0.226220842672D-02 0.100000000000D+01
  </mgrwgt>
  </event>
  <event>
  6     66 0.16841828E-05 0.20087770E+03 0.75467711E-02 0.91970943E-01
       21 -1    0    0  503  501 0.00000000E+00 0.00000000E+00 0.68836788E+03 0.68836829E+03 0.75000000E+00 0.0000E+00 0.9000E+01
        2 -1    0    0  501    0 0.00000000E+00 0.00000000E+00 -.65544796E+03 0.65544804E+03 0.32000000E+00 0.0000E+00 0.9000E+01
       25  1    1    2    0    0 0.25864014E+03 0.52693239E+03 -.11282662E+03 0.61066137E+03 0.12500000E+03 0.0000E+00 0.9000E+01
       -1  1    1    2    0  502 -.24190810E+02 -.14377193E+03 0.10716235E+03 0.18094041E+03 0.32000000E+00 0.0000E+00 0.9000E+01
        2  1    1    2  502    0 -.29604154E+03 -.28681351E+03 -.38990479E+02 0.41403254E+03 0.32000000E+00 0.0000E+00 0.9000E+01
        1  1    1    2  503    0 0.61592212E+02 -.96346953E+02 0.77574677E+02 0.13818201E+03 0.32000000E+00 0.0000E+00 0.9000E+01
#aMCatNLO 2  0  0  1  2 0.11435181D+03 0.00000000D+00  -5  6  0 0.00000000D+00 0.00000000D+00 0.00000000D+00 0.00000000D+00 0.00000000D+00
  <mgrwgt>
 0.1316140807D-01    2    2    0
 0.599684027030342D+03 0.000000000000000D+00 0.000000000000000D+00 0.599684027030342D+03
 0.599684027030342D+03 0.000000000000000D+00 0.000000000000000D+00 -.599684027030342D+03
 0.580605359047044D+03 0.289063289142510D+03 0.479344520755630D+03 -.902708604468559D+02
 0.196181430506556D+03 -.144261703757734D+02 -.159049138603984D+03 0.113940382627138D+03
 0.422581264507084D+03 -.274637118766737D+03 -.320295382151646D+03 -.236695221802818D+02
 0.000000000000000D+00 0.000000000000000D+00 -.000000000000000D+00 0.000000000000000D+00
 0.714354134387191D+03 0.000000000000000D+00 0.000000000000000D+00 0.714354134387191D+03
 0.631604662055189D+03 0.000000000000000D+00 0.000000000000000D+00 -.631604662055189D+03
 0.606900253137592D+03 0.258640755956718D+03 0.526933628050815D+03 -.902708604468559D+02
 0.185035288093607D+03 -.241925059228169D+02 -.143771936426550D+03 0.113940382627138D+03
 0.412871524268577D+03 -.296040461985412D+03 -.286814738357497D+03 -.236695221802818D+02
 0.141151730942605D+03 0.615922119515111D+02 -.963469532667681D+02 0.827494723320026D+02
-.359796552468D-06 0.000000000000D+00 0.000000000000D+00 0.451129273798D-08 0.000000000000D+00  6 21 2 25 -1 2 1 2 0.10794294D+00 0.95741903D-01 0.40480559D+06 0.40480559D+06 0.40480559D+06 0.10750539D+01  1  2 13  5  6  1       -1 -.149904991801D-04 0.100000000000D+01
0.319891210646D-03 0.000000000000D+00 0.000000000000D+00 0.451129273798D-08 0.499782002774D-10  6 21 2 25 -1 2 1 2 0.10590276D+00 0.10083816D+00 0.40480559D+06 0.40480559D+06 0.40480559D+06 0.10750539D+01  1  2  1  5  6  1       -1 0.131763985727D-01 0.100000000000D+01
  </mgrwgt>
  </event>
  <event>
  7     66 0.16841828E-05 0.84743806E+02 0.75467711E-02 0.89607767E-01
       -1 -1    0    0    0  501 0.00000000E+00 0.00000000E+00 0.64934151E+03 0.64934159E+03 0.32000000E+00 0.0000E+00 0.9000E+01
        2 -1    0    0  503    0 0.00000000E+00 0.00000000E+00 -.15219368E+04 0.15219369E+04 0.32000000E+00 0.0000E+00 0.9000E+01
       24  2    1    2    0    0 0.94254107E+02 0.73868909E+03 -.71820222E+02 0.75252515E+03 0.81182228E+02 0.0000E+00 0.0000E+00
       25  1    1    2    0    0 -.19482105E+03 -.70776900E+03 -.15011258E+03 0.75963872E+03 0.12500000E+03 0.0000E+00 0.9000E+01
       -1  1    3    3    0  502 0.39585705E+02 0.14621887E+03 -.40062503E+02 0.15669107E+03 0.32000000E+00 0.0000E+00 0.9000E+01
        2  1    3    3  502    0 0.54668401E+02 0.59247022E+03 -.31757718E+02 0.59583408E+03 0.32000000E+00 0.0000E+00 0.9000E+01
       21  1    1    2  503  501 0.10056695E+03 -.30920090E+02 -.65066253E+03 0.65911459E+03 0.75000000E+00 0.0000E+00 0.9000E+01
#aMCatNLO 2  0  0  2  2 0.36085668D+02 0.00000000D+00  -5  6  0 0.00000000D+00 0.00000000D+00 0.00000000D+00 0.00000000D+00 0.00000000D+00
  <mgrwgt>
 0.5932077391D-03    1    2    0
 0.746042164776006D+03 0.000000000000000D+00 0.000000000000000D+00 0.746042164776006D+03
 0.746042164776006D+03 0.000000000000000D+00 0.000000000000000D+00 -.746042164776006D+03
 0.749069622974117D+03 -.144510149216967D+03 -.723237477809021D+03 -.390469912838620D+02
 0.152472049609578D+03 0.498488291463951D+02 0.143056388041209D+03 -.172536948356605D+02
 0.590542656968316D+03 0.946613200705721D+02 0.580181089767812D+03 0.563006861195226D+02
 0.000000000000000D+00 0.000000000000000D+00 -.000000000000000D+00 -.000000000000000D+00
 0.752793688902957D+03 0.000000000000000D+00 0.000000000000000D+00 0.752793688902957D+03
 0.131278498299371D+04 0.000000000000000D+00 0.000000000000000D+00 -.131278498299371D+04
 0.745682148605145D+03 -.194821054401155D+03 -.707768999025872D+03 -.390469912838620D+02
 0.152455338046870D+03 0.395854709218806D+02 0.146211937287611D+03 -.172536948356605D+02
 0.597651739608153D+03 0.546686358248242D+02 0.592477151336805D+03 0.563006861195226D+02
 0.569789445636497D+03 0.100566947654450D+03 -.309200895985433D+02 -.559991294090749D+03
0.312952814138D-03 0.000000000000D+00 0.000000000000D+00 0.968292364712D-04 0.607889378393D-07  6 -1 2 25 -1 2 21 2 0.99898671D-01 0.23414406D+00 0.63707687D+06 0.63707687D+06 0.63707687D+06 0.10611524D+01  1  2  1  2  6  2        2 0.593207739133D-03 0.100000000000D+01
  </mgrwgt>
  </event>
  <event>
  7     66 0.16841828E-05 0.25648832E+02 0.75467711E-02 0.95477922E-01
       -1 -1    0    0    0  501 0.00000000E+00 0.00000000E+00 0.28601744E+03 0.28601762E+03 0.32000000E+00 0.0000E+00 0.9000E+01
        2 -1    0    0  503    0 0.00000000E+00 0.00000000E+00 -.78672056E+03 0.78672063E+03 0.32000000E+00 0.0000E+00 0.9000E+01
       24  2    1    2    0    0 0.27716969E+03 -.34279128E+03 -.17036839E+03 0.47811025E+03 0.72354163E+02 0.0000E+00 0.0000E+00
       25  1    1    2    0    0 -.29325827E+03 0.34266582E+03 -.28849487E+03 0.54979502E+03 0.12500000E+03 0.0000E+00 0.9000E+01
       -1  1    3    3    0  502 0.63960218E+02 -.46424447E+02 -.11167948E+02 0.79818320E+02 0.32000000E+00 0.0000E+00 0.9000E+01
        2  1    3    3  502    0 0.21320947E+03 -.29636684E+03 -.15920044E+03 0.39829193E+03 0.32000000E+00 0.0000E+00 0.9000E+01
       21  1    1    2  503  501 0.16088587E+02 0.12546284E+00 -.41839867E+02 0.44832972E+02 0.75000000E+00 0.0000E+00 0.9000E+01
#aMCatNLO 2  0  0  2  5 0.15902772D+03 0.00000000D+00  -5  6  0 0.00000000D+00 0.00000000D+00 0.00000000D+00 0.00000000D+00 0.00000000D+00
  <mgrwgt>
 0.1619186491D-02    1    2    0
 0.459830105126095D+03 0.000000000000000D+00 0.000000000000000D+00 0.459830105126095D+03
 0.459830105126095D+03 0.000000000000000D+00 0.000000000000000D+00 -.459830105126095D+03
 0.465478862747092D+03 -.285071950062587D+03 0.342729658412351D+03 -.481241747606406D+02
 0.847478166594255D+02 0.654299254212201D+02 -.464080740217772D+02 0.273387628378173D+02
 0.369433530845673D+03 0.219642024641367D+03 -.296321584390574D+03 0.207854119228233D+02
 0.000000000000000D+00 0.000000000000000D+00 0.000000000000000D+00 -.000000000000000D+00
 0.462314707712831D+03 0.000000000000000D+00 0.000000000000000D+00 0.462314707712831D+03
 0.486705837560544D+03 0.000000000000000D+00 0.000000000000000D+00 -.486705837560544D+03
 0.470490398185346D+03 -.293258273191572D+03 0.342665819411434D+03 -.481241747606406D+02
 0.836224809851463D+02 0.639572983602964D+02 -.464195579369381D+02 0.273387628378173D+02
 0.365688056200158D+03 0.213212387363906D+03 -.296371724314638D+03 0.207854119228233D+02
 0.292196099027252D+02 0.160885874673701D+02 0.125462840142721D+00 -.243911298477123D+02
0.552037908127D-04 0.000000000000D+00 0.000000000000D+00 0.387475211667D-05 0.959732554466D-07  6 -1 2 25 -1 2 21 2 0.44002245D-01 0.12103270D+00 0.21540550D+06 0.21540550D+06 0.21540550D+06 0.10953588D+01  1  2  1  2  6  2        2 0.161918649147D-02 0.100000000000D+01
  </mgrwgt>
  </event>
  <event>
  7     66 0.16841828E-05 0.34616629E+02 0.75467711E-02 0.91667780E-01
       21 -1    0    0  503  501 0.00000000E+00 0.00000000E+00 0.36115546E+03 0.36115624E+03 0.75000000E+00 0.0000E+00 0.9000E+01
        2 -1    0    0  501    0 0.00000000E+00 0.00000000E+00 -.14806785E+04 0.14806786E+04 0.32000000E+00 0.0000E+00 0.9000E+01
       24  2    1    2    0    0 -.59297520E+03 -.89244814E+02 -.62398795E+03 0.86839992E+03 0.71925212E+02 0.0000E+00 0.0000E+00
       25  1    1    2    0    0 0.64088810E+03 0.79662586E+02 -.57925697E+03 0.87649719E+03 0.12500000E+03 0.0000E+00 0.9000E+01
       -1  1    3    3    0  502 -.81097586E+02 0.79326764E+01 -.64885938E+02 0.10416349E+03 0.32000000E+00 0.0000E+00 0.9000E+01
        2  1    3    3  502    0 -.51187762E+03 -.97177490E+02 -.55910201E+03 0.76423643E+03 0.32000000E+00 0.0000E+00 0.9000E+01
        1  1    1    2  503    0 -.47912901E+02 0.95822275E+01 0.83721845E+02 0.96937686E+02 0.32000000E+00 0.0000E+00 0.9000E+01
#aMCatNLO 2  0  0  1  2 0.75146188D+02 0.00000000D+00  -5  6  0 0.00000000D+00 0.00000000D+00 0.00000000D+00 0.00000000D+00 0.00000000D+00
  <mgrwgt>
 0.1154396056D-03    1    2    0
 0.631363630907569D+03 0.000000000000000D+00 0.000000000000000D+00 0.631363630907569D+03
 0.631363630907569D+03 0.000000000000000D+00 0.000000000000000D+00 -.631363630907569D+03
 0.635502198369732D+03 0.616343267994740D+03 0.845713729918168D+02 0.347376309008636D+02
 0.852370273949303D+02 -.842614222937164D+02 0.856920649378596D+01 0.958813079963719D+01
 0.541988036050476D+03 -.532081845701024D+03 -.931405794856028D+02 -.443257617005007D+02
 0.000000000000000D+00 -.000000000000000D+00 0.000000000000000D+00 0.000000000000000D+00
 0.842574934556643D+03 0.000000000000000D+00 0.000000000000000D+00 0.842574934556643D+03
 0.634668390738127D+03 0.000000000000000D+00 0.000000000000000D+00 -.634668390738127D+03
 0.658722546123030D+03 0.640888104184893D+03 0.796625864788283D+02 0.347376309008636D+02
 0.820385760398687D+02 -.810890580637888D+02 0.793475700610090D+01 0.958813079963719D+01
 0.522911146639385D+03 -.511886144676629D+03 -.971795709883725D+02 -.443257617005007D+02
 0.213571056492486D+03 -.479129014444754D+02 0.958222750344331D+01 0.207906543818517D+03
0.195972119931D-05 0.000000000000D+00 0.000000000000D+00 0.262266028160D-05 0.264251665624D-09  6 21 2 25 -1 2 1 2 0.55562430D-01 0.22779672D+00 0.42848354D+06 0.42848354D+06 0.42848354D+06 0.10732806D+01  1  2  1  5  6  1       -1 0.115439605588D-03 0.100000000000D+01
  </mgrwgt>
  </event>
  <event>
  7     66 0.16841828E-05 0.55165504E+02 0.75467711E-02 0.86275733E-01
       -1 -1    0    0    0  503 0.00000000E+00 0.00000000E+00 0.37537600E+03 0.37537613E+03 0.32000000E+00 0.0000E+00 0.9000E+01
        2 -1    0    0  501    0 0.00000000E+00 0.00000000E+00 -.34385040E+04 0.34385041E+04 0.32000000E+00 0.0000E+00 0.9000E+01
       24  2    1    2    0    0 0.87404839E+02 0.11092879E+04 -.12860103E+04 0.17025450E+04 0.81716794E+02 0.0000E+00 0.0000E+00
       25  1    1    2    0    0 -.73963262E+02 -.11096380E+04 -.17740340E+04 0.20975196E+04 0.12500000E+03 0.0000E+00 0.9000E+01
       -1  1    3    3    0  502 0.46543224E+02 0.70524205E+03 -.75739574E+03 0.10359445E+04 0.32000000E+00 0.0000E+00 0.9000E+01
        2  1    3    3  502    0 0.40861615E+02 0.40404587E+03 -.52861453E+03 0.66660045E+03 0.32000000E+00 0.0000E+00 0.9000E+01
       21  1    1    2  501  503 -.13441577E+02 0.35004349E+00 -.30837782E+01 0.13815597E+02 0.75000000E+00 0.0000E+00 0.9000E+01
#aMCatNLO 2  0  0  1  2 0.75146188D+02 0.00000000D+00  -5  6  0 0.00000000D+00 0.00000000D+00 0.00000000D+00 0.00000000D+00 0.00000000D+00
  <mgrwgt>
 0.7303945159D-02    1    2    0
 0.112654773353008D+04 0.000000000000000D+00 0.000000000000000D+00 0.112654773353008D+04
 0.112654773353008D+04 0.000000000000000D+00 0.000000000000000D+00 -.112654773353008D+04
 0.112853330530028D+04 -.806949743884644D+02 -.110946265722263D+04 -.143329531182279D+03
 0.718399914542200D+03 0.422570364750392D+02 0.705358286626584D+03 0.129547163495759D+03
 0.406162247217669D+03 0.384379379134253D+02 0.404104370596043D+03 0.137823676865198D+02
 0.000000000000000D+00 -.000000000000000D+00 0.000000000000000D+00 0.000000000000000D+00
 0.114289791115255D+04 0.000000000000000D+00 0.000000000000000D+00 0.114289791115255D+04
 0.112933566388623D+04 0.000000000000000D+00 0.000000000000000D+00 -.112933566388623D+04
 0.112824435676285D+04 -.739632621774664D+02 -.110963796343959D+04 -.143329531182279D+03
 0.718555220300170D+03 0.465433109231084D+02 0.705246664124789D+03 0.129547163495759D+03
 0.406336011890425D+03 0.408615282139657D+02 0.404041255829140D+03 0.137823676865198D+02
 0.190979860853333D+02 -.134415769596077D+02 0.350043485661365D+00 0.135622472663152D+02
0.194105259128D-01 0.000000000000D+00 0.000000000000D+00 0.115591774191D-03 0.369730060236D-05  6 -1 2 25 -1 2 21 2 0.57749789D-01 0.52899719D+00 0.12604916D+07 0.12604916D+07 0.12604916D+07 0.10412362D+01  1  2  1  1  6  1       -1 0.730394515922D-02 0.100000000000D+01
  </mgrwgt>
  </event>
  <event>
  7     66 0.16841828E-05 0.22685472E+02 0.75467711E-02 0.92544879E-01
       -1 -1    0    0    0  503 0.00000000E+00 0.00000000E+00 0.77235519E+03 0.77235526E+03 0.32000000E+00 0.0000E+00 0.9000E+01
        2 -1    0    0  501    0 0.00000000E+00 0.00000000E+00 -.49109113E+03 0.49109123E+03 0.32000000E+00 0.0000E+00 0.9000E+01
       24  2    1    2    0    0 -.34038328E+03 -.48559557E+03 0.71188227E+02 0.60280846E+03 0.81525702E+02 0.0000E+00 0.0000E+00
       25  1    1    2    0    0 0.31028378E+03 0.47588136E+03 0.16331818E+03 0.60418285E+03 0.12500000E+03 0.0000E+00 0.9000E+01
       -1  1    3    3    0  502 -.66313681E+02 -.86559399E+02 0.45143730E+02 0.11801734E+03 0.32000000E+00 0.0000E+00 0.9000E+01
        2  1    3    3  502    0 -.27406960E+03 -.39903617E+03 0.26044497E+02 0.48479112E+03 0.32000000E+00 0.0000E+00 0.9000E+01
       21  1    1    2  501  503 0.30099501E+02 0.97142162E+01 0.46757659E+02 0.56455178E+02 0.75000000E+00 0.0000E+00 0.9000E+01
#aMCatNLO 2  0  0  1  2 0.75146188D+02 0.00000000D+00  -5  6  0 0.00000000D+00 0.00000000D+00 0.00000000D+00 0.00000000D+00 0.00000000D+00
  <mgrwgt>
 0.4743889852D-03    1    2    0
 0.591784257928462D+03 0.000000000000000D+00 0.000000000000000D+00 0.591784257928462D+03
 0.591784257928462D+03 0.000000000000000D+00 0.000000000000000D+00 -.591784257928462D+03
 0.595577261781988D+03 0.325274665898445D+03 0.480719466142725D+03 0.468237263344052D+02
 0.109005770980712D+03 -.635088683231809D+02 -.856504009506571D+02 0.226470874153819D+02
 0.478985483094223D+03 -.261765797575264D+03 -.395069065192068D+03 -.694708137497871D+02
 0.000000000000000D+00 0.000000000000000D+00 0.000000000000000D+00 0.000000000000000D+00
 0.634379988642702D+03 0.000000000000000D+00 0.000000000000000D+00 0.634379988642702D+03
 0.597895946253485D+03 0.000000000000000D+00 0.000000000000000D+00 -.597895946253485D+03
 0.583572233612250D+03 0.310283781748411D+03 0.475881356305598D+03 0.468237263344052D+02
 0.111362769357874D+03 -.663104802234798D+02 -.865545841835465D+02 0.226470874153819D+02
 0.489056034860539D+03 -.274072802161846D+03 -.399040988352836D+03 -.694708137497871D+02
 0.482848970655240D+02 0.300995006369156D+02 0.971421623078453D+01 0.364840423892163D+02
0.723638077161D-04 0.000000000000D+00 0.000000000000D+00 0.110161790871D-03 0.684791241128D-06  6 -1 2 25 -1 2 21 2 0.11882331D+00 0.75552129D-01 0.36388120D+06 0.36388120D+06 0.36388120D+06 0.10784031D+01  1  2  1  1  6  1       -1 0.474388985241D-03 0.100000000000D+01
  </mgrwgt>
  </event>
  <event>
  6     66 0.16841828E-05 0.69606179E+02 0.75467711E-02 0.90775028E-01
       -1 -1    0    0    0  501 0.00000000E+00 0.00000000E+00 0.43000448E+03 0.43000460E+03 0.32000000E+00 0.0000E+00 0.9000E+01
        2 -1    0    0  501    0 -.00000000E+00 -.00000000E+00 -.13746875E+04 0.13746875E+04 0.32000000E+00 0.0000E+00 0.9000E+01
       25  1    1    2    0    0 0.62759799E+03 0.31910021E+03 -.20926562E+03 0.74506462E+03 0.12500000E+03 0.0000E+00 0.9000E+01
       -1  1    1    2    0  503 -.92609338E+02 -.12864558E+02 -.10569554E+03 0.14111569E+03 0.32000000E+00 0.0000E+00 0.9000E+01
        2  1    1    2  502    0 -.45808096E+03 -.26513054E+03 -.64022529E+03 0.83067496E+03 0.32000000E+00 0.0000E+00 0.9000E+01
       21  1    1    2  503  502 -.76907695E+02 -.41105110E+02 0.10503468E+02 0.87836831E+02 0.75000000E+00 0.0000E+00 0.9000E+01
#aMCatNLO 2  0  0  4  5 0.10800321D+02 0.00000000D+00  -5  6  0 0.00000000D+00 0.00000000D+00 0.00000000D+00 0.00000000D+00 0.00000000D+00
  <mgrwgt>
 0.1983946972D+00    1    2    0
 0.768844526523012D+03 0.000000000000000D+00 0.000000000000000D+00 0.768844526523012D+03
 0.768844526523012D+03 -.000000000000000D+00 -.000000000000000D+00 -.768844526523012D+03
 0.758854785278088D+03 0.641532468993989D+03 0.323536656961353D+03 0.209751538655147D+03
 0.206405136846496D+03 -.194126418410642D+03 -.618022476905862D+02 0.331435721078521D+02
 0.572429130921440D+03 -.447406050583347D+03 -.261734409270767D+03 -.242895110762999D+03
 0.000000000000000D+00 0.000000000000000D+00 0.000000000000000D+00 0.000000000000000D+00
 0.768844526523012D+03 0.000000000000000D+00 0.000000000000000D+00 0.768844526523012D+03
 0.768844526523012D+03 -.000000000000000D+00 -.000000000000000D+00 -.768844526523012D+03
 0.745882698907378D+03 0.627606840263720D+03 0.319103282240481D+03 0.212129087696372D+03
 0.100188990513059D+03 -.920698561756705D+02 -.127015005164148D+02 -.374118602644768D+02
 0.581596642743637D+03 -.458086009471937D+03 -.265134489846929D+03 -.241071701098148D+03
 0.110020720881950D+03 -.774509746161129D+02 -.412672918771372D+02 0.663544736662520D+02
0.357487853206D-01 0.000000000000D+00 0.000000000000D+00 0.587023010316D-08 0.312326472383D-08  6 -1 2 25 -1 2 21 2 0.66154547D-01 0.21149039D+00 0.50770222D+06 0.50770222D+06 0.50770222D+06 0.10680415D+01  1  2  1  3  6  4       -1 0.198394697243D+00 0.100000000000D+01
  </mgrwgt>
  </event>
  <event>
  7     66 0.16841828E-05 0.13255198E+02 0.75467711E-02 0.93622761E-01
       -1 -1    0    0    0  503 0.00000000E+00 0.00000000E+00 0.37206393E+03 0.37206407E+03 0.32000000E+00 0.0000E+00 0.9000E+01
        2 -1    0    0  501    0 0.00000000E+00 0.00000000E+00 -.93915093E+03 0.93915098E+03 0.32000000E+00 0.0000E+00 0.9000E+01
       24  2    1    2    0    0 0.34974857E+03 0.40551801E+03 -.46457605E+03 0.71347730E+03 0.80312068E+02 0.0000E+00 0.0000E+00
       25  1    1    2    0    0 -.35425976E+03 -.38956801E+03 -.13804548E+03 0.55852016E+03 0.12500000E+03 0.0000E+00 0.9000E+01
       -1  1    3    3    0  502 0.32274389E+03 0.38043941E+03 -.40136167E+03 0.64030388E+03 0.32000000E+00 0.0000E+00 0.9000E+01
        2  1    3    3  502    0 0.27004685E+02 0.25078592E+02 -.63214378E+02 0.73173415E+02 0.32000000E+00 0.0000E+00 0.9000E+01
       21  1    1    2  501  503 0.45111930E+01 -.15949992E+02 0.35534539E+02 0.39217586E+02 0.75000000E+00 0.0000E+00 0.9000E+01
#aMCatNLO 2  0  0  1  2 0.75146188D+02 0.00000000D+00  -5  6  0 0.00000000D+00 0.00000000D+00 0.00000000D+00 0.00000000D+00 0.00000000D+00
  <mgrwgt>
 0.6373306768D-03    1    2    0
 0.560033497755074D+03 0.000000000000000D+00 0.000000000000000D+00 0.560033497755074D+03
 0.560033497755074D+03 0.000000000000000D+00 0.000000000000000D+00 -.560033497755074D+03
 0.564129222299163D+03 -.351996217860064D+03 -.397571119730323D+03 0.143710287803086D+03
 0.507105226471017D+03 0.324799071791851D+03 0.373195247329094D+03 -.111295018075155D+03
 0.488325467399684D+02 0.271971460682134D+02 0.243758724012292D+02 -.324152697279300D+02
 0.000000000000000D+00 0.000000000000000D+00 -.000000000000000D+00 0.000000000000000D+00
 0.622640601047343D+03 0.000000000000000D+00 0.000000000000000D+00 0.622640601047343D+03
 0.561193027490833D+03 0.000000000000000D+00 0.000000000000000D+00 -.561193027490833D+03
 0.559947198950496D+03 -.354259764658250D+03 -.389568014519085D+03 0.143710287803086D+03
 0.511166968303728D+03 0.322748582409998D+03 0.380445056465204D+03 -.111295018075155D+03
 0.490754718372301D+02 0.269999892043404D+02 0.250729497163339D+02 -.324152697279300D+02
 0.636439894467221D+02 0.451119304391157D+01 -.159499916624526D+02 0.614475735565102D+02
0.456227232022D-04 0.000000000000D+00 0.000000000000D+00 0.118752769568D-03 0.272490946890D-05  6 -1 2 25 -1 2 21 2 0.57240394D-01 0.14448420D+00 0.29894506D+06 0.29894506D+06 0.29894506D+06 0.10846651D+01  1  2  1  1  6  1       -1 0.637330676751D-03 0.100000000000D+01
  </mgrwgt>
  </event>
  <event>
  7     66 0.16841828E-05 0.48109925E+02 0.75467711E-02 0.91488154E-01
       -1 -1    0    0    0  503 0.00000000E+00 0.00000000E+00 0.80016735E+03 0.80016742E+03 0.32000000E+00 0.0000E+00 0.9000E+01
        2 -1    0    0  501    0 0.00000000E+00 0.00000000E+00 -.71023050E+03 0.71023057E+03 0.32000000E+00 0.0000E+00 0.9000E+01
       24  2    1    2    0    0 -.63462123E+03 0.12791222E+03 0.55899611E+02 0.65464978E+03 0.79598468E+02 0.0000E+00 0.0000E+00
       25  1    1    2    0    0 0.63593952E+03 -.14529294E+03 -.14170472E+03 0.67914236E+03 0.12500000E+03 0.0000E+00 0.9000E+01
       -1  1    3    3    0  502 -.42654155E+03 0.58410836E+02 0.10665256E+02 0.43065458E+03 0.32000000E+00 0.0000E+00 0.9000E+01
        2  1    3    3  502    0 -.20807969E+03 0.69501386E+02 0.45234355E+02 0.22399520E+03 0.32000000E+00 0.0000E+00 0.9000E+01
       21  1    1    2  501  503 -.13182897E+01 0.17380720E+02 0.17574196E+03 0.17660585E+03 0.75000000E+00 0.0000E+00 0.9000E+01
#aMCatNLO 2  0  0  1  2 0.68682929D+02 0.00000000D+00  -5  6  0 0.00000000D+00 0.00000000D+00 0.00000000D+00 0.00000000D+00 0.00000000D+00
  <mgrwgt>
 0.9129962139D-03    1    2    0
 0.665457571956131D+03 0.000000000000000D+00 0.000000000000000D+00 0.665457571956131D+03
 0.665457571956131D+03 0.000000000000000D+00 0.000000000000000D+00 -.665457571956131D+03
 0.668947307553879D+03 0.635275727820255D+03 -.136541257212166D+03 -.982177937287823D+02
 0.433461716845525D+03 -.426973804651796D+03 0.640631068104964D+02 0.384492972318898D+02
 0.228506119512858D+03 -.208301923168459D+03 0.724781504016695D+02 0.597684964968925D+02
 0.000000000000000D+00 -.000000000000000D+00 0.000000000000000D+00 0.000000000000000D+00
 0.853410373152048D+03 0.000000000000000D+00 0.000000000000000D+00 0.853410373152048D+03
 0.665918890540986D+03 0.000000000000000D+00 0.000000000000000D+00 -.665918890540986D+03
 0.671417047829144D+03 0.635939523995021D+03 -.145292941781903D+03 -.982177937287823D+02
 0.432239351964429D+03 -.426545078644828D+03 0.584106566722321D+02 0.384492972318898D+02
 0.227372881484879D+03 -.208076155648006D+03 0.695015648168050D+02 0.597684964968925D+02
 0.188299982414582D+03 -.131828970218791D+01 0.173807202928664D+02 0.187491482611062D+03
0.239726476258D-03 0.000000000000D+00 0.000000000000D+00 0.128302612402D-03 0.266712267137D-05  6 -1 2 25 -1 2 21 2 0.12310254D+00 0.10926612D+00 0.44324142D+06 0.44324142D+06 0.44324142D+06 0.10722285D+01  1  2  1  1  6  1       -1 0.912996213856D-03 0.100000000000D+01
  </mgrwgt>
  </event>
  <event>
  7     66 0.16841828E-05 0.39526175E+02 0.75467711E-02 0.94094508E-01
       -1 -1    0    0    0  501 0.00000000E+00 0.00000000E+00 0.67044989E+03 0.67044996E+03 0.32000000E+00 0.0000E+00 0.9000E+01
        2 -1    0    0  503    0 0.00000000E+00 0.00000000E+00 -.58913571E+03 0.58913580E+03 0.32000000E+00 0.0000E+00 0.9000E+01
       24  2    1    2    0    0 -.25749824E+03 0.42750173E+03 -.30579610E+03 0.59070186E+03 0.79714196E+02 0.0000E+00 0.0000E+00
       25  1    1    2    0    0 0.23660447E+03 -.44321657E+03 0.35639657E+03 0.62854286E+03 0.12500000E+03 0.0000E+00 0.9000E+01
       -1  1    3    3    0  502 -.10525662E+03 0.11003377E+03 -.75236525E+02 0.16984411E+03 0.32000000E+00 0.0000E+00 0.9000E+01
        2  1    3    3  502    0 -.15224163E+03 0.31746796E+03 -.23055958E+03 0.42085774E+03 0.32000000E+00 0.0000E+00 0.9000E+01
       21  1    1    2  503  501 0.20893771E+02 0.15714837E+02 0.30713704E+02 0.40341045E+02 0.75000000E+00 0.0000E+00 0.9000E+01
#aMCatNLO 2  0  0  2  1 0.74080701D+02 0.00000000D+00  -5  6  0 0.00000000D+00 0.00000000D+00 0.00000000D+00 0.00000000D+00 0.00000000D+00
  <mgrwgt>
 0.4059914629D-03    1    2    0
 0.608956846012962D+03 0.000000000000000D+00 0.000000000000000D+00 0.608956846012962D+03
 0.608956846012962D+03 0.000000000000000D+00 0.000000000000000D+00 -.608956846012962D+03
 0.612762799993381D+03 0.247128461597832D+03 -.435301159568809D+03 0.330595936154798D+03
 0.172765445422694D+03 -.102289376742750D+03 0.112261608032765D+03 -.823535906902648D+02
 0.432385446609849D+03 -.144839084855082D+03 0.323039551536044D+03 -.248242345464533D+03
 0.000000000000000D+00 0.000000000000000D+00 0.000000000000000D+00 0.000000000000000D+00
 0.643175687311427D+03 0.000000000000000D+00 0.000000000000000D+00 0.643175687311427D+03
 0.614111324989262D+03 0.000000000000000D+00 0.000000000000000D+00 -.614111324989262D+03
 0.614281106079051D+03 0.236604472304745D+03 -.443216570052416D+03 0.330595936154798D+03
 0.173111538300504D+03 -.105255860383160D+03 0.110030426011117D+03 -.823535906902648D+02
 0.430801620493048D+03 -.152242382656544D+03 0.317471307460630D+03 -.248242345464533D+03
 0.390927474280867D+02 0.208937707349581D+02 0.157148365806683D+02 0.290643623221649D+02
0.532166427312D-04 0.000000000000D+00 0.000000000000D+00 0.132016379475D-03 0.121950145787D-05  6 -1 2 25 -1 2 21 2 0.10314555D+00 0.90635748D-01 0.27469792D+06 0.27469792D+06 0.27469792D+06 0.10873943D+01  1  2  1  2  6  2        2 0.405991462928D-03 0.100000000000D+01
  </mgrwgt>
  </event>
  <event>
  7     66 0.16841828E-05 0.18455749E+02 0.75467711E-02 0.94459926E-01
       -1 -1    0    0    0  501 0.00000000E+00 0.00000000E+00 0.34675679E+03 0.34675694E+03 0.32000000E+00 0.0000E+00 0.9000E+01
        2 -1    0    0  503    0 0.00000000E+00 0.00000000E+00 -.96267935E+03 0.96267940E+03 0.32000000E+00 0.0000E+00 0.9000E+01
       24  2    1    2    0    0 -.19587847E+03 -.44302837E+03 -.20722772E+03 0.53291710E+03 0.80092439E+02 0.0000E+00 0.0000E+00
       25  1    1    2    0    0 0.16184487E+03 0.45066388E+03 -.15234825E+03 0.51780951E+03 0.12500000E+03 0.0000E+00 0.9000E+01
       -1  1    3    3    0  502 -.17511423E+03 -.37542386E+03 -.14556201E+03 0.43908595E+03 0.32000000E+00 0.0000E+00 0.9000E+01
        2  1    3    3  502    0 -.20764242E+02 -.67604512E+02 -.61665712E+02 0.93831158E+02 0.32000000E+00 0.0000E+00 0.9000E+01
       21  1    1    2  503  501 0.34033598E+02 -.76355128E+01 -.25634659E+03 0.25870973E+03 0.75000000E+00 0.0000E+00 0.9000E+01
#aMCatNLO 2  0  0  2  1 0.74080701D+02 0.00000000D+00  -5  6  0 0.00000000D+00 0.00000000D+00 0.00000000D+00 0.00000000D+00 0.00000000D+00
  <mgrwgt>
 0.2169857774D-02    1    2    0
 0.493334307780240D+03 0.000000000000000D+00 0.000000000000000D+00 0.493334307780240D+03
 0.493334307780240D+03 0.000000000000000D+00 0.000000000000000D+00 -.493334307780240D+03
 0.498001630277560D+03 0.178975843621314D+03 0.446820513967462D+03 0.264518327720409D+02
 0.411415478925907D+03 -.160880398368424D+03 -.378622718584604D+03 0.500306828399494D+01
 0.772515063570122D+02 -.180954452528899D+02 -.681977953828579D+02 -.314549010560358D+02
 0.000000000000000D+00 0.000000000000000D+00 -.000000000000000D+00 -.000000000000000D+00
 0.495329528465144D+03 0.000000000000000D+00 0.000000000000000D+00 0.495329528465144D+03
 0.673924484273525D+03 0.000000000000000D+00 0.000000000000000D+00 -.673924484273525D+03
 0.495597013588188D+03 0.161844874776722D+03 0.450663884651342D+03 0.264518327720409D+02
 0.414291747276873D+03 -.175116694738354D+03 -.375428774061584D+03 0.500306828399494D+01
 0.773961745911888D+02 -.207617780026052D+02 -.675995977434430D+02 -.314549010560358D+02
 0.181969077282419D+03 0.340335979642373D+02 -.763551284631485D+01 -.178594955808381D+03
0.139150728228D-03 0.000000000000D+00 0.000000000000D+00 0.198388246417D-03 0.108519702314D-05  6 -1 2 25 -1 2 21 2 0.53347131D-01 0.14810430D+00 0.25742826D+06 0.25742826D+06 0.25742826D+06 0.10895038D+01  1  2  1  2  6  2        2 0.216985777444D-02 0.100000000000D+01
  </mgrwgt>
  </event>
  <event>
  7     66 0.16841828E-05 0.14619643E+03 0.75467711E-02 0.91275214E-01
       -1 -1    0    0    0  501 0.00000000E+00 0.00000000E+00 0.71735185E+03 0.71735192E+03 0.32000000E+00 0.0000E+00 0.9000E+01
        2 -1    0    0  503    0 0.00000000E+00 0.00000000E+00 -.75479689E+03 0.75479696E+03 0.32000000E+00 0.0000E+00 0.9000E+01
       24  2    1    2    0    0 0.22590422E+03 -.61384978E+03 -.91518404E+02 0.66539637E+03 0.80823546E+02 0.0000E+00 0.0000E+00
       25  1    1    2    0    0 -.92780583E+02 0.50857917E+03 0.21423354E+03 0.57339517E+03 0.12500000E+03 0.0000E+00 0.9000E+01
       -1  1    3    3    0  502 0.19466023E+03 -.45071112E+03 -.45612180E+02 0.49306560E+03 0.32000000E+00 0.0000E+00 0.9000E+01
        2  1    3    3  502    0 0.31243992E+02 -.16313866E+03 -.45906224E+02 0.17233077E+03 0.32000000E+00 0.0000E+00 0.9000E+01
       21  1    1    2  503  501 -.13312364E+03 0.10527061E+03 -.16016018E+03 0.23335735E+03 0.75000000E+00 0.0000E+00 0.9000E+01
#aMCatNLO 2  0  0  2  1 0.74080701D+02 0.00000000D+00  -5  6  0 0.00000000D+00 0.00000000D+00 0.00000000D+00 0.00000000D+00 0.00000000D+00
  <mgrwgt>
 0.5202966875D-03    1    2    0
 0.610479660519087D+03 0.000000000000000D+00 0.000000000000000D+00 0.610479660519087D+03
 0.610479660519087D+03 0.000000000000000D+00 0.000000000000000D+00 -.610479660519087D+03
 0.614203189325468D+03 -.156210617766941D+03 0.558737940246584D+03 0.158210981930623D+03
 0.444771331036300D+03 0.143401423665138D+03 -.410179506690707D+03 -.949228154533017D+02
 0.161984800676406D+03 0.128091941018039D+02 -.148558433555877D+03 -.632881664773215D+02
 0.000000000000000D+00 -.000000000000000D+00 0.000000000000000D+00 -.000000000000000D+00
 0.649484780466718D+03 0.000000000000000D+00 0.000000000000000D+00 0.649484780466718D+03
 0.833667186291998D+03 0.000000000000000D+00 0.000000000000000D+00 -.833667186291998D+03
 0.554902442216592D+03 -.927805825768370D+02 0.508579166965369D+03 0.158210981930623D+03
 0.500048516598484D+03 0.194662793525050D+03 -.450715625284710D+03 -.949228154533017D+02
 0.177747491332858D+03 0.312414303822321D+02 -.163134152422892D+03 -.632881664773215D+02
 0.250453516610783D+03 -.133123641330445D+03 0.105270610742233D+03 -.184182405825280D+03
0.113432399029D-03 0.000000000000D+00 0.000000000000D+00 0.213480240736D-03 0.481834092386D-07  6 -1 2 25 -1 2 21 2 0.11036174D+00 0.11612251D+00 0.46147717D+06 0.46147717D+06 0.46147717D+06 0.10709800D+01  1  2  1  2  6  2        2 0.520296687471D-03 0.100000000000D+01
  </mgrwgt>
  </event>
  <event>
  7     66 0.16841828E-05 0.18540566E+02 0.75467711E-02 0.93431548E-01
       -1 -1    0    0    0  501 0.00000000E+00 0.00000000E+00 0.22510681E+03 0.22510704E+03 0.32000000E+00 0.0000E+00 0.9000E+01
        2 -1    0    0  503    0 0.00000000E+00 0.00000000E+00 -.15879443E+04 0.15879444E+04 0.32000000E+00 0.0000E+00 0.9000E+01
       24  2    1    2    0    0 0.31982359E+02 0.54322884E+03 -.99252304E+03 0.11348123E+04 0.81096270E+02 0.0000E+00 0.0000E+00
       25  1    1    2    0    0 -.49532515E+02 -.51110406E+03 -.32681109E+03 0.62137857E+03 0.12500000E+03 0.0000E+00 0.9000E+01
       -1  1    3    3    0  502 0.48951498E+02 0.45425297E+03 -.86705035E+03 0.98006042E+03 0.32000000E+00 0.0000E+00 0.9000E+01
        2  1    3    3  502    0 -.16969139E+02 0.88975875E+02 -.12547268E+03 0.15475191E+03 0.32000000E+00 0.0000E+00 0.9000E+01
       21  1    1    2  503  501 0.17550156E+02 -.32124779E+02 -.43503382E+02 0.56860497E+02 0.75000000E+00 0.0000E+00 0.9000E+01
#aMCatNLO 2  0  0  2  1 0.74080701D+02 0.00000000D+00  -5  6  0 0.00000000D+00 0.00000000D+00 0.00000000D+00 0.00000000D+00 0.00000000D+00
  <mgrwgt>
 0.4195532150D-03    1    2    0
 0.579271941852309D+03 0.000000000000000D+00 0.000000000000000D+00 0.579271941852309D+03
 0.579271941852309D+03 0.000000000000000D+00 0.000000000000000D+00 -.579271941852309D+03
 0.583177014069642D+03 -.408042716546792D+02 -.527080725326418D+03 0.212111645468352D+03
 0.486401575002027D+03 0.564068042777596D+02 0.440613928345857D+03 -.198151787131114D+03
 0.889652946329497D+02 -.156025326230804D+02 0.864667969805607D+02 -.139598583372380D+02
 0.000000000000000D+00 0.000000000000000D+00 -.000000000000000D+00 -.000000000000000D+00
 0.597277561975246D+03 0.000000000000000D+00 0.000000000000000D+00 0.597277561975246D+03
 0.598470050850343D+03 0.000000000000000D+00 0.000000000000000D+00 -.598470050850343D+03
 0.569470969612047D+03 -.495325148129160D+02 -.511104064808627D+03 0.212111645468352D+03
 0.498007437200622D+03 0.489525239187031D+02 0.454258656676861D+03 -.198151787131114D+03
 0.916436488305585D+02 -.169701650637034D+02 0.889701872758152D+02 -.139598583372380D+02
 0.366255571823609D+02 0.175501559579162D+02 -.321247791440498D+02 -.119248887509662D+01
0.291033648042D-04 0.000000000000D+00 0.000000000000D+00 0.716952737000D-04 0.335167020582D-06  6 -1 2 25 -1 2 21 2 0.34631615D-01 0.24429758D+00 0.30944907D+06 0.30944907D+06 0.30944907D+06 0.10835569D+01  1  2  1  2  6  2        2 0.419553214962D-03 0.100000000000D+01
  </mgrwgt>
  </event>
  <event>
  7     66 0.16841828E-05 0.26971769E+02 0.75467711E-02 0.89944091E-01
       -1 -1    0    0    0  501 0.00000000E+00 0.00000000E+00 0.70536188E+03 0.70536195E+03 0.32000000E+00 0.0000E+00 0.9000E+01
        2 -1    0    0  503    0 0.00000000E+00 0.00000000E+00 -.10867254E+04 0.10867255E+04 0.32000000E+00 0.0000E+00 0.9000E+01
       24  2    1    2    0    0 -.22879774E+03 -.73171826E+03 -.17725327E+03 0.79045604E+03 0.75113269E+02 0.0000E+00 0.0000E+00
       25  1    1    2    0    0 0.22222651E+03 0.69009906E+03 0.56288539E+02 0.73784465E+03 0.12500000E+03 0.0000E+00 0.9000E+01
       -1  1    3    3    0  502 -.19853568E+03 -.62797653E+03 -.12479997E+03 0.67033281E+03 0.32000000E+00 0.0000E+00 0.9000E+01
        2  1    3    3  502    0 -.30262055E+02 -.10374173E+03 -.52453295E+02 0.12012323E+03 0.32000000E+00 0.0000E+00 0.9000E+01
       21  1    1    2  503  501 0.65712254E+01 0.41619206E+02 -.26039882E+03 0.26378674E+03 0.75000000E+00 0.0000E+00 0.9000E+01
#aMCatNLO 2  0  0  2  1 0.74080701D+02 0.00000000D+00  -5  6  0 0.00000000D+00 0.00000000D+00 0.00000000D+00 0.00000000D+00 0.00000000D+00
  <mgrwgt>
 0.4500151904D-03    1    2    0
 0.761461619218541D+03 0.000000000000000D+00 0.000000000000000D+00 0.761461619218541D+03
 0.761461619218541D+03 0.000000000000000D+00 0.000000000000000D+00 -.761461619218541D+03
 0.764739196376547D+03 0.225482271488996D+03 0.710719591367333D+03 0.115049755173409D+03
 0.644778315176042D+03 -.195718809281343D+03 -.610125893307838D+03 -.719695611356694D+02
 0.113405726884494D+03 -.297634622076528D+02 -.100593698059494D+03 -.430801940377395D+02
 0.000000000000000D+00 0.000000000000000D+00 0.000000000000000D+00 -.000000000000000D+00
 0.763586217334498D+03 0.000000000000000D+00 0.000000000000000D+00 0.763586217334498D+03
 0.100385998145555D+04 0.000000000000000D+00 0.000000000000000D+00 -.100385998145555D+04
 0.744636003467257D+03 0.222226510750715D+03 0.690099057682148D+03 0.115049755173409D+03
 0.662543372651144D+03 -.198538735449450D+03 -.627986045577468D+03 -.719695611356694D+02
 0.116326623031933D+03 -.302590007359447D+02 -.103732217667156D+03 -.430801940377395D+02
 0.243940199639713D+03 0.657122543467983D+01 0.416192055624759D+02 -.240273764121050D+03
0.160111831043D-03 0.000000000000D+00 0.000000000000D+00 0.692960954295D-05 0.244576314715D-07  6 -1 2 25 -1 2 21 2 0.10851714D+00 0.16718841D+00 0.59637590D+06 0.59637590D+06 0.59637590D+06 0.10631419D+01  1  2  1  2  6  2        2 0.450015190396D-03 0.100000000000D+01
  </mgrwgt>
  </event>
  <event>
  7     66 0.16841828E-05 0.20832668E+02 0.75467711E-02 0.89888748E-01
       21 -1    0    0  503  501 0.00000000E+00 0.00000000E+00 0.27988432E+03 0.27988533E+03 0.75000000E+00 0.0000E+00 0.9000E+01
        2 -1    0    0  501    0 0.00000000E+00 0.00000000E+00 -.28536754E+04 0.28536754E+04 0.32000000E+00 0.0000E+00 0.9000E+01
       24  2    1    2    0    0 0.68079665E+03 -.32156869E+03 -.16260191E+04 0.17937665E+04 0.82277564E+02 0.0000E+00 0.0000E+00
       25  1    1    2    0    0 -.69430280E+03 0.29298134E+03 -.10121584E+04 0.12680631E+04 0.12500000E+03 0.0000E+00 0.9000E+01
       -1  1    3    3    0  502 0.58445525E+03 -.24253888E+03 -.13547153E+04 0.14952146E+04 0.32000000E+00 0.0000E+00 0.9000E+01
        2  1    3    3  502    0 0.96341402E+02 -.79029816E+02 -.27130381E+03 0.29855190E+03 0.32000000E+00 0.0000E+00 0.9000E+01
        1  1    1    2  503    0 0.13506152E+02 0.28587357E+02 0.64386381E+02 0.71731175E+02 0.32000000E+00 0.0000E+00 0.9000E+01
#aMCatNLO 2  0  0  1  2 0.10690631D+02 0.00000000D+00  -5  6  0 0.00000000D+00 0.00000000D+00 0.00000000D+00 0.00000000D+00 0.00000000D+00
  <mgrwgt>
 0.1077745186D-03    1    2    0
 0.776823720892493D+03 0.000000000000000D+00 0.000000000000000D+00 0.776823720892493D+03
 0.776823720892493D+03 0.000000000000000D+00 0.000000000000000D+00 -.776823720892493D+03
 0.779673596060485D+03 -.687523555286998D+03 0.307330413278341D+03 0.158509603474300D+03
 0.646919813763119D+03 0.590082581434400D+03 -.230646072789688D+03 -.130805892962502D+03
 0.127054031961381D+03 0.974409738525977D+02 -.766843404886530D+02 -.277037105117972D+02
 0.000000000000000D+00 0.000000000000000D+00 0.000000000000000D+00 0.000000000000000D+00
 0.102662613729477D+04 0.000000000000000D+00 0.000000000000000D+00 0.102662613729477D+04
 0.777985648429147D+03 0.000000000000000D+00 0.000000000000000D+00 -.777985648429147D+03
 0.780156870100750D+03 -.694302804431807D+03 0.292981336146087D+03 0.158509603474300D+03
 0.646167980892502D+03 0.584462634577191D+03 -.242541350454031D+03 -.130805892962502D+03
 0.127644269181110D+03 0.963340181432032D+02 -.790273422749573D+02 -.277037105117972D+02
 0.250642665549553D+03 0.135061517114128D+02 0.285873565829015D+02 0.248640488865622D+03
0.667198571654D-05 0.000000000000D+00 0.000000000000D+00 0.352098312968D-04 0.809101813718D-08  6 21 2 25 -1 2 1 2 0.43059200D-01 0.43902700D+00 0.60286926D+06 0.60286926D+06 0.60286926D+06 0.10628148D+01  1  2  1  5  6  1       -1 0.107774518610D-03 0.100000000000D+01
  </mgrwgt>
  </event>
  <event>
  7     66 0.16841828E-05 0.18203755E+02 0.75467711E-02 0.92908869E-01
       21 -1    0    0  503  501 0.00000000E+00 0.00000000E+00 0.29155014E+03 0.29155110E+03 0.75000000E+00 0.0000E+00 0.9000E+01
        4 -1    0    0  501    0 0.00000000E+00 0.00000000E+00 -.16203539E+04 0.16203546E+04 0.15500000E+01 0.0000E+00 0.9000E+01
       24  2    1    2    0    0 -.11399859E+03 0.53183117E+03 -.10553561E+04 0.11900483E+04 0.81231251E+02 0.0000E+00 0.0000E+00
       25  1    1    2    0    0 0.13791525E+03 -.55568648E+03 -.31736556E+03 0.66644878E+03 0.12500000E+03 0.0000E+00 0.9000E+01
       -3  1    3    3    0  502 -.76083013E+02 0.45444557E+03 -.93046949E+03 0.10383078E+04 0.50000000E+00 0.0000E+00 0.9000E+01
        4  1    3    3  502    0 -.37915580E+02 0.77385604E+02 -.12488658E+03 0.15174051E+03 0.15500000E+01 0.0000E+00 0.9000E+01
        3  1    1    2  503    0 -.23916658E+02 0.23855306E+02 0.43917898E+02 0.55408609E+02 0.50000000E+00 0.0000E+00 0.9000E+01
#aMCatNLO 2  0  0  1  2 0.10690631D+02 0.00000000D+00  -5  6  0 0.00000000D+00 0.00000000D+00 0.00000000D+00 0.00000000D+00 0.00000000D+00
  <mgrwgt>
 0.2061191104D-05    1    2    0
 0.624715086238605D+03 0.000000000000000D+00 0.000000000000000D+00 0.624715086238605D+03
 0.624715086238605D+03 0.000000000000000D+00 0.000000000000000D+00 -.624715086238605D+03
 0.628327326488379D+03 0.125765426122462D+03 -.543567819184300D+03 0.260551938683044D+03
 0.530832120720286D+03 -.861698282805513D+02 0.464642899351107D+03 -.241794286874389D+03
 0.902707252685451D+02 -.395955978419110D+02 0.789249198331935D+02 -.187576518086556D+02
 0.000000000000000D+00 -.000000000000000D+00 0.000000000000000D+00 0.000000000000000D+00
 0.753253225403832D+03 0.000000000000000D+00 0.000000000000000D+00 0.753253225403832D+03
 0.627166659024660D+03 0.000000000000000D+00 0.000000000000000D+00 -.627166659024660D+03
 0.641342646229822D+03 0.137915250744767D+03 -.555686477011620D+03 0.260551938683044D+03
 0.520505222992794D+03 -.761092892275194D+02 0.454608167646564D+03 -.241794286874389D+03
 0.880388608679729D+02 -.378893038863279D+02 0.772230028719747D+02 -.187576518086556D+02
 0.130533154337903D+03 -.239166576309196D+02 0.238553064930812D+02 0.126086566379172D+03
0.249984930361D-05 0.000000000000D+00 0.000000000000D+00 0.576099582587D-04 0.863458451764D-08  6 21 4 25 -3 4 3 2 0.44853965D-01 0.24928515D+00 0.34033460D+06 0.34033460D+06 0.34033460D+06 0.10805218D+01  1  2  1  5  6  1       -3 0.206119110412D-05 0.100000000000D+01
  </mgrwgt>
  </event>
  <event>
  7     66 0.16841828E-05 0.52302795E+02 0.75467711E-02 0.90195264E-01
       -1 -1    0    0    0  501 0.00000000E+00 0.00000000E+00 0.10361330E+04 0.10361330E+04 0.32000000E+00 0.0000E+00 0.9000E+01
        2 -1    0    0  503    0 0.00000000E+00 0.00000000E+00 -.56915787E+03 0.56915796E+03 0.32000000E+00 0.0000E+00 0.9000E+01
       24  2    1    2    0    0 -.59038924E+03 0.39932783E+03 0.24543615E+03 0.75815565E+03 0.80863596E+02 0.0000E+00 0.0000E+00
       25  1    1    2    0    0 0.63156956E+03 -.37838624E+03 0.25605761E+03 0.78945979E+03 0.12500000E+03 0.0000E+00 0.9000E+01
       -1  1    3    3    0  502 -.32816251E+03 0.19497925E+03 0.16659625E+03 0.41648764E+03 0.32000000E+00 0.0000E+00 0.9000E+01
        2  1    3    3  502    0 -.26222673E+03 0.20434858E+03 0.78839902E+02 0.34166801E+03 0.32000000E+00 0.0000E+00 0.9000E+01
       21  1    1    2  503  501 -.41180326E+02 -.20941590E+02 -.34518650E+02 0.57675550E+02 0.75000000E+00 0.0000E+00 0.9000E+01
#aMCatNLO 2  0  0  2  2 0.37217071D+01 0.00000000D+00  -5  6  0 0.00000000D+00 0.00000000D+00 0.00000000D+00 0.00000000D+00 0.00000000D+00
  <mgrwgt>
 0.4251382997D-03    1    2    0
 0.731690369983274D+03 0.000000000000000D+00 0.000000000000000D+00 0.731690369983274D+03
 0.731690369983274D+03 0.000000000000000D+00 0.000000000000000D+00 -.731690369983274D+03
 0.734794852164451D+03 0.610728587338004D+03 -.388984580242043D+03 0.252407258386634D+00
 0.389814859235249D+03 -.339037074635219D+03 0.189449545773506D+03 0.334418317321635D+02
 0.338771028566848D+03 -.271691512702785D+03 0.199535034468537D+03 -.336942389905501D+02
 0.000000000000000D+00 -.000000000000000D+00 -.000000000000000D+00 -.000000000000000D+00
 0.740325916630333D+03 0.000000000000000D+00 0.000000000000000D+00 0.740325916630333D+03
 0.796568494511031D+03 0.000000000000000D+00 0.000000000000000D+00 -.796568494511031D+03
 0.746780638734390D+03 0.631569563531531D+03 -.378386237989320D+03 0.252407258386634D+00
 0.383179486377814D+03 -.328163543820479D+03 0.194979104465960D+03 0.334418317321635D+02
 0.334149693009189D+03 -.262225694170657D+03 0.204348723787794D+03 -.336942389905501D+02
 0.727845930199707D+02 -.411803255403949D+02 -.209415902644343D+02 -.562425778806984D+02
0.179011727559D-03 0.000000000000D+00 0.000000000000D+00 0.288376447090D-03 0.819363393482D-06  6 -1 2 25 -1 2 21 2 0.15940467D+00 0.87562533D-01 0.56787059D+06 0.56787059D+06 0.56787059D+06 0.10646253D+01  1  2  1  2  6  2        2 0.425138299740D-03 0.100000000000D+01
  </mgrwgt>
  </event>
  <event>
  7     66 0.16841828E-05 0.43223631E+02 0.75467711E-02 0.89761282E-01
       -1 -1    0    0    0  501 0.00000000E+00 0.00000000E+00 0.50727116E+03 0.50727126E+03 0.32000000E+00 0.0000E+00 0.9000E+01
        2 -1    0    0  503    0 0.00000000E+00 0.00000000E+00 -.14329530E+04 0.14329531E+04 0.32000000E+00 0.0000E+00 0.9000E+01
       24  2    1    2    0    0 0.68287933E+03 -.33794837E+03 -.81727816E+03 0.11202252E+04 0.80172372E+02 0.0000E+00 0.0000E+00
       25  1    1    2    0    0 -.69989283E+03 0.31130883E+03 -.85238447E+02 0.78080327E+03 0.12500000E+03 0.0000E+00 0.9000E+01
       -1  1    3    3    0  502 0.22542045E+03 -.14604013E+03 -.25454457E+03 0.37004748E+03 0.32000000E+00 0.0000E+00 0.9000E+01
        2  1    3    3  502    0 0.45745889E+03 -.19190824E+03 -.56273360E+03 0.75017772E+03 0.32000000E+00 0.0000E+00 0.9000E+01
       21  1    1    2  503  501 0.17013497E+02 0.26639545E+02 -.23165269E+02 0.39195875E+02 0.75000000E+00 0.0000E+00 0.9000E+01
#aMCatNLO 2  0  0  2  2 0.37217071D+01 0.00000000D+00  -5  6  0 0.00000000D+00 0.00000000D+00 0.00000000D+00 0.00000000D+00 0.00000000D+00
  <mgrwgt>
 0.9948703207D-03    1    2    0
 0.836417042640725D+03 0.000000000000000D+00 0.000000000000000D+00 0.836417042640725D+03
 0.836417042640725D+03 0.000000000000000D+00 0.000000000000000D+00 -.836417042640725D+03
 0.839166087188985D+03 -.691348659894807D+03 0.324687190971103D+03 0.324330048513888D+03
 0.283158810777234D+03 0.228296258752598D+03 -.141530692291849D+03 -.896035350850297D+02
 0.550509187315232D+03 0.463052401142209D+03 -.183156498679254D+03 -.234726513428858D+03
 0.000000000000000D+00 0.000000000000000D+00 0.000000000000000D+00 -.000000000000000D+00
 0.849992618916882D+03 0.000000000000000D+00 0.000000000000000D+00 0.849992618916882D+03
 0.855170249489405D+03 0.000000000000000D+00 0.000000000000000D+00 -.855170249489405D+03
 0.841176638551610D+03 -.699892828819754D+03 0.311308825834809D+03 0.324330048513888D+03
 0.283141324514462D+03 0.225416748552665D+03 -.146039397492644D+03 -.896035350850297D+02
 0.548814727814543D+03 0.457462583606645D+03 -.191908973108650D+03 -.234726513428858D+03
 0.320301775256714D+02 0.170134966604449D+02 0.266395447664844D+02 -.517763057252285D+01
0.274488868674D-03 0.000000000000D+00 0.000000000000D+00 0.238994929734D-03 0.143961617052D-05  6 -1 2 25 -1 2 21 2 0.78041326D-01 0.22045319D+00 0.61812669D+06 0.61812669D+06 0.61812669D+06 0.10620610D+01  1  2  1  2  6  2        2 0.994870320716D-03 0.100000000000D+01
  </mgrwgt>
  </event>
  <event>
  7     66 0.16841828E-05 0.49206122E+02 0.75467711E-02 0.90274281E-01
       -1 -1    0    0    0  501 0.00000000E+00 0.00000000E+00 0.10455232E+04 0.10455232E+04 0.32000000E+00 0.0000E+00 0.9000E+01
        2 -1    0    0  503    0 0.00000000E+00 0.00000000E+00 -.58230445E+03 0.58230453E+03 0.32000000E+00 0.0000E+00 0.9000E+01
       24  2    1    2    0    0 -.70422274E+03 0.23142781E+03 0.39805949E+03 0.84503114E+03 0.78343927E+02 0.0000E+00 0.0000E+00
       25  1    1    2    0    0 0.69327414E+03 -.23029040E+03 0.98519886E+02 0.74765893E+03 0.12500000E+03 0.0000E+00 0.9000E+01
       -1  1    3    3    0  502 -.23845774E+03 0.50147637E+02 0.15935310E+03 0.29115356E+03 0.32000000E+00 0.0000E+00 0.9000E+01
        2  1    3    3  502    0 -.46576499E+03 0.18128017E+03 0.23870638E+03 0.55387758E+03 0.32000000E+00 0.0000E+00 0.9000E+01
       21  1    1    2  503  501 0.10948593E+02 -.11374098E+01 -.33360623E+02 0.35137715E+02 0.75000000E+00 0.0000E+00 0.9000E+01
#aMCatNLO 2  0  0  2  2 0.37217071D+01 0.00000000D+00  -5  6  0 0.00000000D+00 0.00000000D+00 0.00000000D+00 0.00000000D+00 0.00000000D+00
  <mgrwgt>
 0.1897024003D-02    1    2    0
 0.756628938089846D+03 0.000000000000000D+00 0.000000000000000D+00 0.756628938089846D+03
 0.756628938089846D+03 0.000000000000000D+00 0.000000000000000D+00 -.756628938089846D+03
 0.759763641459867D+03 0.698752203466954D+03 -.230859494981974D+03 -.141651129932314D+03
 0.252377224007664D+03 -.236621644500278D+03 0.499550977726538D+02 0.721730473121585D+02
 0.501117010712162D+03 -.462130558966676D+03 0.180904397209321D+03 0.694780826201551D+02
 0.000000000000000D+00 0.000000000000000D+00 -.000000000000000D+00 -.000000000000000D+00
 0.757289614445348D+03 0.000000000000000D+00 0.000000000000000D+00 0.757289614445348D+03
 0.803930479289701D+03 0.000000000000000D+00 0.000000000000000D+00 -.803930479289701D+03
 0.754554668698210D+03 0.693274143127187D+03 -.230290399093033D+03 -.141651129932314D+03
 0.254133433103594D+03 -.238453951435866D+03 0.501454495175501D+02 0.721730473121585D+02
 0.504609808464018D+03 -.465768784935293D+03 0.181282359355292D+03 0.694780826201551D+02
 0.479221834692284D+02 0.109485932439725D+02 -.113740977980934D+01 -.466408648443532D+02
0.842034327031D-03 0.000000000000D+00 0.000000000000D+00 0.570327635337D-04 0.285235662386D-05  6 -1 2 25 -1 2 21 2 0.16084911D+00 0.89584963D-01 0.55922006D+06 0.55922006D+06 0.55922006D+06 0.10650916D+01  1  2  1  2  6  2        2 0.189702400288D-02 0.100000000000D+01
  </mgrwgt>
  </event>
  <event>
  7     66 0.16841828E-05 0.38158645E+02 0.75467711E-02 0.91149107E-01
       -1 -1    0    0    0  503 0.00000000E+00 0.00000000E+00 0.20401856E+03 0.20401881E+03 0.32000000E+00 0.0000E+00 0.9000E+01
        2 -1    0    0  501    0 0.00000000E+00 0.00000000E+00 -.27478884E+04 0.27478885E+04 0.32000000E+00 0.0000E+00 0.9000E+01
       24  2    1    2    0    0 0.11025270E+03 0.66920175E+03 -.17846780E+04 0.19108712E+04 0.79790029E+02 0.0000E+00 0.0000E+00
       25  1    1    2    0    0 -.91958651E+02 -.63979456E+03 -.76112031E+03 0.10063412E+04 0.12500000E+03 0.0000E+00 0.9000E+01
       -1  1    3    3    0  502 0.41330654E+02 0.45841759E+03 -.11587685E+04 0.12468358E+04 0.32000000E+00 0.0000E+00 0.9000E+01
        2  1    3    3  502    0 0.68922048E+02 0.21078416E+03 -.62590946E+03 0.66403536E+03 0.32000000E+00 0.0000E+00 0.9000E+01
       21  1    1    2  501  503 -.18294051E+02 -.29407185E+02 0.19284241E+01 0.34694901E+02 0.75000000E+00 0.0000E+00 0.9000E+01
#aMCatNLO 2  0  0  1  2 0.86311644D+01 0.00000000D+00  -5  6  0 0.00000000D+00 0.00000000D+00 0.00000000D+00 0.00000000D+00 0.00000000D+00
  <mgrwgt>
 0.5831479927D-03    1    2    0
 0.712011149828087D+03 0.000000000000000D+00 0.000000000000000D+00 0.712011149828087D+03
 0.712011149828087D+03 0.000000000000000D+00 0.000000000000000D+00 -.712011149828087D+03
 0.715261994754298D+03 -.101052308267075D+03 -.654412364460527D+03 0.239807442284379D+03
 0.472648778631383D+03 0.351958164260884D+02 0.448560702737722D+03 -.144746047985015D+03
 0.236111526270492D+03 0.658564918409865D+02 0.205851661722805D+03 -.950613942993642D+02
 0.000000000000000D+00 -.000000000000000D+00 -.000000000000000D+00 0.000000000000000D+00
 0.782448344015058D+03 0.000000000000000D+00 0.000000000000000D+00 0.782448344015058D+03
 0.716491635714375D+03 0.000000000000000D+00 0.000000000000000D+00 -.716491635714375D+03
 0.700661174647533D+03 -.919586508587297D+02 -.639794559851619D+03 0.239807442284379D+03
 0.482503826883673D+03 0.413302104065977D+02 0.458421572635773D+03 -.144746047985015D+03
 0.241278386172110D+03 0.689224917538116D+02 0.210780172402730D+03 -.950613942993642D+02
 0.744965920261164D+02 -.182940513016796D+02 -.294071851868837D+02 0.659567083006836D+02
0.161469463876D-03 0.000000000000D+00 0.000000000000D+00 0.181726383368D-03 0.928098228050D-06  6 -1 2 25 -1 2 21 2 0.31387409D-01 0.42275098D+00 0.47267123D+06 0.47267123D+06 0.47267123D+06 0.10702399D+01  1  2  1  1  6  1       -1 0.583147992750D-03 0.100000000000D+01
  </mgrwgt>
  </event>
  <event>
  7     66 0.16841828E-05 0.46995982E+02 0.75467711E-02 0.93949860E-01
       -1 -1    0    0    0  503 0.00000000E+00 0.00000000E+00 0.69533683E+03 0.69533690E+03 0.32000000E+00 0.0000E+00 0.9000E+01
        2 -1    0    0  501    0 0.00000000E+00 0.00000000E+00 -.45931109E+03 0.45931121E+03 0.32000000E+00 0.0000E+00 0.9000E+01
       24  2    1    2    0    0 0.45983384E+02 0.51873574E+03 0.26004112E+03 0.58637630E+03 0.70813465E+02 0.0000E+00 0.0000E+00
       25  1    1    2    0    0 -.56203127E+02 -.49764196E+03 -.65809236E+02 0.52034812E+03 0.12500000E+03 0.0000E+00 0.9000E+01
       -1  1    3    3    0  502 -.54230803E+00 0.21307556E+03 0.74120124E+02 0.22560005E+03 0.32000000E+00 0.0000E+00 0.9000E+01
        2  1    3    3  502    0 0.46525692E+02 0.30566019E+03 0.18592099E+03 0.36077626E+03 0.32000000E+00 0.0000E+00 0.9000E+01
       21  1    1    2  501  503 0.10219743E+02 -.21093781E+02 0.41793855E+02 0.47923685E+02 0.75000000E+00 0.0000E+00 0.9000E+01
#aMCatNLO 2  0  0  1  2 0.99732981D+01 0.00000000D+00  -5  6  0 0.00000000D+00 0.00000000D+00 0.00000000D+00 0.00000000D+00 0.00000000D+00
  <mgrwgt>
 0.7054086695D-03    1    2    0
 0.544647487186627D+03 0.000000000000000D+00 0.000000000000000D+00 0.544647487186627D+03
 0.544647487186627D+03 0.000000000000000D+00 0.000000000000000D+00 -.544647487186627D+03
 0.549517817762591D+03 -.510914722748995D+02 -.508192531545851D+03 -.159608409491363D+03
 0.211859877262634D+03 0.146330853926556D+01 0.208932043020072D+03 0.350694699320647D+02
 0.327917279348029D+03 0.496281637356340D+02 0.299260488525779D+03 0.124538939559298D+03
 0.000000000000000D+00 0.000000000000000D+00 -.000000000000000D+00 0.000000000000000D+00
 0.582339048034557D+03 0.000000000000000D+00 0.000000000000000D+00 0.582339048034557D+03
 0.548429781312424D+03 0.000000000000000D+00 0.000000000000000D+00 -.548429781312424D+03
 0.540283403986371D+03 -.562031269716847D+02 -.497641960410637D+03 -.159608409491363D+03
 0.215941078702484D+03 -.543269102791797D+00 0.213073664746627D+03 0.350694699320647D+02
 0.333322639719413D+03 0.465266530467595D+02 0.305662076874495D+03 0.124538939559298D+03
 0.412217069387133D+02 0.102197430277170D+02 -.210937812104851D+02 0.339092667221334D+02
0.758353533620D-04 0.000000000000D+00 0.000000000000D+00 0.252923470557D-05 0.290463029434D-07  6 -1 2 25 -1 2 21 2 0.10697425D+00 0.70662823D-01 0.28188993D+06 0.28188993D+06 0.28188993D+06 0.10865582D+01  1  2  1  1  6  1       -1 0.705408669518D-03 0.100000000000D+01
  </mgrwgt>
  </event>
  <event>
  7     66 0.16841828E-05 0.75722192E+02 0.75467711E-02 0.94595124E-01
       21 -1    0    0  503  501 0.00000000E+00 0.00000000E+00 0.87729142E+02 0.87732348E+02 0.75000000E+00 0.0000E+00 0.9000E+01
        2 -1    0    0  501    0 0.00000000E+00 0.00000000E+00 -.32022535E+04 0.32022535E+04 0.32000000E+00 0.0000E+00 0.9000E+01
       24  2    1    2    0    0 0.24050175E+03 -.30930801E+03 -.17169247E+04 0.17630087E+04 0.82804535E+02 0.0000E+00 0.0000E+00
       25  1    1    2    0    0 -.27972012E+03 0.40037519E+03 -.12621494E+04 0.13591136E+04 0.12500000E+03 0.0000E+00 0.9000E+01
       -1  1    3    3    0  502 0.21119015E+03 -.21811575E+03 -.12477579E+04 0.12841634E+04 0.32000000E+00 0.0000E+00 0.9000E+01
        2  1    3    3  502    0 0.29311593E+02 -.91192265E+02 -.46916681E+03 0.47884527E+03 0.32000000E+00 0.0000E+00 0.9000E+01
        1  1    1    2  503    0 0.39218371E+02 -.91067182E+02 -.13545020E+03 0.16786355E+03 0.32000000E+00 0.0000E+00 0.9000E+01
#aMCatNLO 2  0  0  1  1 0.19936801D+02 0.00000000D+00  -5  6  0 0.00000000D+00 0.00000000D+00 0.00000000D+00 0.00000000D+00 0.00000000D+00
  <mgrwgt>
 0.9600931024D-03    1    2    0
 0.464471090157687D+03 0.000000000000000D+00 0.000000000000000D+00 0.464471090157687D+03
 0.464471090157687D+03 0.000000000000000D+00 0.000000000000000D+00 -.464471090157687D+03
 0.469190656951965D+03 -.258954866817270D+03 0.352157152259680D+03 0.115942182293668D+03
 0.344801654793964D+03 0.225033420817084D+03 -.250256150912010D+03 -.749666565529143D+02
 0.114949868569445D+03 0.339214460001863D+02 -.101901001347670D+03 -.409755257407542D+02
 0.000000000000000D+00 0.000000000000000D+00 -.000000000000000D+00 0.000000000000000D+00
 0.572951757617925D+03 0.000000000000000D+00 0.000000000000000D+00 0.572951757617925D+03
 0.490331031664433D+03 0.000000000000000D+00 0.000000000000000D+00 -.490331031664433D+03
 0.517311540609894D+03 -.279720119255601D+03 0.400375193158612D+03 0.115942182293668D+03
 0.312726292122646D+03 0.211192869993451D+03 -.218117642234610D+03 -.749666565529143D+02
 0.104181031722578D+03 0.293088780070802D+02 -.911903686307695D+02 -.409755257407542D+02
 0.129063924827240D+03 0.392183712550706D+02 -.910671822932324D+02 0.826207259534920D+02
0.929366789011D-05 0.000000000000D+00 0.000000000000D+00 0.346658567026D-04 0.668057306768D-09  6 21 2 25 -1 2 1 2 0.13497034D-01 0.49265443D+00 0.25135025D+06 0.25135025D+06 0.25135025D+06 0.10902832D+01  1  2  1  5  6  1       -1 0.960093102367D-03 0.100000000000D+01
  </mgrwgt>
  </event>
  <event>
  7     66 0.16841828E-05 0.52918545E+02 0.75467711E-02 0.88697130E-01
       -1 -1    0    0    0  501 0.00000000E+00 0.00000000E+00 0.64541209E+03 0.64541217E+03 0.32000000E+00 0.0000E+00 0.9000E+01
        2 -1    0    0  503    0 0.00000000E+00 0.00000000E+00 -.15080622E+04 0.15080623E+04 0.32000000E+00 0.0000E+00 0.9000E+01
       24  2    1    2    0    0 0.21968255E+03 -.75545009E+03 0.37599258E+02 0.79171315E+03 0.80191881E+02 0.0000E+00 0.0000E+00
       25  1    1    2    0    0 -.29349949E+03 0.80819301E+03 -.62056182E+03 0.10677265E+04 0.12500000E+03 0.0000E+00 0.9000E+01
       -1  1    3    3    0  502 0.93123514E+02 -.40655748E+03 -.12103135E+02 0.41726198E+03 0.32000000E+00 0.0000E+00 0.9000E+01
        2  1    3    3  502    0 0.12655904E+03 -.34889261E+03 0.49702393E+02 0.37445117E+03 0.32000000E+00 0.0000E+00 0.9000E+01
       21  1    1    2  503  501 0.73816937E+02 -.52742922E+02 -.27968759E+03 0.29403481E+03 0.75000000E+00 0.0000E+00 0.9000E+01
#aMCatNLO 2  0  0  2  1 0.62879605D+00 0.00000000D+00  -5  6  0 0.00000000D+00 0.00000000D+00 0.00000000D+00 0.00000000D+00 0.00000000D+00
  <mgrwgt>
 0.6712511020D-03    1    2    0
 0.881680168411392D+03 0.000000000000000D+00 0.000000000000000D+00 0.881680168411392D+03
 0.881680168411392D+03 0.000000000000000D+00 0.000000000000000D+00 -.881680168411392D+03
 0.884287197165759D+03 -.255769161788029D+03 0.781234328969668D+03 -.300988216029855D+03
 0.452054863467457D+03 0.111686234203800D+03 -.419822021195826D+03 0.125017019613355D+03
 0.427018276189569D+03 0.144082927584228D+03 -.361412307773842D+03 0.175971196416500D+03
 0.000000000000000D+00 0.000000000000000D+00 -.000000000000000D+00 -.000000000000000D+00
 0.892768594575442D+03 0.000000000000000D+00 0.000000000000000D+00 0.892768594575442D+03
 0.109022689309197D+04 0.000000000000000D+00 0.000000000000000D+00 -.109022689309197D+04
 0.919530751985798D+03 -.293499487101583D+03 0.808193014526752D+03 -.300988216029855D+03
 0.435420342131900D+03 0.931229816146313D+02 -.406558396106213D+03 0.125017019613355D+03
 0.410741527344922D+03 0.126559568346760D+03 -.348891696629866D+03 0.175971196416500D+03
 0.217302866204797D+03 0.738169371401916D+02 -.527429217906734D+02 -.197458298516532D+03
0.350335100185D-03 0.000000000000D+00 0.000000000000D+00 0.206628003010D-03 0.153540848767D-06  6 -1 2 25 -1 2 21 2 0.99294105D-01 0.23200942D+00 0.76372058D+06 0.76372058D+06 0.76372058D+06 0.10557467D+01  1  2  1  2  6  2        2 0.671251101955D-03 0.100000000000D+01
  </mgrwgt>
  </event>
  <event>
  7     66 0.16841828E-05 0.36197092E+02 0.75467711E-02 0.90819883E-01
       -1 -1    0    0    0  501 0.00000000E+00 0.00000000E+00 0.30960589E+03 0.30960606E+03 0.32000000E+00 0.0000E+00 0.9000E+01
        2 -1    0    0  503    0 0.00000000E+00 0.00000000E+00 -.19331111E+04 0.19331111E+04 0.32000000E+00 0.0000E+00 0.9000E+01
       24  2    1    2    0    0 0.18000240E+03 0.67771285E+03 -.10629225E+04 0.12759562E+04 0.81020834E+02 0.0000E+00 0.0000E+00
       25  1    1    2    0    0 -.16041957E+03 -.64428149E+03 -.36605359E+03 0.76840959E+03 0.12500000E+03 0.0000E+00 0.9000E+01
       -1  1    3    3    0  502 0.91800551E+02 0.47065059E+03 -.75865173E+03 0.89749198E+03 0.32000000E+00 0.0000E+00 0.9000E+01
        2  1    3    3  502    0 0.88201847E+02 0.20706226E+03 -.30427080E+03 0.37846422E+03 0.32000000E+00 0.0000E+00 0.9000E+01
       21  1    1    2  503  501 -.19582826E+02 -.33431368E+02 -.19452911E+03 0.19835141E+03 0.75000000E+00 0.0000E+00 0.9000E+01
#aMCatNLO 2  0  0  2  1 0.62879605D+00 0.00000000D+00  -5  6  0 0.00000000D+00 0.00000000D+00 0.00000000D+00 0.00000000D+00 0.00000000D+00
  <mgrwgt>
 0.6966674134D-03    1    2    0
 0.730745790917512D+03 0.000000000000000D+00 0.000000000000000D+00 0.730745790917512D+03
 0.730745790917512D+03 0.000000000000000D+00 0.000000000000000D+00 -.730745790917512D+03
 0.733845577653382D+03 -.170135987335374D+03 -.660869135330094D+03 0.239186252997320D+03
 0.501666113870449D+03 0.850007135603447D+02 0.459046074241188D+03 -.183631343250175D+03
 0.225979890311193D+03 0.851352737750295D+02 0.201823061088905D+03 -.555549097471446D+02
 0.000000000000000D+00 -.000000000000000D+00 -.000000000000000D+00 -.000000000000000D+00
 0.735541314443157D+03 0.000000000000000D+00 0.000000000000000D+00 0.735541314443157D+03
 0.813686725994395D+03 0.000000000000000D+00 0.000000000000000D+00 -.813686725994395D+03
 0.716706449710559D+03 -.160419571692827D+03 -.644281485417442D+03 0.239186252997320D+03
 0.513481909385792D+03 0.918006076328052D+02 0.470654703026393D+03 -.183631343250175D+03
 0.231816698089000D+03 0.882017904174692D+02 0.207058150486828D+03 -.555549097471446D+02
 0.872229832522013D+02 -.195828263574471D+02 -.334313680957790D+02 -.781454115512382D+02
0.137803438547D-03 0.000000000000D+00 0.000000000000D+00 0.144895484429D-03 0.591553297108D-06  6 -1 2 25 -1 2 21 2 0.47631587D-01 0.29740108D+00 0.50335246D+06 0.50335246D+06 0.50335246D+06 0.10683053D+01  1  2  1  2  6  2        2 0.696667413435D-03 0.100000000000D+01
  </mgrwgt>
  </event>
  <event>
  7     66 0.16841828E-05 0.51699271E+02 0.75467711E-02 0.94526335E-01
       -1 -1    0    0    0  501 0.00000000E+00 0.00000000E+00 0.31850032E+03 0.31850048E+03 0.32000000E+00 0.0000E+00 0.9000E+01
        2 -1    0    0  503    0 0.00000000E+00 0.00000000E+00 -.87862158E+03 0.87862164E+03 0.32000000E+00 0.0000E+00 0.9000E+01
       24  2    1    2    0    0 -.42864596E+03 -.23384345E+03 -.25500144E+03 0.55720918E+03 0.83882183E+02 0.0000E+00 0.0000E+00
       25  1    1    2    0    0 0.43472015E+03 0.22034111E+03 -.21261071E+03 0.54622352E+03 0.12500000E+03 0.0000E+00 0.9000E+01
       -1  1    3    3    0  502 -.27559786E+03 -.17725280E+03 -.20510192E+03 0.38657423E+03 0.32000000E+00 0.0000E+00 0.9000E+01
        2  1    3    3  502    0 -.15304810E+03 -.56590651E+02 -.49899518E+02 0.17063495E+03 0.32000000E+00 0.0000E+00 0.9000E+01
       21  1    1    2  503  501 -.60741946E+01 0.13502337E+02 -.92509120E+02 0.93689427E+02 0.75000000E+00 0.0000E+00 0.9000E+01
#aMCatNLO 2  0  0  2  1 0.16692771D+02 0.00000000D+00  -5  6  0 0.00000000D+00 0.00000000D+00 0.00000000D+00 0.00000000D+00 0.00000000D+00
  <mgrwgt>
 0.2665938214D-02    1    2    0
 0.499670739074916D+03 0.000000000000000D+00 0.000000000000000D+00 0.499670739074916D+03
 0.499670739074916D+03 0.000000000000000D+00 0.000000000000000D+00 -.499670739074916D+03
 0.503967958917990D+03 0.431658289331797D+03 0.227147335320247D+03 0.208305766608260D+02
 0.330151016129070D+03 -.277608335631519D+03 -.172789435150861D+03 -.455753940103801D+02
 0.165222503102772D+03 -.154049953700278D+03 -.543579001693863D+02 0.247448173495541D+02
 0.000000000000000D+00 -.000000000000000D+00 0.000000000000000D+00 -.000000000000000D+00
 0.500650907509209D+03 0.000000000000000D+00 0.000000000000000D+00 0.500650907509209D+03
 0.558949907149143D+03 0.000000000000000D+00 0.000000000000000D+00 -.558949907149143D+03
 0.503577929193636D+03 0.434720152632770D+03 0.220341114506279D+03 0.208305766608260D+02
 0.330834488201972D+03 -.275599645722636D+03 -.177254555152235D+03 -.455753940103801D+02
 0.165038731431244D+03 -.153046312312143D+03 -.565888962114081D+02 0.247448173495541D+02
 0.601496658314999D+02 -.607419459799111D+01 0.135023368573644D+02 -.582989996399346D+02
0.129076327567D-03 0.000000000000D+00 0.000000000000D+00 0.144833130962D-04 0.421371200591D-06  6 -1 2 25 -1 2 21 2 0.48999838D-01 0.13517194D+00 0.25442239D+06 0.25442239D+06 0.25442239D+06 0.10898867D+01  1  2  1  2  6  2        2 0.266593821351D-02 0.100000000000D+01
  </mgrwgt>
  </event>
  <event>
  7     66 0.16841828E-05 0.56024663E+02 0.75467711E-02 0.89426862E-01
       -1 -1    0    0    0  503 0.00000000E+00 0.00000000E+00 0.43724283E+03 0.43724294E+03 0.32000000E+00 0.0000E+00 0.9000E+01
        2 -1    0    0  501    0 0.00000000E+00 0.00000000E+00 -.16113105E+04 0.16113105E+04 0.32000000E+00 0.0000E+00 0.9000E+01
       24  2    1    2    0    0 0.68901789E+03 -.40030327E+03 -.66366135E+03 0.10401107E+04 0.79971811E+02 0.0000E+00 0.0000E+00
       25  1    1    2    0    0 -.69786237E+03 0.40516538E+03 -.53878911E+03 0.97830955E+03 0.12500000E+03 0.0000E+00 0.9000E+01
       -1  1    3    3    0  502 0.26572870E+03 -.12638954E+03 -.20609261E+03 0.35924967E+03 0.32000000E+00 0.0000E+00 0.9000E+01
        2  1    3    3  502    0 0.42328918E+03 -.27391374E+03 -.45756874E+03 0.68086102E+03 0.32000000E+00 0.0000E+00 0.9000E+01
       21  1    1    2  501  503 0.88444848E+01 -.48621102E+01 0.28382801E+02 0.30133220E+02 0.75000000E+00 0.0000E+00 0.9000E+01
#aMCatNLO 2  0  0  1  1 0.19936801D+02 0.00000000D+00  -5  6  0 0.00000000D+00 0.00000000D+00 0.00000000D+00 0.00000000D+00 0.00000000D+00
  <mgrwgt>
 0.2524551393D-02    1    2    0
 0.810560189499366D+03 0.000000000000000D+00 0.000000000000000D+00 0.810560189499366D+03
 0.810560189499366D+03 0.000000000000000D+00 0.000000000000000D+00 -.810560189499366D+03
 0.813406834822682D+03 -.693410983666191D+03 0.402718305595497D+03 0.548165395262388D+02
 0.296251791804046D+03 0.267337446979500D+03 -.127272941090360D+03 0.986975459677431D+01
 0.511461752372004D+03 0.426073536686690D+03 -.275445364505137D+03 -.646862941230131D+02
 0.000000000000000D+00 0.000000000000000D+00 -.000000000000000D+00 0.000000000000000D+00
 0.868702534683122D+03 0.000000000000000D+00 0.000000000000000D+00 0.868702534683122D+03
 0.811014015207306D+03 0.000000000000000D+00 0.000000000000000D+00 -.811014015207306D+03
 0.818413544515698D+03 -.697862371368836D+03 0.405165382860607D+03 0.548165395262388D+02
 0.294417276917584D+03 0.265726180775124D+03 -.126387173963307D+03 0.986975459677431D+01
 0.508320975355511D+03 0.423291705824021D+03 -.273916098686440D+03 -.646862941230131D+02
 0.585647531016344D+02 0.884448476969143D+01 -.486211021085871D+01 0.576885194758156D+02
0.654824380381D-03 0.000000000000D+00 0.000000000000D+00 0.262678868596D-03 0.154925265160D-04  6 -1 2 25 -1 2 21 2 0.67267939D-01 0.24789320D+00 0.66024455D+06 0.66024455D+06 0.66024455D+06 0.10600807D+01  1  2  1  1  6  1       -1 0.252455139306D-02 0.100000000000D+01
  </mgrwgt>
  </event>
  <event>
  7     66 0.16841828E-05 0.10787732E+03 0.75467711E-02 0.93248152E-01
       -1 -1    0    0    0  501 0.00000000E+00 0.00000000E+00 0.75982438E+03 0.75982445E+03 0.32000000E+00 0.0000E+00 0.9000E+01
        2 -1    0    0  503    0 0.00000000E+00 0.00000000E+00 -.89213116E+03 0.89213121E+03 0.32000000E+00 0.0000E+00 0.9000E+01
       24  2    1    2    0    0 -.19372164E+03 0.40285946E+03 0.26091374E+03 0.52328036E+03 0.76957988E+02 0.0000E+00 0.0000E+00
       25  1    1    2    0    0 0.33709375E+03 -.40392441E+03 0.15458827E+03 0.56241413E+03 0.12500000E+03 0.0000E+00 0.9000E+01
       -1  1    3    3    0  502 -.10054018E+03 0.21843174E+03 0.96028766E+02 0.25892543E+03 0.32000000E+00 0.0000E+00 0.9000E+01
        2  1    3    3  502    0 -.93181453E+02 0.18442772E+03 0.16488498E+03 0.26435492E+03 0.32000000E+00 0.0000E+00 0.9000E+01
       21  1    1    2  503  501 -.14337211E+03 0.10649455E+01 -.54780878E+03 0.56626118E+03 0.75000000E+00 0.0000E+00 0.9000E+01
#aMCatNLO 2  0  0  2  1 0.16692771D+02 0.00000000D+00  -5  6  0 0.00000000D+00 0.00000000D+00 0.00000000D+00 0.00000000D+00 0.00000000D+00
  <mgrwgt>
 0.3395903480D-02    1    2    0
 0.496370302307300D+03 0.000000000000000D+00 0.000000000000000D+00 0.496370302307300D+03
 0.496370302307300D+03 0.000000000000000D+00 0.000000000000000D+00 -.496370302307300D+03
 0.501257010919806D+03 0.261953151266430D+03 -.403366275596032D+03 -.656489546728001D+02
 0.257732440807888D+03 -.136330902256869D+03 0.218698174756743D+03 -.331730201949710D+01
 0.233751152886906D+03 -.125622249009561D+03 0.184668100839289D+03 0.689662566922972D+02
 0.000000000000000D+00 -.000000000000000D+00 0.000000000000000D+00 -.000000000000000D+00
 0.507684757898105D+03 0.000000000000000D+00 0.000000000000000D+00 0.507684757898105D+03
 0.133520389722175D+04 0.000000000000000D+00 0.000000000000000D+00 -.133520389722175D+04
 0.544721863621893D+03 0.337093749525488D+03 -.403924408137122D+03 -.656489546728001D+02
 0.240482932279915D+03 -.100540312115094D+03 0.218432327884536D+03 -.331730201949710D+01
 0.217835883469200D+03 -.931813260581293D+02 0.184427134767928D+03 0.689662566922972D+02
 0.839847975748845D+03 -.143372111352265D+03 0.106494548465817D+01 -.827519139323642D+03
0.101707660841D-02 0.000000000000D+00 0.000000000000D+00 0.167584089649D-04 0.798966439962D-08  6 -1 2 25 -1 2 21 2 0.11689603D+00 0.13725091D+00 0.31991353D+06 0.31991353D+06 0.31991353D+06 0.10824929D+01  1  2  1  2  6  2        2 0.339590348033D-02 0.100000000000D+01
  </mgrwgt>
  </event>
  <event>
  7     66 0.16841828E-05 0.57580178E+02 0.75467711E-02 0.94738769E-01
       -1 -1    0    0    0  501 0.00000000E+00 0.00000000E+00 0.23974512E+03 0.23974533E+03 0.32000000E+00 0.0000E+00 0.9000E+01
        2 -1    0    0  503    0 0.00000000E+00 0.00000000E+00 -.13095894E+04 0.13095894E+04 0.32000000E+00 0.0000E+00 0.9000E+01
       24  2    1    2    0    0 0.19653907E+03 -.42450501E+03 -.17138441E+03 0.50520748E+03 0.83844378E+02 0.0000E+00 0.0000E+00
       25  1    1    2    0    0 -.16564409E+03 0.44027725E+03 -.76894791E+03 0.91004830E+03 0.12500000E+03 0.0000E+00 0.9000E+01
       -1  1    3    3    0  502 0.12181835E+03 -.22928170E+03 -.53036565E+02 0.26499582E+03 0.32000000E+00 0.0000E+00 0.9000E+01
        2  1    3    3  502    0 0.74720713E+02 -.19522331E+03 -.11834785E+03 0.24021166E+03 0.32000000E+00 0.0000E+00 0.9000E+01
       21  1    1    2  503  501 -.30894980E+02 -.15772245E+02 -.12951193E+03 0.13407896E+03 0.75000000E+00 0.0000E+00 0.9000E+01
#aMCatNLO 2  0  0  2  1 0.16692771D+02 0.00000000D+00  -5  6  0 0.00000000D+00 0.00000000D+00 0.00000000D+00 0.00000000D+00 0.00000000D+00
  <mgrwgt>
 0.1057021361D-02    1    2    0
 0.528564279749942D+03 0.000000000000000D+00 0.000000000000000D+00 0.528564279749942D+03
 0.528564279749942D+03 0.000000000000000D+00 0.000000000000000D+00 -.528564279749942D+03
 0.532629594537831D+03 -.181227240861156D+03 0.432321870386889D+03 -.219826687489415D+03
 0.307454545006824D+03 0.112836362116961D+03 -.233867953964246D+03 0.164626950218183D+03
 0.217044419955228D+03 0.683908787441950D+02 -.198453916422643D+03 0.551997372712321D+02
 0.000000000000000D+00 -.000000000000000D+00 -.000000000000000D+00 -.000000000000000D+00
 0.533932179879979D+03 0.000000000000000D+00 0.000000000000000D+00 0.533932179879979D+03
 0.588024679676628D+03 0.000000000000000D+00 0.000000000000000D+00 -.588024679676628D+03
 0.534070027259645D+03 -.165644085434880D+03 0.440277251791404D+03 -.219826687489415D+03
 0.307428422841591D+03 0.121819037896677D+03 -.229282193897948D+03 0.164626950218183D+03
 0.216199075104912D+03 0.747200276282725D+02 -.195222812582538D+03 0.551997372712321D+02
 0.642593343504581D+02 -.308949800900692D+02 -.157722453109179D+02 -.540924997966486D+02
0.560745701295D-04 0.000000000000D+00 0.000000000000D+00 0.251708580229D-04 0.133678781172D-06  6 -1 2 25 -1 2 21 2 0.36883734D-01 0.20147449D+00 0.24506824D+06 0.24506824D+06 0.24506824D+06 0.10911107D+01  1  2  1  2  6  2        2 0.105702136140D-02 0.100000000000D+01
  </mgrwgt>
  </event>
  <event>
  7     66 0.16841828E-05 0.25848527E+02 0.75467711E-02 0.85615900E-01
       21 -1    0    0  503  501 0.00000000E+00 0.00000000E+00 0.12491447E+04 0.12491450E+04 0.75000000E+00 0.0000E+00 0.9000E+01
        2 -1    0    0  501    0 0.00000000E+00 0.00000000E+00 -.21507837E+04 0.21507838E+04 0.32000000E+00 0.0000E+00 0.9000E+01
       24  2    1    2    0    0 -.64270055E+03 0.10074459E+04 -.10296327E+04 0.15794257E+04 0.80192174E+02 0.0000E+00 0.0000E+00
       25  1    1    2    0    0 0.62191151E+03 -.10106680E+04 -.42532290E+03 0.12667866E+04 0.12500000E+03 0.0000E+00 0.9000E+01
       -1  1    3    3    0  502 -.54722050E+03 0.82697667E+03 -.88606201E+03 0.13298296E+04 0.32000000E+00 0.0000E+00 0.9000E+01
        2  1    3    3  502    0 -.95480045E+02 0.18046920E+03 -.14357070E+03 0.24959611E+03 0.32000000E+00 0.0000E+00 0.9000E+01
        1  1    1    2  503    0 0.20789034E+02 0.32221143E+01 0.55331660E+03 0.55371647E+03 0.32000000E+00 0.0000E+00 0.9000E+01
#aMCatNLO 2  0  0  1  1 0.19936801D+02 0.00000000D+00  -5  6  0 0.00000000D+00 0.00000000D+00 0.00000000D+00 0.00000000D+00 0.00000000D+00
  <mgrwgt>
 0.3101257456D-03    1    2    0
 0.122306846403292D+04 0.000000000000000D+00 0.000000000000000D+00 0.122306846403292D+04
 0.122306846403292D+04 0.000000000000000D+00 0.000000000000000D+00 -.122306846403292D+04
 0.122494779774144D+04 0.632304814137504D+03 -.100905711132786D+04 0.258585527995688D+03
 0.101675273110922D+04 -.538571784460619D+03 0.828328554642376D+03 -.239996572402669D+03
 0.204436399215175D+03 -.937330296768848D+02 0.180728556685487D+03 -.185889555930189D+02
 0.000000000000000D+00 0.000000000000000D+00 0.000000000000000D+00 0.000000000000000D+00
 0.219635412964785D+04 0.000000000000000D+00 0.000000000000000D+00 0.219635412964785D+04
 0.122322737792014D+04 0.000000000000000D+00 0.000000000000000D+00 -.122322737792014D+04
 0.122094847154913D+04 0.621911511941086D+03 -.101066798020147D+04 0.258585527995688D+03
 0.102027640706203D+04 -.547227695049199D+03 0.826986965927228D+03 -.239996572402669D+03
 0.205002510002637D+03 -.954728509309180D+02 0.180458899953604D+03 -.185889555930189D+02
 0.973354118954189D+03 0.207890340390312D+02 0.322211432063276D+01 0.973126751727705D+03
0.423727822898D-03 0.000000000000D+00 0.000000000000D+00 0.128157145668D-03 0.125408576183D-06  6 21 2 25 -1 2 1 2 0.19217613D+00 0.33088982D+00 0.14521388D+07 0.14521388D+07 0.14521388D+07 0.10372469D+01  1  2  1  5  6  1       -1 0.310125745634D-03 0.100000000000D+01
  </mgrwgt>
  </event>
  <event>
  7     66 0.16841828E-05 0.17796757E+02 0.75467711E-02 0.94112057E-01
       21 -1    0    0  503  501 0.00000000E+00 0.00000000E+00 0.21803395E+04 0.21803397E+04 0.75000000E+00 0.0000E+00 0.9000E+01
        2 -1    0    0  501    0 0.00000000E+00 0.00000000E+00 -.49861684E+03 0.49861694E+03 0.32000000E+00 0.0000E+00 0.9000E+01
       24  2    1    2    0    0 -.18005504E+03 0.44846057E+03 0.15559999E+03 0.51412336E+03 0.81084960E+02 0.0000E+00 0.0000E+00
       25  1    1    2    0    0 0.17702107E+03 -.47964129E+03 -.10224560E+03 0.53616358E+03 0.12500000E+03 0.0000E+00 0.9000E+01
       -1  1    3    3    0  502 0.40747824E+01 0.48047237E+02 0.54526105E+01 0.48528077E+02 0.32000000E+00 0.0000E+00 0.9000E+01
        2  1    3    3  502    0 -.18412982E+03 0.40041333E+03 0.15014738E+03 0.46559528E+03 0.32000000E+00 0.0000E+00 0.9000E+01
        1  1    1    2  503    0 0.30339734E+01 0.31180722E+02 0.16283683E+04 0.16286697E+04 0.32000000E+00 0.0000E+00 0.9000E+01
#aMCatNLO 2  0  0  1  1 0.19936801D+02 0.00000000D+00  -5  6  0 0.00000000D+00 0.00000000D+00 0.00000000D+00 0.00000000D+00 0.00000000D+00
  <mgrwgt>
 0.1643019830D-03    1    2    0
 0.524231467440885D+03 0.000000000000000D+00 0.000000000000000D+00 0.524231467440885D+03
 0.524231467440885D+03 0.000000000000000D+00 0.000000000000000D+00 -.524231467440885D+03
 0.528547418475833D+03 0.178569746277535D+03 -.463725235525512D+03 -.129650010523147D+03
 0.497691700750832D+02 0.421958531717852D+01 0.494997909352573D+02 0.298932886772683D+01
 0.470146346330855D+03 -.182789331594714D+03 0.414225444590255D+03 0.126660681655420D+03
 0.000000000000000D+00 0.000000000000000D+00 0.000000000000000D+00 0.000000000000000D+00
 0.207225428802613D+04 0.000000000000000D+00 0.000000000000000D+00 0.207225428802613D+04
 0.524623957877741D+03 0.000000000000000D+00 0.000000000000000D+00 -.524623957877741D+03
 0.542057516732971D+03 0.177021068644301D+03 -.479641290418260D+03 -.129650010523147D+03
 0.483070748673062D+02 0.407771366882462D+01 0.480417489938822D+02 0.298932886772683D+01
 0.458566277543773D+03 -.184132755691686D+03 0.400418819368325D+03 0.126660681655420D+03
 0.154794737675983D+04 0.303397337856068D+01 0.311807220560524D+02 0.154763033014839D+04
0.153324714272D-03 0.000000000000D+00 0.000000000000D+00 0.541140835932D-04 0.118533604286D-06  6 21 2 25 -1 2 1 2 0.33543686D+00 0.76710299D-01 0.27383950D+06 0.27383950D+06 0.27383950D+06 0.10874957D+01  1  2  1  5  6  1       -1 0.164301983020D-03 0.100000000000D+01
  </mgrwgt>
  </event>
  <event>
  7     66 0.16841828E-05 0.20812769E+02 0.75467711E-02 0.94321755E-01
       -1 -1    0    0    0  503 0.00000000E+00 0.00000000E+00 0.13700007E+04 0.13700007E+04 0.32000000E+00 0.0000E+00 0.9000E+01
        2 -1    0    0  501    0 0.00000000E+00 0.00000000E+00 -.20611836E+03 0.20611861E+03 0.32000000E+00 0.0000E+00 0.9000E+01
       24  2    1    2    0    0 -.25107018E+03 -.41429221E+03 0.45490261E+03 0.66934585E+03 0.80082555E+02 0.0000E+00 0.0000E+00
       25  1    1    2    0    0 0.28030726E+03 0.39964100E+03 0.55611993E+03 0.75045284E+03 0.12500000E+03 0.0000E+00 0.9000E+01
       -1  1    3    3    0  502 -.66954804E+02 -.53903236E+02 0.70246058E+02 0.11100953E+03 0.32000000E+00 0.0000E+00 0.9000E+01
        2  1    3    3  502    0 -.18411537E+03 -.36038897E+03 0.38465655E+03 0.55833632E+03 0.32000000E+00 0.0000E+00 0.9000E+01
       21  1    1    2  501  503 -.29237087E+02 0.14651210E+02 0.15285977E+03 0.15632062E+03 0.75000000E+00 0.0000E+00 0.9000E+01
#aMCatNLO 2  0  0  1  1 0.19936801D+02 0.00000000D+00  -5  6  0 0.00000000D+00 0.00000000D+00 0.00000000D+00 0.00000000D+00 0.00000000D+00
  <mgrwgt>
 0.5539539757D-03    1    2    0
 0.498144627577303D+03 0.000000000000000D+00 0.000000000000000D+00 0.498144627577303D+03
 0.498144627577303D+03 0.000000000000000D+00 0.000000000000000D+00 -.498144627577303D+03
 0.502767674740371D+03 0.265526557525444D+03 0.407047865088209D+03 0.309518584200915D+02
 0.880804483999338D+02 -.695191635038540D+02 -.526123599262790D+02 -.125375786755456D+02
 0.405441132014301D+03 -.196007394021590D+03 -.354435505161930D+03 -.184142797445460D+02
 0.000000000000000D+00 -.000000000000000D+00 0.000000000000000D+00 0.000000000000000D+00
 0.561804615785563D+03 0.000000000000000D+00 0.000000000000000D+00 0.561804615785563D+03
 0.502630603901924D+03 0.000000000000000D+00 0.000000000000000D+00 -.502630603901924D+03
 0.504844636067193D+03 0.280307263930600D+03 0.399640997413804D+03 0.309518584200915D+02
 0.868614842195370D+02 -.669529331032681D+02 -.538983423738124D+02 -.125375786755456D+02
 0.405119714632705D+03 -.184117243644008D+03 -.360393865206536D+03 -.184142797445460D+02
 0.676093847680526D+02 -.292370871833235D+02 0.146512101665441D+02 0.591740118836393D+02
0.179689872622D-03 0.000000000000D+00 0.000000000000D+00 0.136772001388D-03 0.815579033822D-06  6 -1 2 25 -1 2 21 2 0.21076849D+00 0.31710408D-01 0.26381089D+06 0.26381089D+06 0.26381089D+06 0.10887066D+01  1  2  1  1  6  1       -1 0.553953975725D-03 0.100000000000D+01
  </mgrwgt>
  </event>
  <event>
  7     66 0.16841828E-05 0.17238222E+02 0.75467711E-02 0.90887522E-01
       21 -1    0    0  503  501 0.00000000E+00 0.00000000E+00 0.10549382E+04 0.10549384E+04 0.75000000E+00 0.0000E+00 0.9000E+01
        2 -1    0    0  501    0 0.00000000E+00 0.00000000E+00 -.53956875E+03 0.53956885E+03 0.32000000E+00 0.0000E+00 0.9000E+01
       24  2    1    2    0    0 0.31557254E+03 0.60474020E+03 0.33173177E+03 0.76287948E+03 0.81500973E+02 0.0000E+00 0.0000E+00
       25  1    1    2    0    0 -.33865091E+03 -.60099906E+03 0.57599773E+02 0.70343944E+03 0.12500000E+03 0.0000E+00 0.9000E+01
       -1  1    3    3    0  502 0.15716170E+02 0.74792450E+02 0.54319028E+02 0.93763361E+02 0.32000000E+00 0.0000E+00 0.9000E+01
        2  1    3    3  502    0 0.29985637E+03 0.52994775E+03 0.27741274E+03 0.66911612E+03 0.32000000E+00 0.0000E+00 0.9000E+01
        1  1    1    2  503    0 0.23078372E+02 -.37411381E+01 0.12603788E+03 0.12818836E+03 0.32000000E+00 0.0000E+00 0.9000E+01
#aMCatNLO 2  0  0  1  5 0.45245037D+02 0.00000000D+00  -5  6  0 0.00000000D+00 0.00000000D+00 0.00000000D+00 0.00000000D+00 0.00000000D+00
  <mgrwgt>
 0.1211759327D-03    1    2    0
 0.706747039378316D+03 0.000000000000000D+00 0.000000000000000D+00 0.706747039378316D+03
 0.706747039378316D+03 0.000000000000000D+00 0.000000000000000D+00 -.706747039378316D+03
 0.709924481566061D+03 -.327029281934873D+03 -.602882991270132D+03 -.133984018155821D+03
 0.823562212552163D+02 0.170557722424570D+02 0.745675655299275D+02 0.305176339776127D+02
 0.621213375935355D+03 0.309973509692416D+03 0.528315425740205D+03 0.103466384178208D+03
 0.000000000000000D+00 0.000000000000000D+00 -.000000000000000D+00 0.000000000000000D+00
 0.803681812024680D+03 0.000000000000000D+00 0.000000000000000D+00 0.803681812024680D+03
 0.708254846582184D+03 0.000000000000000D+00 0.000000000000000D+00 -.708254846582184D+03
 0.713765383328467D+03 -.338650907570376D+03 -.600999058334216D+03 -.133984018155821D+03
 0.822863736674824D+02 0.157117895050430D+02 0.747854329284937D+02 0.305176339776127D+02
 0.617635661802634D+03 0.299860745606284D+03 0.529954763465627D+03 0.103466384178208D+03
 0.982492398082808D+02 0.230783724590493D+02 -.374113805990507D+01 0.954269654424953D+02
0.812754721285D-05 0.000000000000D+00 0.000000000000D+00 0.638899810969D-04 0.145015056589D-07  6 21 2 25 -1 2 1 2 0.16229815D+00 0.83010574D-01 0.49687174D+06 0.49687174D+06 0.49687174D+06 0.10687031D+01  1  2  1  5  6  1       -1 0.121175932722D-03 0.100000000000D+01
  </mgrwgt>
  </event>
  <event>
  7     66 0.16841828E-05 0.49493131E+02 0.75467711E-02 0.90096481E-01
       -1 -1    0    0    0  501 0.00000000E+00 0.00000000E+00 0.59999400E+03 0.59999409E+03 0.32000000E+00 0.0000E+00 0.9000E+01
        2 -1    0    0  503    0 0.00000000E+00 0.00000000E+00 -.10369940E+04 0.10369941E+04 0.32000000E+00 0.0000E+00 0.9000E+01
       24  2    1    2    0    0 0.54632054E+03 0.52130063E+03 -.32167221E+03 0.82469603E+03 0.80187635E+02 0.0000E+00 0.0000E+00
       25  1    1    2    0    0 -.53875375E+03 -.51198201E+03 -.60417068E+02 0.75607962E+03 0.12500000E+03 0.0000E+00 0.9000E+01
       -1  1    3    3    0  502 0.18896368E+03 0.15633150E+03 -.14101462E+03 0.28289934E+03 0.32000000E+00 0.0000E+00 0.9000E+01
        2  1    3    3  502    0 0.35735686E+03 0.36496912E+03 -.18065759E+03 0.54179669E+03 0.32000000E+00 0.0000E+00 0.9000E+01
       21  1    1    2  503  501 -.75667868E+01 -.93186239E+01 -.54910728E+02 0.56212486E+02 0.75000000E+00 0.0000E+00 0.9000E+01
#aMCatNLO 2  0  0  2  5 0.19251397D+01 0.00000000D+00  -5  6  0 0.00000000D+00 0.00000000D+00 0.00000000D+00 0.00000000D+00 0.00000000D+00
  <mgrwgt>
 0.7249494725D-03    1    2    0
 0.766928184437464D+03 0.000000000000000D+00 0.000000000000000D+00 0.766928184437464D+03
 0.766928184437464D+03 0.000000000000000D+00 0.000000000000000D+00 -.766928184437464D+03
 0.769925513062851D+03 -.542537585676906D+03 -.516641862920404D+03 0.126073190136135D+03
 0.254539705188032D+03 0.187700703418273D+03 0.154776110293438D+03 -.748549473042973D+02
 0.509391150624045D+03 0.354836882258633D+03 0.361865752626966D+03 -.512182428318377D+02
 0.000000000000000D+00 -.000000000000000D+00 -.000000000000000D+00 -.000000000000000D+00
 0.767781394312744D+03 0.000000000000000D+00 0.000000000000000D+00 0.767781394312744D+03
 0.810367574094371D+03 0.000000000000000D+00 0.000000000000000D+00 -.810367574094371D+03
 0.764133905604557D+03 -.538753749360075D+03 -.511982005517610D+03 0.126073190136135D+03
 0.256413770705825D+03 0.188960996399609D+03 0.156328182076417D+03 -.748549473042973D+02
 0.513355662675699D+03 0.357359539782844D+03 0.364972447355439D+03 -.512182428318377D+02
 0.442456294210341D+02 -.756678682237773D+01 -.931862391424575D+01 -.425861797816265D+02
0.166164392894D-03 0.000000000000D+00 0.000000000000D+00 0.189807953841D-03 0.796703597657D-05  6 -1 2 25 -1 2 21 2 0.92306398D-01 0.15953689D+00 0.57889593D+06 0.57889593D+06 0.57889593D+06 0.10640422D+01  1  2  1  2  6  2        2 0.724949472487D-03 0.100000000000D+01
  </mgrwgt>
  </event>
  <event>
  7     66 0.16841828E-05 0.45705226E+02 0.75467711E-02 0.95090107E-01
       -1 -1    0    0    0  503 0.00000000E+00 0.00000000E+00 0.68557359E+02 0.68558106E+02 0.32000000E+00 0.0000E+00 0.9000E+01
        2 -1    0    0  501    0 0.00000000E+00 0.00000000E+00 -.43351732E+04 0.43351732E+04 0.32000000E+00 0.0000E+00 0.9000E+01
       24  2    1    2    0    0 0.39112412E+03 0.25823187E+03 -.12447638E+04 0.13323605E+04 0.78010581E+02 0.0000E+00 0.0000E+00
       25  1    1    2    0    0 -.38615313E+03 -.24499318E+03 -.30201201E+04 0.30571042E+04 0.12500000E+03 0.0000E+00 0.9000E+01
       -1  1    3    3    0  502 0.10792522E+03 0.10152298E+03 -.46683499E+03 0.48978544E+03 0.32000000E+00 0.0000E+00 0.9000E+01
        2  1    3    3  502    0 0.28319891E+03 0.15670889E+03 -.77792884E+03 0.84257503E+03 0.32000000E+00 0.0000E+00 0.9000E+01
       21  1    1    2  501  503 -.49709889E+01 -.13238686E+02 -.17318864E+01 0.14266586E+02 0.75000000E+00 0.0000E+00 0.9000E+01
#aMCatNLO 2  0  0  1  5 0.33725662D+01 0.00000000D+00  -5  6  0 0.00000000D+00 0.00000000D+00 0.00000000D+00 0.00000000D+00 0.00000000D+00
  <mgrwgt>
 0.2971239638D-02    1    2    0
 0.519125588060731D+03 0.000000000000000D+00 0.000000000000000D+00 0.519125588060731D+03
 0.519125588060731D+03 0.000000000000000D+00 0.000000000000000D+00 -.519125588060731D+03
 0.523719538692009D+03 -.388648489180272D+03 -.251638783793879D+03 -.210445787689847D+03
 0.151229903230742D+03 0.107193933760095D+03 0.995823551080969D+02 0.382530880758784D+02
 0.363301734198710D+03 0.281454555420177D+03 0.152056428685782D+03 0.172192699613969D+03
 0.000000000000000D+00 -.000000000000000D+00 -.000000000000000D+00 0.000000000000000D+00
 0.571407522760547D+03 0.000000000000000D+00 0.000000000000000D+00 0.571407522760547D+03
 0.520130845587398D+03 0.000000000000000D+00 0.000000000000000D+00 -.520130845587398D+03
 0.518698691244150D+03 -.386153134831194D+03 -.244993181950103D+03 -.210445787689847D+03
 0.153026927570712D+03 0.107922267728337D+03 0.101522046584789D+03 0.382530880758784D+02
 0.366621855906612D+03 0.283201856026361D+03 0.156709821553361D+03 0.172192699613969D+03
 0.531908936264713D+02 -.497098892350441D+01 -.132386861880461D+02 0.512766771731497D+02
0.188411634050D-02 0.000000000000D+00 0.000000000000D+00 0.247777138793D-04 0.793676748624D-06  6 -1 2 25 -1 2 21 2 0.10547291D-01 0.66694639D+00 0.23043255D+06 0.23043255D+06 0.23043255D+06 0.10931320D+01  1  2  1  1  6  1       -1 0.297123963835D-02 0.100000000000D+01
  </mgrwgt>
  </event>
  <event>
  7     66 0.16841828E-05 0.58231862E+02 0.75467711E-02 0.92216980E-01
       -1 -1    0    0    0  503 0.00000000E+00 0.00000000E+00 0.50025971E+03 0.50025981E+03 0.32000000E+00 0.0000E+00 0.9000E+01
        2 -1    0    0  501    0 0.00000000E+00 0.00000000E+00 -.17409620E+04 0.17409621E+04 0.32000000E+00 0.0000E+00 0.9000E+01
       24  2    1    2    0    0 0.46051599E+03 -.38781988E+03 -.12405084E+04 0.13812795E+04 0.81196484E+02 0.0000E+00 0.0000E+00
       25  1    1    2    0    0 -.43933121E+03 0.40392822E+03 -.21269363E+03 0.64578131E+03 0.12500000E+03 0.0000E+00 0.9000E+01
       -1  1    3    3    0  502 0.22547582E+03 -.13839510E+03 -.55942312E+03 0.61882702E+03 0.32000000E+00 0.0000E+00 0.9000E+01
        2  1    3    3  502    0 0.23504017E+03 -.24942478E+03 -.68108526E+03 0.76245251E+03 0.32000000E+00 0.0000E+00 0.9000E+01
       21  1    1    2  501  503 -.21184773E+02 -.16108340E+02 0.21249968E+03 0.21416104E+03 0.75000000E+00 0.0000E+00 0.9000E+01
#aMCatNLO 2  0  0  1  4 0.22711437D+02 0.00000000D+00  -5  6  0 0.00000000D+00 0.00000000D+00 0.00000000D+00 0.00000000D+00 0.00000000D+00
  <mgrwgt>
 0.2225518193D-02    1    2    0
 0.706482714355561D+03 0.000000000000000D+00 0.000000000000000D+00 0.706482714355561D+03
 0.706482714355561D+03 0.000000000000000D+00 0.000000000000000D+00 -.706482714355561D+03
 0.709678875717004D+03 -.449954778681961D+03 0.395850340972405D+03 0.358973970271174D+03
 0.310620533895904D+03 0.220805812590018D+03 -.141944215148465D+03 -.166077539089802D+03
 0.392666019098213D+03 0.229148966091942D+03 -.253906125823940D+03 -.192896431181372D+03
 0.000000000000000D+00 -.000000000000000D+00 -.000000000000000D+00 0.000000000000000D+00
 0.123196652348447D+04 0.000000000000000D+00 0.000000000000000D+00 0.123196652348447D+04
 0.706945062839002D+03 0.000000000000000D+00 0.000000000000000D+00 -.706945062839002D+03
 0.707571361832888D+03 -.439331213157526D+03 0.403928218746023D+03 0.358973970271174D+03
 0.312367979559727D+03 0.225475671954521D+03 -.138393377806739D+03 -.166077539089802D+03
 0.393276698686180D+03 0.235040313815594D+03 -.249426501094928D+03 -.192896431181372D+03
 0.525695546244676D+03 -.211847726125899D+02 -.161083398443568D+02 0.525021460645467D+03
0.838057774219D-03 0.000000000000D+00 0.000000000000D+00 0.124887092875D-03 0.125595388820D-05  6 -1 2 25 -1 2 21 2 0.76963013D-01 0.26784022D+00 0.38666265D+06 0.38666265D+06 0.38666265D+06 0.10764909D+01  1  2  1  1  6  1       -1 0.222551819315D-02 0.100000000000D+01
  </mgrwgt>
  </event>
  <event>
  7     66 0.16841828E-05 0.22019489E+02 0.75467711E-02 0.94497275E-01
       -1 -1    0    0    0  501 0.00000000E+00 0.00000000E+00 0.20638439E+03 0.20638464E+03 0.32000000E+00 0.0000E+00 0.9000E+01
        2 -1    0    0  503    0 0.00000000E+00 0.00000000E+00 -.13927556E+04 0.13927556E+04 0.32000000E+00 0.0000E+00 0.9000E+01
       24  2    1    2    0    0 -.38207548E+03 0.30635990E+03 -.80095364E+03 0.94216142E+03 0.79393581E+02 0.0000E+00 0.0000E+00
       25  1    1    2    0    0 0.37999165E+03 -.31648588E+03 -.34633905E+03 0.61654902E+03 0.12500000E+03 0.0000E+00 0.9000E+01
       -1  1    3    3    0  502 -.33552096E+03 0.28280027E+03 -.75172787E+03 0.87042817E+03 0.32000000E+00 0.0000E+00 0.9000E+01
        2  1    3    3  502    0 -.46554528E+02 0.23559638E+02 -.49225772E+02 0.71733253E+02 0.32000000E+00 0.0000E+00 0.9000E+01
       21  1    1    2  503  501 0.20838377E+01 0.10125972E+02 -.39078528E+02 0.40429835E+02 0.75000000E+00 0.0000E+00 0.9000E+01
#aMCatNLO 2  0  0  2  5 0.19251397D+01 0.00000000D+00  -5  6  0 0.00000000D+00 0.00000000D+00 0.00000000D+00 0.00000000D+00 0.00000000D+00
  <mgrwgt>
 0.4272088615D-03    1    2    0
 0.527539300730263D+03 0.000000000000000D+00 0.000000000000000D+00 0.527539300730263D+03
 0.527539300730263D+03 0.000000000000000D+00 0.000000000000000D+00 -.527539300730263D+03
 0.531956819645563D+03 0.381044498429046D+03 -.311369764878413D+03 0.158767180814994D+03
 0.470548077405687D+03 -.334598364021164D+03 0.287310437206651D+03 -.164049201816625D+03
 0.525737044092764D+02 -.464461344078825D+02 0.240593276717617D+02 0.528202100163151D+01
 0.000000000000000D+00 0.000000000000000D+00 0.000000000000000D+00 -.000000000000000D+00
 0.529289274847372D+03 0.000000000000000D+00 0.000000000000000D+00 0.529289274847372D+03
 0.543057286960474D+03 0.000000000000000D+00 0.000000000000000D+00 -.543057286960474D+03
 0.534218100596721D+03 0.379991646920547D+03 -.316485875785694D+03 0.158767180814994D+03
 0.468474093100620D+03 -.335525651739118D+03 0.282804477183118D+03 -.164049201816625D+03
 0.524370557070867D+02 -.465498329052848D+02 0.235554265904166D+02 0.528202100163151D+01
 0.172173124034184D+02 0.208383772385537D+01 0.101259720121592D+02 -.137680121131016D+02
0.195907262359D-04 0.000000000000D+00 0.000000000000D+00 0.307027227074D-04 0.181961574066D-05  6 -1 2 25 -1 2 21 2 0.31750978D-01 0.21426682D+00 0.25573285D+06 0.25573285D+06 0.25573285D+06 0.10897191D+01  1  2  1  2  6  2        2 0.427208861483D-03 0.100000000000D+01
  </mgrwgt>
  </event>
  <event>
  7     66 0.16841828E-05 0.16043954E+03 0.75467711E-02 0.90315464E-01
       -1 -1    0    0    0  501 0.00000000E+00 0.00000000E+00 0.71534782E+03 0.71534789E+03 0.32000000E+00 0.0000E+00 0.9000E+01
        2 -1    0    0  503    0 0.00000000E+00 0.00000000E+00 -.14880012E+04 0.14880013E+04 0.32000000E+00 0.0000E+00 0.9000E+01
       24  2    1    2    0    0 0.61215942E+03 -.31336021E+03 -.89936453E+03 0.11349678E+04 0.79760166E+02 0.0000E+00 0.0000E+00
       25  1    1    2    0    0 -.44819204E+03 0.40217664E+03 0.40282332E+03 0.73519643E+03 0.12500000E+03 0.0000E+00 0.9000E+01
       -1  1    3    3    0  502 0.43407295E+03 -.20924429E+03 -.68452055E+03 0.83712065E+03 0.32000000E+00 0.0000E+00 0.9000E+01
        2  1    3    3  502    0 0.17808646E+03 -.10411592E+03 -.21484398E+03 0.29784719E+03 0.32000000E+00 0.0000E+00 0.9000E+01
       21  1    1    2  503  501 -.16396737E+03 -.88816432E+02 -.27611221E+03 0.33318489E+03 0.75000000E+00 0.0000E+00 0.9000E+01
#aMCatNLO 2  0  0  2  5 0.19251397D+01 0.00000000D+00  -5  6  0 0.00000000D+00 0.00000000D+00 0.00000000D+00 0.00000000D+00 0.00000000D+00
  <mgrwgt>
 0.6203154040D-03    1    2    0
 0.896686621548493D+03 0.000000000000000D+00 0.000000000000000D+00 0.896686621548493D+03
 0.896686621548493D+03 0.000000000000000D+00 0.000000000000000D+00 -.896686621548493D+03
 0.899269272975446D+03 -.529015918801286D+03 0.358396661670317D+03 0.620285592188139D+03
 0.654120925471225D+03 0.373261985738016D+03 -.242187777331766D+03 -.479473414959937D+03
 0.239983044650314D+03 0.155753933063270D+03 -.116208884338551D+03 -.140812177228202D+03
 0.000000000000000D+00 -.000000000000000D+00 -.000000000000000D+00 -.000000000000000D+00
 0.938977915351764D+03 0.000000000000000D+00 0.000000000000000D+00 0.938977915351764D+03
 0.113361283246741D+04 0.000000000000000D+00 0.000000000000000D+00 -.113361283246741D+04
 0.873499498477152D+03 -.448192042565376D+03 0.402176641470787D+03 0.620285592188139D+03
 0.679780510463934D+03 0.434077071329007D+03 -.209245986579661D+03 -.479473414959937D+03
 0.249762211020927D+03 0.178082344173007D+03 -.104114223294237D+03 -.140812177228202D+03
 0.269548527857157D+03 -.163967372936638D+03 -.888164315968894D+02 -.194634917115642D+03
0.385757477651D-03 0.000000000000D+00 0.000000000000D+00 0.682028596609D-04 0.125665876890D-07  6 -1 2 25 -1 2 21 2 0.11005346D+00 0.22892315D+00 0.55476978D+06 0.55476978D+06 0.55476978D+06 0.10653345D+01  1  2  1  2  6  2        2 0.620315404009D-03 0.100000000000D+01
  </mgrwgt>
  </event>
  <event>
  7     66 0.16841828E-05 0.64015995E+02 0.75467711E-02 0.88636993E-01
       -1 -1    0    0    0  501 0.00000000E+00 0.00000000E+00 0.55499534E+03 0.55499543E+03 0.32000000E+00 0.0000E+00 0.9000E+01
        2 -1    0    0  503    0 0.00000000E+00 0.00000000E+00 -.19409592E+04 0.19409592E+04 0.32000000E+00 0.0000E+00 0.9000E+01
       24  2    1    2    0    0 -.75698499E+03 -.39352486E+03 -.49316311E+03 0.98888321E+03 0.82413994E+02 0.0000E+00 0.0000E+00
       25  1    1    2    0    0 0.76603509E+03 0.41370674E+03 -.32320047E+03 0.93704139E+03 0.12500000E+03 0.0000E+00 0.9000E+01
       -1  1    3    3    0  502 -.32446276E+03 -.21277645E+03 -.20915491E+03 0.44078995E+03 0.32000000E+00 0.0000E+00 0.9000E+01
        2  1    3    3  502    0 -.43252223E+03 -.18074841E+03 -.28400820E+03 0.54809326E+03 0.32000000E+00 0.0000E+00 0.9000E+01
       21  1    1    2  503  501 -.90500951E+01 -.20181881E+02 -.56960028E+03 0.57003005E+03 0.75000000E+00 0.0000E+00 0.9000E+01
#aMCatNLO 2  0  0  2  5 0.19251397D+01 0.00000000D+00  -5  6  0 0.00000000D+00 0.00000000D+00 0.00000000D+00 0.00000000D+00 0.00000000D+00
  <mgrwgt>
 0.3761761794D-02    1    2    0
 0.872101895719894D+03 0.000000000000000D+00 0.000000000000000D+00 0.872101895719894D+03
 0.872101895719894D+03 0.000000000000000D+00 0.000000000000000D+00 -.872101895719894D+03
 0.874633977582649D+03 0.761474537063208D+03 0.403536632192421D+03 0.816964541777500D+02
 0.392964519783028D+03 -.326489178024499D+03 -.217299509101578D+03 -.246344024771420D+02
 0.476605294074112D+03 -.434985359038709D+03 -.186237123090843D+03 -.570620517006080D+02
 0.000000000000000D+00 -.000000000000000D+00 -.000000000000000D+00 -.000000000000000D+00
 0.872509443813210D+03 0.000000000000000D+00 0.000000000000000D+00 0.872509443813210D+03
 0.123462559359968D+04 0.000000000000000D+00 0.000000000000000D+00 -.123462559359968D+04
 0.883324589632849D+03 0.766035085778059D+03 0.413706740798148D+03 0.816964541777500D+02
 0.388787734935413D+03 -.324461132934543D+03 -.212776930764677D+03 -.246344024771420D+02
 0.472231700733362D+03 -.432523857716680D+03 -.180747929280315D+03 -.570620517006080D+02
 0.362791012111261D+03 -.905009512683569D+01 -.201818807531556D+02 -.362116149786466D+03
0.245635303055D-02 0.000000000000D+00 0.000000000000D+00 0.614165222707D-04 0.790376432285D-06  6 -1 2 25 -1 2 21 2 0.85383869D-01 0.29860898D+00 0.77302312D+06 0.77302312D+06 0.77302312D+06 0.10553887D+01  1  2  1  2  6  2        2 0.376176179383D-02 0.100000000000D+01
  </mgrwgt>
  </event>
  <event>
  7     66 0.16841828E-05 0.70368228E+02 0.75467711E-02 0.89494964E-01
       -1 -1    0    0    0  501 0.00000000E+00 0.00000000E+00 0.61775348E+03 0.61775356E+03 0.32000000E+00 0.0000E+00 0.9000E+01
        2 -1    0    0  503    0 0.00000000E+00 0.00000000E+00 -.10942178E+04 0.10942179E+04 0.32000000E+00 0.0000E+00 0.9000E+01
       24  2    1    2    0    0 -.62121732E+03 -.49931430E+03 -.36513239E+03 0.88042937E+03 0.81292541E+02 0.0000E+00 0.0000E+00
       25  1    1    2    0    0 0.60734620E+03 0.50380588E+03 -.87674245E+02 0.80374221E+03 0.12500000E+03 0.0000E+00 0.9000E+01
       -1  1    3    3    0  502 -.31981740E+03 -.20800431E+03 -.18899425E+03 0.42575567E+03 0.32000000E+00 0.0000E+00 0.9000E+01
        2  1    3    3  502    0 -.30139992E+03 -.29130999E+03 -.17613814E+03 0.45467370E+03 0.32000000E+00 0.0000E+00 0.9000E+01
       21  1    1    2  503  501 0.13871126E+02 -.44915783E+01 -.23657731E+02 0.27799877E+02 0.75000000E+00 0.0000E+00 0.9000E+01
#aMCatNLO 2  0  0  2  1 0.58734084D+02 0.00000000D+00  -5  6  0 0.00000000D+00 0.00000000D+00 0.00000000D+00 0.00000000D+00 0.00000000D+00
  <mgrwgt>
 0.6911135248D-02    1    2    0
 0.811046772476027D+03 0.000000000000000D+00 0.000000000000000D+00 0.811046772476027D+03
 0.811046772476027D+03 0.000000000000000D+00 0.000000000000000D+00 -.811046772476027D+03
 0.813826058195139D+03 0.614289003803524D+03 0.501557743729309D+03 0.133329301013231D+03
 0.387132379905649D+03 -.316498077306663D+03 -.209077933045511D+03 -.773748314764809D+02
 0.421135106851267D+03 -.297790926496860D+03 -.292479810683798D+03 -.559544695367501D+02
 0.000000000000000D+00 0.000000000000000D+00 -.000000000000000D+00 -.000000000000000D+00
 0.813801594163958D+03 0.000000000000000D+00 0.000000000000000D+00 0.813801594163958D+03
 0.830603583060445D+03 0.000000000000000D+00 0.000000000000000D+00 -.830603583060445D+03
 0.809994733026367D+03 0.607346195728868D+03 0.503805878841693D+03 0.133329301013231D+03
 0.389275574472489D+03 -.319817687108449D+03 -.208003017640309D+03 -.773748314764809D+02
 0.422888763306182D+03 -.301399634903977D+03 -.291311282907550D+03 -.559544695367501D+02
 0.222461064193655D+02 0.138711262835580D+02 -.449157829383456D+01 -.168019888964870D+02
0.185342343980D-02 0.000000000000D+00 0.000000000000D+00 0.150597189314D-03 0.425055496604D-05  6 -1 2 25 -1 2 21 2 0.95038270D-01 0.16833991D+00 0.65141460D+06 0.65141460D+06 0.65141460D+06 0.10604843D+01  1  2  1  2  6  2        2 0.691113524836D-02 0.100000000000D+01
  </mgrwgt>
  </event>
  <event>
  7     66 0.16841828E-05 0.35983670E+02 0.75467711E-02 0.94901617E-01
       -1 -1    0    0    0  501 0.00000000E+00 0.00000000E+00 0.45141420E+03 0.45141431E+03 0.32000000E+00 0.0000E+00 0.9000E+01
        2 -1    0    0  503    0 0.00000000E+00 0.00000000E+00 -.53976427E+03 0.53976437E+03 0.32000000E+00 0.0000E+00 0.9000E+01
       24  2    1    2    0    0 -.36581786E+03 -.30127766E+03 -.70178142E+01 0.48130692E+03 0.83762582E+02 0.0000E+00 0.0000E+00
       25  1    1    2    0    0 0.36608803E+03 0.28826246E+03 -.61782118E+02 0.48637200E+03 0.12500000E+03 0.0000E+00 0.9000E+01
       -1  1    3    3    0  502 -.91250805E+02 -.33933004E+02 -.11683550E+02 0.98054913E+02 0.32000000E+00 0.0000E+00 0.9000E+01
        2  1    3    3  502    0 -.27456705E+03 -.26734465E+03 0.46657362E+01 0.38325201E+03 0.32000000E+00 0.0000E+00 0.9000E+01
       21  1    1    2  503  501 -.27016885E+00 0.13015192E+02 -.19550142E+02 0.23499761E+02 0.75000000E+00 0.0000E+00 0.9000E+01
#aMCatNLO 2  0  0  2  1 0.58734084D+02 0.00000000D+00  -5  6  0 0.00000000D+00 0.00000000D+00 0.00000000D+00 0.00000000D+00 0.00000000D+00
  <mgrwgt>
 0.2281379696D-02    1    2    0
 0.482571133099341D+03 0.000000000000000D+00 0.000000000000000D+00 0.482571133099341D+03
 0.482571133099341D+03 0.000000000000000D+00 0.000000000000000D+00 -.482571133099341D+03
 0.487031009549483D+03 0.365952237347228D+03 0.294804089088304D+03 -.272711074245558D+02
 0.970435710226551D+02 -.912753515559202D+02 -.326181478340764D+02 -.472454305162112D+01
 0.381067685626543D+03 -.274676885791308D+03 -.262185941254228D+03 0.319956504761769D+02
 0.000000000000000D+00 -.000000000000000D+00 0.000000000000000D+00 -.000000000000000D+00
 0.484729285258127D+03 0.000000000000000D+00 0.000000000000000D+00 0.484729285258127D+03
 0.502653771422132D+03 0.000000000000000D+00 0.000000000000000D+00 -.502653771422132D+03
 0.483202241171654D+03 0.366088028149491D+03 0.288262464116932D+03 -.272711074245558D+02
 0.974667119436766D+02 -.912481285068722D+02 -.339295987901177D+02 -.472454305162112D+01
 0.384561103508672D+03 -.274569730787668D+03 -.267348057067189D+03 0.319956504761769D+02
 0.221530000562568D+02 -.270168854950807D+00 0.130151917403749D+02 -.179244861640050D+02
0.116474472941D-03 0.000000000000D+00 0.000000000000D+00 0.133655516384D-04 0.502127350134D-06  6 -1 2 25 -1 2 21 2 0.69447448D-01 0.83039590D-01 0.23815862D+06 0.23815862D+06 0.23815862D+06 0.10920480D+01  1  2  1  2  6  2        2 0.228137969555D-02 0.100000000000D+01
  </mgrwgt>
  </event>
  <event>
  7     66 0.16841828E-05 0.26365368E+02 0.75467711E-02 0.94516203E-01
       -1 -1    0    0    0  503 0.00000000E+00 0.00000000E+00 0.26422079E+03 0.26422098E+03 0.32000000E+00 0.0000E+00 0.9000E+01
        2 -1    0    0  501    0 0.00000000E+00 0.00000000E+00 -.12357142E+04 0.12357142E+04 0.32000000E+00 0.0000E+00 0.9000E+01
       24  2    1    2    0    0 -.31382899E+03 0.36537280E+03 -.70064147E+03 0.85439906E+03 0.84340722E+02 0.0000E+00 0.0000E+00
       25  1    1    2    0    0 0.31879760E+03 -.37764486E+03 -.31512938E+03 0.59931550E+03 0.12500000E+03 0.0000E+00 0.9000E+01
       -1  1    3    3    0  502 -.21198768E+02 0.60494755E+02 -.66636087E+02 0.92463363E+02 0.32000000E+00 0.0000E+00 0.9000E+01
        2  1    3    3  502    0 -.29263023E+03 0.30487805E+03 -.63400538E+03 0.76193569E+03 0.32000000E+00 0.0000E+00 0.9000E+01
       21  1    1    2  501  503 -.49686097E+01 0.12272055E+02 0.44277467E+02 0.46220634E+02 0.75000000E+00 0.0000E+00 0.9000E+01
#aMCatNLO 2  0  0  1  1 0.95790247D+02 0.00000000D+00  -5  6  0 0.00000000D+00 0.00000000D+00 0.00000000D+00 0.00000000D+00 0.00000000D+00
  <mgrwgt>
 0.3305914139D-03    1    2    0
 0.519932765281827D+03 0.000000000000000D+00 0.000000000000000D+00 0.519932765281827D+03
 0.519932765281827D+03 0.000000000000000D+00 0.000000000000000D+00 -.519932765281827D+03
 0.524025430652655D+03 0.316279662570587D+03 -.371425746894391D+03 0.144871465647587D+03
 0.649798342591668D+02 -.215033704995859D+02 0.612532287229731D+02 -.283299991483419D+01
 0.450860265651833D+03 -.294776292071001D+03 0.310172518171418D+03 -.142038465732753D+03
 0.000000000000000D+00 -.000000000000000D+00 0.000000000000000D+00 0.000000000000000D+00
 0.627422626194066D+03 0.000000000000000D+00 0.000000000000000D+00 0.627422626194066D+03
 0.520382756611731D+03 0.000000000000000D+00 0.000000000000000D+00 -.520382756611731D+03
 0.529962537833429D+03 0.318797604799761D+03 -.377644855812845D+03 0.144871465647587D+03
 0.641594702787777D+02 -.211948609927751D+02 0.604912357737288D+02 -.283299991483419D+01
 0.445827804170610D+03 -.292634134072134D+03 0.304881565201515D+03 -.142038465732753D+03
 0.107855570522981D+03 -.496860973485140D+01 0.122720548376010D+02 0.107039869582335D+03
0.189298359452D-04 0.000000000000D+00 0.000000000000D+00 0.965996681753D-05 0.355078973367D-06  6 -1 2 25 -1 2 21 2 0.40649269D-01 0.19010941D+00 0.25487844D+06 0.25487844D+06 0.25487844D+06 0.10898283D+01  1  2  1  1  6  1       -1 0.330591413918D-03 0.100000000000D+01
  </mgrwgt>
  </event>
  <event>
  7     66 0.16841828E-05 0.49655873E+02 0.75467711E-02 0.95042494E-01
       -1 -1    0    0    0  501 0.00000000E+00 0.00000000E+00 0.16928064E+03 0.16928094E+03 0.32000000E+00 0.0000E+00 0.9000E+01
        2 -1    0    0  503    0 0.00000000E+00 0.00000000E+00 -.18416897E+04 0.18416897E+04 0.32000000E+00 0.0000E+00 0.9000E+01
       24  2    1    2    0    0 -.23494284E+03 0.38426774E+03 -.30189150E+03 0.54824450E+03 0.81078490E+02 0.0000E+00 0.0000E+00
       25  1    1    2    0    0 0.25593276E+03 -.39526961E+03 -.12974616E+04 0.13859189E+04 0.12500000E+03 0.0000E+00 0.9000E+01
       -1  1    3    3    0  502 -.16991785E+03 0.23174016E+03 -.22748899E+03 0.36650637E+03 0.32000000E+00 0.0000E+00 0.9000E+01
        2  1    3    3  502    0 -.65024996E+02 0.15252758E+03 -.74402504E+02 0.18173813E+03 0.32000000E+00 0.0000E+00 0.9000E+01
       21  1    1    2  503  501 -.20989921E+02 0.11001875E+02 -.73055999E+02 0.76807288E+02 0.75000000E+00 0.0000E+00 0.9000E+01
#aMCatNLO 2  0  0  2  1 0.58734084D+02 0.00000000D+00  -5  6  0 0.00000000D+00 0.00000000D+00 0.00000000D+00 0.00000000D+00 0.00000000D+00
  <mgrwgt>
 0.3018485494D-02    1    2    0
 0.543713200249140D+03 0.000000000000000D+00 0.000000000000000D+00 0.543713200249140D+03
 0.543713200249140D+03 0.000000000000000D+00 0.000000000000000D+00 -.543713200249140D+03
 0.547874989295922D+03 0.245273736959026D+03 -.389682682193391D+03 -.269314323890738D+03
 0.322933056773586D+03 -.176097113959217D+03 0.234979406159954D+03 0.134388408328554D+03
 0.216618354428773D+03 -.691766229998090D+02 0.154703276033437D+03 0.134925915562184D+03
 0.000000000000000D+00 -.000000000000000D+00 0.000000000000000D+00 -.000000000000000D+00
 0.549930838557065D+03 0.000000000000000D+00 0.000000000000000D+00 0.549930838557065D+03
 0.566902767600122D+03 0.000000000000000D+00 0.000000000000000D+00 -.566902767600122D+03
 0.556682002742519D+03 0.255932762656683D+03 -.395269614470445D+03 -.269314323890738D+03
 0.317233271859846D+03 -.169919479489596D+03 0.231741396758986D+03 0.134388408328554D+03
 0.213769327908303D+03 -.650233621005958D+02 0.152526342791036D+03 0.134925915562184D+03
 0.291490036465187D+02 -.209899210664917D+02 0.110018749204235D+02 -.169719290430571D+02
0.172944229107D-03 0.000000000000D+00 0.000000000000D+00 0.104286648634D-03 0.118470990226D-05  6 -1 2 25 -1 2 21 2 0.26042974D-01 0.28333444D+00 0.23235727D+06 0.23235727D+06 0.23235727D+06 0.10928583D+01  1  2  1  2  6  2        2 0.301848549424D-02 0.100000000000D+01
  </mgrwgt>
  </event>
  <event>
  7     66 0.16841828E-05 0.47600067E+02 0.75467711E-02 0.94041765E-01
       -1 -1    0    0    0  501 0.00000000E+00 0.00000000E+00 0.55184286E+03 0.55184296E+03 0.32000000E+00 0.0000E+00 0.9000E+01
        2 -1    0    0  503    0 0.00000000E+00 0.00000000E+00 -.15044051E+04 0.15044052E+04 0.32000000E+00 0.0000E+00 0.9000E+01
       24  2    1    2    0    0 0.27845126E+03 -.43482993E+03 0.18682252E+03 0.55505172E+03 0.81040629E+02 0.0000E+00 0.0000E+00
       25  1    1    2    0    0 -.24220952E+03 0.38804446E+03 -.13221663E+03 0.49229076E+03 0.12500000E+03 0.0000E+00 0.9000E+01
       -1  1    3    3    0  502 0.17128157E+03 -.21211302E+03 0.12695503E+03 0.30074406E+03 0.32000000E+00 0.0000E+00 0.9000E+01
        2  1    3    3  502    0 0.10716970E+03 -.22271691E+03 0.59867484E+02 0.25430766E+03 0.32000000E+00 0.0000E+00 0.9000E+01
       21  1    1    2  503  501 -.36241745E+02 0.46785474E+02 -.10071682E+04 0.10089056E+04 0.75000000E+00 0.0000E+00 0.9000E+01
#aMCatNLO 2  0  0  2  1 0.58734084D+02 0.00000000D+00  -5  6  0 0.00000000D+00 0.00000000D+00 0.00000000D+00 0.00000000D+00 0.00000000D+00
  <mgrwgt>
 0.3945462853D-02    1    2    0
 0.522121184341520D+03 0.000000000000000D+00 0.000000000000000D+00 0.522121184341520D+03
 0.522121184341520D+03 0.000000000000000D+00 0.000000000000000D+00 -.522121184341520D+03
 0.526458020712753D+03 -.260005138815532D+03 0.411017322255345D+03 -.158098501474083D+03
 0.279550870474950D+03 0.161328518249312D+03 -.199262901201616D+03 0.111427530653329D+03
 0.238233477495337D+03 0.986766205662206D+02 -.211754421053729D+03 0.466709708207540D+02
 0.000000000000000D+00 -.000000000000000D+00 0.000000000000000D+00 -.000000000000000D+00
 0.523783441459129D+03 0.000000000000000D+00 0.000000000000000D+00 0.523783441459129D+03
 0.158499655270722D+04 0.000000000000000D+00 0.000000000000000D+00 -.158499655270722D+04
 0.499864071191017D+03 -.242209517192570D+03 0.388044460443193D+03 -.158098501474083D+03
 0.294526188204213D+03 0.171282565033715D+03 -.212112856437501D+03 0.111427530653329D+03
 0.251527743684082D+03 0.107168696734572D+03 -.222717077849156D+03 0.466709708207540D+02
 0.106286199108704D+04 -.362417445757173D+02 0.467854738434636D+02 -.106121311124809D+04
0.129877224780D-02 0.000000000000D+00 0.000000000000D+00 0.234643937712D-03 0.691970951380D-06  6 -1 2 25 -1 2 21 2 0.84898891D-01 0.23144689D+00 0.27729626D+06 0.27729626D+06 0.27729626D+06 0.10870895D+01  1  2  1  2  6  2        2 0.394546285271D-02 0.100000000000D+01
  </mgrwgt>
  </event>
  <event>
  7     66 0.16841828E-05 0.62663637E+02 0.75467711E-02 0.94238286E-01
       -1 -1    0    0    0  503 0.00000000E+00 0.00000000E+00 0.23850586E+03 0.23850607E+03 0.32000000E+00 0.0000E+00 0.9000E+01
        2 -1    0    0  501    0 0.00000000E+00 0.00000000E+00 -.12265202E+04 0.12265203E+04 0.32000000E+00 0.0000E+00 0.9000E+01
       24  2    1    2    0    0 -.22601085E+03 -.44374059E+03 -.32009886E+03 0.59779581E+03 0.83126009E+02 0.0000E+00 0.0000E+00
       25  1    1    2    0    0 0.21788207E+03 0.45321299E+03 -.67643917E+03 0.85209716E+03 0.12500000E+03 0.0000E+00 0.9000E+01
       -1  1    3    3    0  502 -.16956772E+03 -.24726546E+03 -.17561722E+03 0.34746932E+03 0.32000000E+00 0.0000E+00 0.9000E+01
        2  1    3    3  502    0 -.56443130E+02 -.19647512E+03 -.14448164E+03 0.25032648E+03 0.32000000E+00 0.0000E+00 0.9000E+01
       21  1    1    2  501  503 0.81287759E+01 -.94724046E+01 0.85236716E+01 0.15133371E+02 0.75000000E+00 0.0000E+00 0.9000E+01
#aMCatNLO 2  0  0  1  1 0.37612185D+03 0.00000000D+00  -5  6  0 0.00000000D+00 0.00000000D+00 0.00000000D+00 0.00000000D+00 0.00000000D+00
  <mgrwgt>
 0.4261522883D-02    1    2    0
 0.526532464864515D+03 0.000000000000000D+00 0.000000000000000D+00 0.526532464864515D+03
 0.526532464864515D+03 0.000000000000000D+00 0.000000000000000D+00 -.526532464864515D+03
 0.530670418171205D+03 0.221987355176202D+03 0.448429132845761D+03 -.124976076426950D+03
 0.313133140355541D+03 -.167155969845138D+03 -.250078561065996D+03 0.870170019548760D+02
 0.209261371202284D+03 -.548313853310636D+02 -.198350571779766D+03 0.379590744720738D+02
 0.000000000000000D+00 0.000000000000000D+00 -.000000000000000D+00 0.000000000000000D+00
 0.554041892363545D+03 0.000000000000000D+00 0.000000000000000D+00 0.554041892363545D+03
 0.527987267488349D+03 0.000000000000000D+00 0.000000000000000D+00 -.527987267488349D+03
 0.533027796372623D+03 0.217882071426446D+03 0.453212990742433D+03 -.124976076426950D+03
 0.312195963277460D+03 -.169569392536174D+03 -.247266216803750D+03 0.870170019548760D+02
 0.207915143662637D+03 -.564414547509784D+02 -.196474369359140D+03 0.379590744720738D+02
 0.288902565391745D+02 0.812877586070712D+01 -.947240457954299D+01 0.260546248751954D+02
0.202572489501D-03 0.000000000000D+00 0.000000000000D+00 0.351273407601D-04 0.142587662322D-05  6 -1 2 25 -1 2 21 2 0.36692891D-01 0.18869370D+00 0.26775252D+06 0.26775252D+06 0.26775252D+06 0.10882248D+01  1  2  1  1  6  1       -1 0.426152288300D-02 0.100000000000D+01
  </mgrwgt>
  </event>
  <event>
  7     66 0.16841828E-05 0.43078616E+02 0.75467711E-02 0.93204958E-01
       21 -1    0    0  503  501 0.00000000E+00 0.00000000E+00 0.50389184E+03 0.50389240E+03 0.75000000E+00 0.0000E+00 0.9000E+01
        2 -1    0    0  501    0 0.00000000E+00 0.00000000E+00 -.93258298E+03 0.93258304E+03 0.32000000E+00 0.0000E+00 0.9000E+01
       24  2    1    2    0    0 0.26879727E+03 0.46307491E+03 0.16863467E+03 0.56724006E+03 0.81445052E+02 0.0000E+00 0.0000E+00
       25  1    1    2    0    0 -.31281558E+03 -.41810948E+03 -.60135962E+03 0.80618083E+03 0.12500000E+03 0.0000E+00 0.9000E+01
       -1  1    3    3    0  502 0.20999810E+03 0.37761874E+03 0.10202683E+03 0.44396474E+03 0.32000000E+00 0.0000E+00 0.9000E+01
        2  1    3    3  502    0 0.58799168E+02 0.85456166E+02 0.66607834E+02 0.12327532E+03 0.32000000E+00 0.0000E+00 0.9000E+01
        1  1    1    2  503    0 0.44018318E+02 -.44965429E+02 0.40338141E+01 0.63054549E+02 0.32000000E+00 0.0000E+00 0.9000E+01
#aMCatNLO 2  0  0  1  1 0.37612185D+03 0.00000000D+00  -5  6  0 0.00000000D+00 0.00000000D+00 0.00000000D+00 0.00000000D+00 0.00000000D+00
  <mgrwgt>
 0.1211172307D-03    1    2    0
 0.650975142154856D+03 0.000000000000000D+00 0.000000000000000D+00 0.650975142154856D+03
 0.650975142154856D+03 0.000000000000000D+00 0.000000000000000D+00 -.650975142154856D+03
 0.654428309147497D+03 -.290780680010376D+03 -.440618493547280D+03 -.365996381253259D+03
 0.496309978753349D+03 0.226861144605532D+03 0.360399761356215D+03 0.254891404509452D+03
 0.151211996408866D+03 0.639195354048443D+02 0.802187321910651D+02 0.111104976743807D+03
 0.000000000000000D+00 0.000000000000000D+00 -.000000000000000D+00 0.000000000000000D+00
 0.698214919377445D+03 0.000000000000000D+00 0.000000000000000D+00 0.698214919377445D+03
 0.673031843838579D+03 0.000000000000000D+00 0.000000000000000D+00 -.673031843838579D+03
 0.649805723093673D+03 -.312815584936782D+03 -.418109479078708D+03 -.365996381253259D+03
 0.501666354371941D+03 0.210000433202816D+03 0.377623252820403D+03 0.254891404509452D+03
 0.151997924085014D+03 0.587968337994086D+02 0.854516553618272D+02 0.111104976743807D+03
 0.677767616653963D+02 0.440183179345578D+02 -.449654291035222D+02 0.251830755388661D+02
0.204332165970D-05 0.000000000000D+00 0.000000000000D+00 0.411008549703D-04 0.795494412292D-09  6 21 2 25 -1 2 1 2 0.77521826D-01 0.14347427D+00 0.32243550D+06 0.32243550D+06 0.32243550D+06 0.10822421D+01  1  2  1  5  6  1       -1 0.121117230707D-03 0.100000000000D+01
  </mgrwgt>
  </event>
  <event>
  7     66 0.16841828E-05 0.50701390E+02 0.75467711E-02 0.94870309E-01
       -1 -1    0    0    0  501 0.00000000E+00 0.00000000E+00 0.52290757E+03 0.52290767E+03 0.32000000E+00 0.0000E+00 0.9000E+01
        2 -1    0    0  503    0 0.00000000E+00 0.00000000E+00 -.91242696E+03 0.91242702E+03 0.32000000E+00 0.0000E+00 0.9000E+01
       24  2    1    2    0    0 -.42090984E+03 -.63212372E+02 -.15008799E+03 0.45834861E+03 0.79975883E+02 0.0000E+00 0.0000E+00
       25  1    1    2    0    0 0.47354599E+03 0.82661674E+02 0.19892892E+03 0.53504811E+03 0.12500000E+03 0.0000E+00 0.9000E+01
       -1  1    3    3    0  502 -.20721850E+03 -.38867867E+02 -.32787547E+02 0.21336669E+03 0.32000000E+00 0.0000E+00 0.9000E+01
        2  1    3    3  502    0 -.21369134E+03 -.24344505E+02 -.11730044E+03 0.24498191E+03 0.32000000E+00 0.0000E+00 0.9000E+01
       21  1    1    2  503  501 -.52636151E+02 -.19449302E+02 -.43836032E+03 0.44193798E+03 0.75000000E+00 0.0000E+00 0.9000E+01
#aMCatNLO 2  0  0  2  1 0.10377569D+03 0.00000000D+00  -5  6  0 0.00000000D+00 0.00000000D+00 0.00000000D+00 0.00000000D+00 0.00000000D+00
  <mgrwgt>
 0.1766149929D-02    1    2    0
 0.495303631155136D+03 0.000000000000000D+00 0.000000000000000D+00 0.495303631155136D+03
 0.495303631155136D+03 0.000000000000000D+00 0.000000000000000D+00 -.495303631155136D+03
 0.499961813301166D+03 0.446313019717539D+03 0.725989640015064D+02 0.172831980882906D+03
 0.227357218303266D+03 -.218967694883237D+03 -.432095185680963D+02 -.433288681739297D+02
 0.263288230705840D+03 -.227345324834302D+03 -.293894454334101D+02 -.129503112708977D+03
 0.000000000000000D+00 -.000000000000000D+00 -.000000000000000D+00 -.000000000000000D+00
 0.497800304239220D+03 0.000000000000000D+00 0.000000000000000D+00 0.497800304239220D+03
 0.958445573382850D+03 0.000000000000000D+00 0.000000000000000D+00 -.958445573382850D+03
 0.525903653901498D+03 0.473545992769958D+03 0.826616737221809D+02 0.172831980882906D+03
 0.215238438511593D+03 -.207218400282237D+03 -.388680997753344D+02 -.433288681739297D+02
 0.251053245151559D+03 -.213691441357787D+03 -.243442722266646D+02 -.129503112708977D+03
 0.464050540057421D+03 -.526361511299327D+02 -.194493017201818D+02 -.460645269143631D+03
0.230998452412D-03 0.000000000000D+00 0.000000000000D+00 0.291681691093D-03 0.705975754075D-06  6 -1 2 25 -1 2 21 2 0.80447282D-01 0.14037331D+00 0.23946986D+06 0.23946986D+06 0.23946986D+06 0.10918679D+01  1  2  1  2  6  2        2 0.176614992876D-02 0.100000000000D+01
  </mgrwgt>
  </event>
  <event>
  7     66 0.16841828E-05 0.46220752E+02 0.75467711E-02 0.87087289E-01
       -1 -1    0    0    0  503 0.00000000E+00 0.00000000E+00 0.84227027E+03 0.84227033E+03 0.32000000E+00 0.0000E+00 0.9000E+01
        2 -1    0    0  501    0 0.00000000E+00 0.00000000E+00 -.12623297E+04 0.12623297E+04 0.32000000E+00 0.0000E+00 0.9000E+01
       24  2    1    2    0    0 0.42467636E+03 0.93321909E+03 -.20370601E+03 0.10483515E+04 0.79353325E+02 0.0000E+00 0.0000E+00
       25  1    1    2    0    0 -.40911755E+03 -.88639363E+03 -.21122896E+03 0.10066347E+04 0.12500000E+03 0.0000E+00 0.9000E+01
       -1  1    3    3    0  502 0.26857245E+03 0.50490085E+03 -.95496384E+02 0.57980660E+03 0.32000000E+00 0.0000E+00 0.9000E+01
        2  1    3    3  502    0 0.15610391E+03 0.42831824E+03 -.10820962E+03 0.46854495E+03 0.32000000E+00 0.0000E+00 0.9000E+01
       21  1    1    2  501  503 -.15558804E+02 -.46825462E+02 -.51244259E+01 0.49613733E+02 0.75000000E+00 0.0000E+00 0.9000E+01
#aMCatNLO 2  0  0  1  2 0.63109937D+00 0.00000000D+00  -5  6  0 0.00000000D+00 0.00000000D+00 0.00000000D+00 0.00000000D+00 0.00000000D+00
  <mgrwgt>
 0.1438934846D-02    1    2    0
 0.100602720292005D+04 0.000000000000000D+00 0.000000000000000D+00 0.100602720292005D+04
 0.100602720292005D+04 0.000000000000000D+00 0.000000000000000D+00 -.100602720292005D+04
 0.100834524407542D+04 -.416820586580543D+03 -.909576526314193D+03 -.814080035283961D+01
 0.558659178550318D+03 0.264202141269416D+03 0.491743808460838D+03 0.220302784277040D+02
 0.445049983214357D+03 0.152618445311126D+03 0.417832717853356D+03 -.138894780748644D+02
 0.000000000000000D+00 -.000000000000000D+00 -.000000000000000D+00 0.000000000000000D+00
 0.103362530949972D+04 0.000000000000000D+00 0.000000000000000D+00 0.103362530949972D+04
 0.102862902445155D+04 0.000000000000000D+00 0.000000000000000D+00 -.102862902445155D+04
 0.984257135699760D+03 -.409117551984153D+03 -.886393628815102D+03 -.814080035283961D+01
 0.572314253628424D+03 0.268574276706017D+03 0.504902099055349D+03 0.220302784277040D+02
 0.456087954001198D+03 0.156102078963754D+03 0.428316991405899D+03 -.138894780748644D+02
 0.495949906218844D+02 -.155588036856183D+02 -.468254616461456D+02 0.499628504816711D+01
0.107846462916D-02 0.000000000000D+00 0.000000000000D+00 0.147902018547D-03 0.354563683034D-06  6 -1 2 25 -1 2 21 2 0.12957969D+00 0.19420404D+00 0.10622731D+07 0.10622731D+07 0.10622731D+07 0.10461220D+01  1  2  1  1  6  1       -1 0.143893484579D-02 0.100000000000D+01
  </mgrwgt>
  </event>
  <event>
  7     66 0.16841828E-05 0.32471551E+02 0.75467711E-02 0.92635173E-01
       21 -1    0    0  503  501 0.00000000E+00 0.00000000E+00 0.26275852E+03 0.26275959E+03 0.75000000E+00 0.0000E+00 0.9000E+01
        2 -1    0    0  501    0 0.00000000E+00 0.00000000E+00 -.14380127E+04 0.14380127E+04 0.32000000E+00 0.0000E+00 0.9000E+01
       24  2    1    2    0    0 -.26867999E+03 0.50370956E+03 -.55122254E+03 0.79739430E+03 0.77968649E+02 0.0000E+00 0.0000E+00
       25  1    1    2    0    0 0.22874124E+03 -.51986184E+03 -.63276873E+03 0.85941850E+03 0.12500000E+03 0.0000E+00 0.9000E+01
       -1  1    3    3    0  502 -.73766629E+02 0.17074780E+03 -.13479443E+03 0.22970844E+03 0.32000000E+00 0.0000E+00 0.9000E+01
        2  1    3    3  502    0 -.19491336E+03 0.33296176E+03 -.41642812E+03 0.56768586E+03 0.32000000E+00 0.0000E+00 0.9000E+01
        1  1    1    2  503    0 0.39938748E+02 0.16152279E+02 0.87370993E+01 0.43959516E+02 0.32000000E+00 0.0000E+00 0.9000E+01
#aMCatNLO 2  0  0  1  2 0.24348580D+03 0.00000000D+00  -5  6  0 0.00000000D+00 0.00000000D+00 0.00000000D+00 0.00000000D+00 0.00000000D+00
  <mgrwgt>
 0.1271970676D-03    1    2    0
 0.579080587337052D+03 0.000000000000000D+00 0.000000000000000D+00 0.579080587337052D+03
 0.579080587337052D+03 0.000000000000000D+00 0.000000000000000D+00 -.579080587337052D+03
 0.583201727843925D+03 0.248827847546949D+03 -.511738291858451D+03 -.266059822424721D+02
 0.190644018603825D+03 -.671920470917772D+02 0.173403179576199D+03 0.419727048198758D+02
 0.384315428226354D+03 -.181635800455172D+03 0.338335112282252D+03 -.153667225774037D+02
 0.000000000000000D+00 0.000000000000000D+00 0.000000000000000D+00 0.000000000000000D+00
 0.644064667508109D+03 0.000000000000000D+00 0.000000000000000D+00 0.644064667508109D+03
 0.586665571065386D+03 0.000000000000000D+00 0.000000000000000D+00 -.586665571065386D+03
 0.582161291799249D+03 0.228741243026278D+03 -.519861842336093D+03 -.266059822424721D+02
 0.190674596626751D+03 -.737645880866439D+02 0.170745071358694D+03 0.419727048198758D+02
 0.386126279309377D+03 -.194915403140899D+03 0.332964492144362D+03 -.153667225774037D+02
 0.717680708381187D+02 0.399387482012647D+02 0.161522788330372D+02 0.573990964427230D+02
0.100700067522D-05 0.000000000000D+00 0.000000000000D+00 0.495728967507D-04 0.287371880921D-08  6 21 2 25 -1 2 1 2 0.40424448D-01 0.22123267D+00 0.35787450D+06 0.35787450D+06 0.35787450D+06 0.10789291D+01  1  2  1  5  6  1       -1 0.127197067628D-03 0.100000000000D+01
  </mgrwgt>
  </event>
  <event>
  6     66 0.16841828E-05 0.92329328E+01 0.75467711E-02 0.89744706E-01
       -1 -1    0    0    0  501 0.00000000E+00 0.00000000E+00 0.13878515E+04 0.13878515E+04 0.32000000E+00 0.0000E+00 0.9000E+01
        2 -1    0    0  501    0 0.00000000E+00 0.00000000E+00 -.58481079E+03 0.58481088E+03 0.32000000E+00 0.0000E+00 0.9000E+01
       25  1    1    2    0    0 0.41699151E+03 0.65523939E+03 -.76507372E+02 0.79037900E+03 0.12500000E+03 0.0000E+00 0.9000E+01
       -1  1    1    2    0  502 -.39922983E+03 -.65447902E+03 0.86022237E+03 0.11522629E+04 0.32000000E+00 0.0000E+00 0.9000E+01
        2  1    1    2  503    0 -.15055963E+02 -.56854028E+01 0.95407815E+01 0.18711888E+02 0.32000000E+00 0.0000E+00 0.9000E+01
       21  1    1    2  502  503 -.27057164E+01 0.49250286E+01 0.97849080E+01 0.11308569E+02 0.75000000E+00 0.0000E+00 0.9000E+01
#aMCatNLO 2  0  0  5  2 0.67308342D+01 0.00000000D+00  -5  6  0 0.00000000D+00 0.00000000D+00 0.00000000D+00 0.00000000D+00 0.00000000D+00
  <mgrwgt>
 0.5757376610D-01    2    2    0
 0.900905455860906D+03 0.000000000000000D+00 0.000000000000000D+00 0.900905455860906D+03
 0.900905455860906D+03 -.000000000000000D+00 -.000000000000000D+00 -.900905455860906D+03
 0.900986832844668D+03 0.419200985210613D+03 0.655333988374557D+03 -.436989897639536D+03
 0.876693940650877D+03 -.397105916127882D+03 -.654435677560090D+03 0.427332541338317D+03
 0.241301382262666D+02 -.220950690827308D+02 -.898310814467221D+00 0.965735630121916D+01
 0.000000000000000D+00 0.000000000000000D+00 0.000000000000000D+00 0.000000000000000D+00
 0.900905455860906D+03 0.000000000000000D+00 0.000000000000000D+00 0.900905455860906D+03
 0.900905455860906D+03 -.000000000000000D+00 -.000000000000000D+00 -.900905455860906D+03
 0.899394445477109D+03 0.416945355960351D+03 0.655242282114606D+03 -.436004002765360D+03
 0.878226951535703D+03 -.399304589788831D+03 -.654525068198323D+03 0.428293541951367D+03
 0.158635858646354D+02 -.146666823398295D+02 -.577085202345329D+01 0.179973680036824D+01
 0.832592884436330D+01 -.297408383168979D+01 0.505363810717054D+01 0.591072401362437D+01
-.445119557871D-03 0.000000000000D+00 0.000000000000D+00 0.845646780283D-08 0.000000000000D+00  6 -1 2 25 -1 2 21 2 0.21351562D+00 0.89970900D-01 0.62057020D+06 0.62057020D+06 0.62057020D+06 0.10619421D+01  1  2  8  4  6  5        2 -.365337204490D-03 0.100000000000D+01
0.705860526056D-01 0.000000000000D+00 0.000000000000D+00 0.845646780283D-08 0.334508984619D-06  6 -1 2 25 -1 2 21 2 0.21351562D+00 0.89970900D-01 0.62014229D+06 0.62014229D+06 0.62014229D+06 0.10619629D+01  1  2  1  4  6  5        2 0.579391033008D-01 0.100000000000D+01
  </mgrwgt>
  </event>
  <event>
  7     66 0.16841828E-05 0.69610906E+02 0.75467711E-02 0.90723420E-01
       -3 -1    0    0    0  501 0.00000000E+00 0.00000000E+00 0.12528684E+04 0.12528685E+04 0.50000000E+00 0.0000E+00 0.9000E+01
        4 -1    0    0  503    0 0.00000000E+00 0.00000000E+00 -.52250308E+03 0.52250538E+03 0.15500000E+01 0.0000E+00 0.9000E+01
       24  2    1    2    0    0 0.13086265E+03 -.63904770E+03 0.70556823E+03 0.96363951E+03 0.72578124E+02 0.0000E+00 0.0000E+00
       25  1    1    2    0    0 -.48976416E+02 0.67367741E+03 0.10140918E+03 0.69436933E+03 0.12500000E+03 0.0000E+00 0.9000E+01
       -3  1    3    3    0  502 0.73310558E+02 -.50680549E+03 0.54720104E+03 0.74943677E+03 0.50000000E+00 0.0000E+00 0.9000E+01
        4  1    3    3  502    0 0.57552088E+02 -.13224220E+03 0.15836719E+03 0.21420274E+03 0.15500000E+01 0.0000E+00 0.9000E+01
       21  1    1    2  503  501 -.81886231E+02 -.34629714E+02 -.76612110E+02 0.11736503E+03 0.75000000E+00 0.0000E+00 0.9000E+01
#aMCatNLO 2  0  0  2  2 0.22704750D+02 0.00000000D+00  -5  6  0 0.00000000D+00 0.00000000D+00 0.00000000D+00 0.00000000D+00 0.00000000D+00
  <mgrwgt>
 0.8459609560D-05    1    2    0
 0.722820205622013D+03 0.000000000000000D+00 0.000000000000000D+00 0.722820205622013D+03
 0.722820205622013D+03 0.000000000000000D+00 0.000000000000000D+00 -.722820205622013D+03
 0.726402498968952D+03 -.904222582998319D+02 0.656149952019976D+03 -.270788932891431D+03
 0.562312255214469D+03 0.417756627671642D+02 -.520379597853597D+03 0.208937647403417D+03
 0.156925657060606D+03 0.486465955326677D+02 -.135770354166379D+03 0.618512854880145D+02
 0.000000000000000D+00 -.000000000000000D+00 -.000000000000000D+00 -.000000000000000D+00
 0.736157858912713D+03 0.000000000000000D+00 0.000000000000000D+00 0.736157858912713D+03
 0.889249938274368D+03 0.000000000000000D+00 0.000000000000000D+00 -.889249938274368D+03
 0.738370903598012D+03 -.489764158596959D+02 0.673677412262875D+03 -.270788932891431D+03
 0.553275519029379D+03 0.733412790177220D+02 -.507030488478552D+03 0.208937647403417D+03
 0.156725342650032D+03 0.575213674888058D+02 -.132017210220743D+03 0.618512854880145D+02
 0.177036031909657D+03 -.818862306468319D+02 -.346297135635801D+02 -.153092079361656D+03
0.204847897600D-03 0.000000000000D+00 0.000000000000D+00 0.303976647221D-05 0.238454995624D-08  6 -3 4 25 -3 4 21 2 0.19274896D+00 0.80385189D-01 0.51275886D+06 0.51275886D+06 0.51275886D+06 0.10677379D+01  1  2  1  2  6  2        4 0.845960955969D-05 0.100000000000D+01
  </mgrwgt>
  </event>
  <event>
  7     66 0.16841828E-05 0.32928577E+02 0.75467711E-02 0.93922797E-01
       -1 -1    0    0    0  501 0.00000000E+00 0.00000000E+00 0.82331379E+03 0.82331386E+03 0.32000000E+00 0.0000E+00 0.9000E+01
        2 -1    0    0  503    0 0.00000000E+00 0.00000000E+00 -.80185005E+03 0.80185012E+03 0.32000000E+00 0.0000E+00 0.9000E+01
       24  2    1    2    0    0 -.12887332E+03 0.48437381E+03 -.32543751E+02 0.50873557E+03 0.80786503E+02 0.0000E+00 0.0000E+00
       25  1    1    2    0    0 0.17656025E+03 -.45357915E+03 0.47508105E+03 0.69154506E+03 0.12500000E+03 0.0000E+00 0.9000E+01
       -1  1    3    3    0  502 -.62369189E+01 0.13010187E+03 -.30755398E+02 0.13383345E+03 0.32000000E+00 0.0000E+00 0.9000E+01
        2  1    3    3  502    0 -.12263640E+03 0.35427194E+03 -.17883538E+01 0.37490211E+03 0.32000000E+00 0.0000E+00 0.9000E+01
       21  1    1    2  503  501 -.47686931E+02 -.30794667E+02 -.42107356E+03 0.42488335E+03 0.75000000E+00 0.0000E+00 0.9000E+01
#aMCatNLO 2  0  0  2  2 0.22704750D+02 0.00000000D+00  -5  6  0 0.00000000D+00 0.00000000D+00 0.00000000D+00 0.00000000D+00 0.00000000D+00
  <mgrwgt>
 0.2896907583D-02    1    2    0
 0.557138216332918D+03 0.000000000000000D+00 0.000000000000000D+00 0.557138216332918D+03
 0.557138216332918D+03 0.000000000000000D+00 0.000000000000000D+00 -.557138216332918D+03
 0.561220928984277D+03 0.152679508155467D+03 -.469000553610921D+03 0.236793960294660D+03
 0.153045300009657D+03 -.128474734589278D+02 0.125828295854242D+03 -.861687080278309D+02
 0.400010203671902D+03 -.139832034696539D+03 0.343172257756679D+03 -.150625252266829D+03
 0.000000000000000D+00 -.000000000000000D+00 -.000000000000000D+00 -.000000000000000D+00
 0.559154204361129D+03 0.000000000000000D+00 0.000000000000000D+00 0.559154204361129D+03
 0.118066496794522D+04 0.000000000000000D+00 0.000000000000000D+00 -.118066496794522D+04
 0.555521326858502D+03 0.176560253427701D+03 -.453579146205100D+03 0.236793960294660D+03
 0.156171395801253D+03 -.623509257341232D+01 0.130098356038526D+03 -.861687080278309D+02
 0.404028713586371D+03 -.122638229705684D+03 0.354275456949064D+03 -.150625252266829D+03
 0.624097736060223D+03 -.476869311486042D+02 -.307946667824903D+02 -.621510763584091D+03
0.908376163074D-03 0.000000000000D+00 0.000000000000D+00 0.122899929867D-03 0.318846404112D-06  6 -1 2 25 -1 2 21 2 0.12666362D+00 0.12336151D+00 0.28325881D+06 0.28325881D+06 0.28325881D+06 0.10864017D+01  1  2  1  2  6  2        2 0.289690758331D-02 0.100000000000D+01
  </mgrwgt>
  </event>
  <event>
  7     66 0.16841828E-05 0.82362157E+02 0.75467711E-02 0.93350098E-01
       -1 -1    0    0    0  501 0.00000000E+00 0.00000000E+00 0.94215482E+03 0.94215487E+03 0.32000000E+00 0.0000E+00 0.9000E+01
        2 -1    0    0  503    0 0.00000000E+00 0.00000000E+00 -.46958168E+03 0.46958179E+03 0.32000000E+00 0.0000E+00 0.9000E+01
       24  2    1    2    0    0 -.18660392E+03 -.45326173E+03 0.50915290E+03 0.71127935E+03 0.80090111E+02 0.0000E+00 0.0000E+00
       25  1    1    2    0    0 0.28983294E+03 0.39555323E+03 0.10412037E+03 0.51665418E+03 0.12500000E+03 0.0000E+00 0.9000E+01
       -1  1    3    3    0  502 -.14035322E+03 -.23795679E+03 0.27356314E+03 0.38879217E+03 0.32000000E+00 0.0000E+00 0.9000E+01
        2  1    3    3  502    0 -.46250698E+02 -.21530494E+03 0.23558976E+03 0.32248718E+03 0.32000000E+00 0.0000E+00 0.9000E+01
       21  1    1    2  503  501 -.10322902E+03 0.57708494E+02 -.14070013E+03 0.18380313E+03 0.75000000E+00 0.0000E+00 0.9000E+01
#aMCatNLO 2  0  0  2  2 0.22704750D+02 0.00000000D+00  -5  6  0 0.00000000D+00 0.00000000D+00 0.00000000D+00 0.00000000D+00 0.00000000D+00
  <mgrwgt>
 0.1405168693D-02    1    2    0
 0.528613791193981D+03 0.000000000000000D+00 0.000000000000000D+00 0.528613791193981D+03
 0.528613791193981D+03 0.000000000000000D+00 0.000000000000000D+00 -.528613791193981D+03
 0.532969794731671D+03 0.237791202959239D+03 0.424646312814322D+03 -.177658816006183D+03
 0.293597565763250D+03 -.168809648209233D+03 -.222049890197141D+03 0.916333976070870D+02
 0.230660221893041D+03 -.689815547500061D+02 -.202596422617181D+03 0.860254183990956D+02
 0.000000000000000D+00 -.000000000000000D+00 0.000000000000000D+00 -.000000000000000D+00
 0.544362526522528D+03 0.000000000000000D+00 0.000000000000000D+00 0.544362526522528D+03
 0.812726766974923D+03 0.000000000000000D+00 0.000000000000000D+00 -.812726766974923D+03
 0.536333056318685D+03 0.289832938740615D+03 0.395553232847870D+03 -.177658816006183D+03
 0.291066544030874D+03 -.140354720689989D+03 -.237957151346820D+03 0.916333976070870D+02
 0.236422124487864D+03 -.462491959663151D+02 -.215304575448561D+03 0.860254183990956D+02
 0.293267568660028D+03 -.103229022084311D+03 0.577084939475103D+02 -.268364240452395D+03
0.337826606170D-03 0.000000000000D+00 0.000000000000D+00 0.211923666291D-03 0.102413720498D-06  6 -1 2 25 -1 2 21 2 0.14494678D+00 0.72243286D-01 0.31404848D+06 0.31404848D+06 0.31404848D+06 0.10830845D+01  1  2  1  2  6  2        2 0.140516869303D-02 0.100000000000D+01
  </mgrwgt>
  </event>
</LesHouchesEvents>
