<event>
 5    0  0.1943430E+001  0.2658762E+03  0.7546771E-02  0.1103663E+00
         21   -1    0    0  503  501  0.00000000000E+00  0.00000000000E+00  0.41451163918E+03  0.41451163918E+03  0.00000000000E+00 0. -1.
         21   -1    0    0  504  502 -0.00000000000E+00 -0.00000000000E+00 -0.17232571613E+03  0.17232571613E+03  0.00000000000E+00 0. -1.
         25    1    1    2    0    0 -0.67122675001E+02 -0.21153654548E+03  0.16380764923E+03  0.30283842147E+03  0.12500000000E+03 0.  0.
         21    1    1    2  503  502  0.11593549425E+02 -0.25477737795E+02  0.17700223813E+02  0.33118324754E+02  0.00000000000E+00 0. -1.
         21    1    1    2  504  501  0.55529125576E+02  0.23701428327E+03  0.60678050011E+02  0.25088060908E+03  0.00000000000E+00 0. -1.
<mgrwt>
<rscale>  4 0.26587621E+03</rscale>
<asrwt>0</asrwt>
<pdfrwt beam="1">  1       21 0.63771021E-01 0.26587621E+03</pdfrwt>
<pdfrwt beam="2">  1       21 0.26511649E-01 0.26587621E+03</pdfrwt>
<totfact> 0.29671714E+04</totfact>
</mgrwt>
</event>
<event>
 5    0  0.1943430E+001  0.3590282E+03  0.7546771E-02  0.1058969E+00
         21   -1    0    0  504  501  0.00000000000E+00  0.00000000000E+00  0.65125019429E+03  0.65125019429E+03  0.00000000000E+00 0.  1.
         21   -1    0    0  501  502 -0.00000000000E+00 -0.00000000000E+00 -0.56798366605E+03  0.56798366605E+03  0.00000000000E+00 0.  1.
         25    1    1    2    0    0  0.35116802110E+03  0.29194364501E+02  0.50564811862E+03  0.62886907208E+03  0.12500000000E+03 0.  0.
         21    1    1    2  503  502 -0.12083642956E+03 -0.52856012707E+02 -0.30785392273E+02  0.13543611471E+03  0.00000000000E+00 0.  1.
         21    1    1    2  504  503 -0.23033159153E+03  0.23661648207E+02 -0.39159619810E+03  0.45492867355E+03  0.00000000000E+00 0.  1.
<mgrwt>
<rscale>  4 0.35902821E+03</rscale>
<asrwt>0</asrwt>
<pdfrwt beam="1">  1       21 0.10019234E+00 0.35902821E+03</pdfrwt>
<pdfrwt beam="2">  1       21 0.87382102E-01 0.35902821E+03</pdfrwt>
<totfact> 0.81177033E+02</totfact>
</mgrwt>
</event>
<event>
 5    0  0.1943430E+001  0.2329107E+03  0.7546771E-02  0.1124608E+00
         21   -1    0    0  503  501  0.00000000000E+00  0.00000000000E+00  0.37145617945E+02  0.37145617945E+02  0.00000000000E+00 0.  1.
         21   -1    0    0  504  502 -0.00000000000E+00 -0.00000000000E+00 -0.19875191386E+04  0.19875191386E+04  0.00000000000E+00 0.  1.
         25    1    1    2    0    0 -0.83047755541E+02  0.18475801658E+03 -0.47975799676E+03  0.53556063134E+03  0.12500000000E+03 0.  0.
         21    1    1    2  503  502  0.10763593663E+03 -0.15222981376E+03 -0.10414966544E+04  0.10580523107E+04  0.00000000000E+00 0.  1.
         21    1    1    2  504  501 -0.24588181093E+02 -0.32528202816E+02 -0.42911886949E+03  0.43105181449E+03  0.00000000000E+00 0.  1.
<mgrwt>
<rscale>  4 0.23291071E+03</rscale>
<asrwt>0</asrwt>
<pdfrwt beam="1">  1       21 0.57147100E-02 0.23291071E+03</pdfrwt>
<pdfrwt beam="2">  1       21 0.30577220E+00 0.23291071E+03</pdfrwt>
<totfact> 0.64943377E+03</totfact>
</mgrwt>
</event>
<event>
 5    0  0.1943430E+001  0.2914758E+03  0.7546771E-02  0.1089581E+00
         21   -1    0    0  504  501  0.00000000000E+00  0.00000000000E+00  0.10424315920E+04  0.10424315920E+04  0.00000000000E+00 0. -1.
         21   -1    0    0  501  502 -0.00000000000E+00 -0.00000000000E+00 -0.24134793709E+03  0.24134793709E+03  0.00000000000E+00 0. -1.
         25    1    1    2    0    0 -0.31867738678E+03 -0.34180757578E+02  0.46282692531E+03  0.57667786833E+03  0.12500000000E+03 0.  0.
         21    1    1    2  503  502  0.15371254099E+03  0.22344364630E+03 -0.17387758413E+02  0.27176633800E+03  0.00000000000E+00 0. -1.
         21    1    1    2  504  503  0.16496484579E+03 -0.18926288872E+03  0.35564448805E+03  0.43533532279E+03  0.00000000000E+00 0. -1.
<mgrwt>
<rscale>  4 0.29147578E+03</rscale>
<asrwt>0</asrwt>
<pdfrwt beam="1">  1       21 0.16037409E+00 0.29147578E+03</pdfrwt>
<pdfrwt beam="2">  1       21 0.37130452E-01 0.29147578E+03</pdfrwt>
<totfact> 0.16139171E+03</totfact>
</mgrwt>
</event>
<event>
 5    0  0.1943430E+001  0.2590139E+03  0.7546771E-02  0.1107737E+00
         21   -1    0    0  504  501  0.00000000000E+00  0.00000000000E+00  0.59046152745E+03  0.59046152745E+03  0.00000000000E+00 0.  1.
         21   -1    0    0  503  502 -0.00000000000E+00 -0.00000000000E+00 -0.19428999591E+03  0.19428999591E+03  0.00000000000E+00 0.  1.
         25    1    1    2    0    0  0.18665759585E+03  0.99212158352E+02  0.25603900169E+03  0.35477469024E+03  0.12500000000E+03 0.  0.
         21    1    1    2  503  501 -0.21740804320E+03 -0.10925879930E+03  0.22978194200E+03  0.33466921482E+03  0.00000000000E+00 0.  1.
         21    1    1    2  504  502  0.30750447355E+02  0.10046640949E+02 -0.89649412149E+02  0.95307618297E+02  0.00000000000E+00 0.  1.
<mgrwt>
<rscale>  4 0.25901392E+03</rscale>
<asrwt>0</asrwt>
<pdfrwt beam="1">  1       21 0.90840234E-01 0.25901392E+03</pdfrwt>
<pdfrwt beam="2">  1       21 0.29890769E-01 0.25901392E+03</pdfrwt>
<totfact> 0.10594175E+04</totfact>
</mgrwt>
</event>
<event>
 5    0  0.1943430E+001  0.2630801E+03  0.7546771E-02  0.1105307E+00
         21   -1    0    0  503  501  0.00000000000E+00  0.00000000000E+00  0.29625998916E+03  0.29625998916E+03  0.00000000000E+00 0.  1.
         21   -1    0    0  504  502 -0.00000000000E+00 -0.00000000000E+00 -0.67897758050E+03  0.67897758050E+03  0.00000000000E+00 0.  1.
         25    1    1    2    0    0 -0.12614300668E+03  0.21117247845E+03  0.17689752798E+03  0.32775541063E+03  0.12500000000E+03 0.  0.
         21    1    1    2  503  502  0.16770131089E+03 -0.99613837886E+02 -0.25962188995E+03  0.32473092264E+03  0.00000000000E+00 0.  1.
         21    1    1    2  504  501 -0.41558304207E+02 -0.11155864057E+03 -0.29999322937E+03  0.32275123640E+03  0.00000000000E+00 0.  1.
<mgrwt>
<rscale>  4 0.26308008E+03</rscale>
<asrwt>0</asrwt>
<pdfrwt beam="1">  1       21 0.45578460E-01 0.26308008E+03</pdfrwt>
<pdfrwt beam="2">  1       21 0.10445809E+00 0.26308008E+03</pdfrwt>
<totfact> 0.32405845E+03</totfact>
</mgrwt>
</event>
<event>
 5    0  0.1943430E+001  0.2812682E+03  0.7546771E-02  0.1094998E+00
         21   -1    0    0  504  501  0.00000000000E+00  0.00000000000E+00  0.37787654175E+03  0.37787654175E+03  0.00000000000E+00 0.  1.
         21   -1    0    0  501  502 -0.00000000000E+00 -0.00000000000E+00 -0.26879197202E+03  0.26879197202E+03  0.00000000000E+00 0.  1.
         25    1    1    2    0    0  0.17560743716E+03  0.18068990707E+03  0.22519230088E+03  0.36031012597E+03  0.12500000000E+03 0.  0.
         21    1    1    2  503  502  0.11372348479E+01 -0.28345996003E+02 -0.10777417141E+02  0.30347018186E+02  0.00000000000E+00 0.  1.
         21    1    1    2  504  503 -0.17674467200E+03 -0.15234391106E+03 -0.10533031401E+03  0.25601136961E+03  0.00000000000E+00 0.  1.
<mgrwt>
<rscale>  4 0.28126823E+03</rscale>
<asrwt>0</asrwt>
<pdfrwt beam="1">  1       21 0.58134853E-01 0.28126823E+03</pdfrwt>
<pdfrwt beam="2">  1       21 0.41352611E-01 0.28126823E+03</pdfrwt>
<totfact> 0.14879944E+04</totfact>
</mgrwt>
</event>
<event>
 5    0  0.1943430E+001  0.3138771E+03  0.7546771E-02  0.1078502E+00
         21   -1    0    0  503  501  0.00000000000E+00  0.00000000000E+00  0.35021379434E+03  0.35021379434E+03  0.00000000000E+00 0. -1.
         21   -1    0    0  504  502 -0.00000000000E+00 -0.00000000000E+00 -0.32115510287E+03  0.32115510287E+03  0.00000000000E+00 0. -1.
         25    1    1    2    0    0  0.27143752150E+03  0.12987405670E+03  0.58662976014E+02  0.33107694489E+03  0.12500000000E+03 0.  0.
         21    1    1    2  503  502 -0.14217025314E+02 -0.29200428715E+02 -0.53981374525E+02  0.62998235225E+02  0.00000000000E+00 0. -1.
         21    1    1    2  504  501 -0.25722049618E+03 -0.10067362799E+03  0.24377089980E+02  0.27729371710E+03  0.00000000000E+00 0. -1.
<mgrwt>
<rscale>  4 0.31387711E+03</rscale>
<asrwt>0</asrwt>
<pdfrwt beam="1">  1       21 0.53879045E-01 0.31387711E+03</pdfrwt>
<pdfrwt beam="2">  1       21 0.49408477E-01 0.31387711E+03</pdfrwt>
<totfact> 0.11933303E+04</totfact>
</mgrwt>
</event>
<event>
 5    0  0.1943430E+001  0.2546244E+03  0.7546771E-02  0.1110417E+00
         21   -1    0    0  504  501  0.00000000000E+00  0.00000000000E+00  0.87271062286E+02  0.87271062286E+02  0.00000000000E+00 0. -1.
         21   -1    0    0  501  502 -0.00000000000E+00 -0.00000000000E+00 -0.81274481753E+03  0.81274481753E+03  0.00000000000E+00 0. -1.
         25    1    1    2    0    0  0.21723412442E+02 -0.22076385428E+03 -0.18448156692E+03  0.31443128747E+03  0.12500000000E+03 0.  0.
         21    1    1    2  503  502  0.65025763262E+01  0.21797820356E+02 -0.44837801020E+02  0.50277797003E+02  0.00000000000E+00 0. -1.
         21    1    1    2  504  503 -0.28225988768E+02  0.19896603393E+03 -0.49615438731E+03  0.53530679535E+03  0.00000000000E+00 0. -1.
<mgrwt>
<rscale>  4 0.25462440E+03</rscale>
<asrwt>0</asrwt>
<pdfrwt beam="1">  1       21 0.13426317E-01 0.25462440E+03</pdfrwt>
<pdfrwt beam="2">  1       21 0.12503767E+00 0.25462440E+03</pdfrwt>
<totfact> 0.22069639E+04</totfact>
</mgrwt>
</event>
<event>
 5    0  0.1943430E+001  0.2415843E+03  0.7546771E-02  0.1118742E+00
         21   -1    0    0  503  501  0.00000000000E+00  0.00000000000E+00  0.47355006061E+03  0.47355006061E+03  0.00000000000E+00 0.  1.
         21   -1    0    0  504  502 -0.00000000000E+00 -0.00000000000E+00 -0.61324502973E+03  0.61324502973E+03  0.00000000000E+00 0.  1.
         25    1    1    2    0    0  0.20340347536E+03  0.19943574073E+02  0.25343018055E+03  0.34874428504E+03  0.12500000000E+03 0.  0.
         21    1    1    2  503  502 -0.20489173727E+03 -0.51459707549E+02  0.10708555283E+03  0.23684602831E+03  0.00000000000E+00 0.  1.
         21    1    1    2  504  501  0.14882619047E+01  0.31516133476E+02 -0.50021070249E+03  0.50120477699E+03  0.00000000000E+00 0.  1.
<mgrwt>
<rscale>  4 0.24158431E+03</rscale>
<asrwt>0</asrwt>
<pdfrwt beam="1">  1       21 0.72853856E-01 0.24158431E+03</pdfrwt>
<pdfrwt beam="2">  1       21 0.94345388E-01 0.24158431E+03</pdfrwt>
<totfact> 0.15308204E+03</totfact>
</mgrwt>
</event>
<event>
 5    0  0.1943430E+001  0.2833757E+03  0.7546771E-02  0.1093859E+00
         21   -1    0    0  503  501  0.00000000000E+00  0.00000000000E+00  0.16932259134E+04  0.16932259134E+04  0.00000000000E+00 0. -1.
         21   -1    0    0  504  502 -0.00000000000E+00 -0.00000000000E+00 -0.77278664993E+03  0.77278664993E+03  0.00000000000E+00 0.  1.
         25    1    1    2    0    0 -0.85068356592E+02 -0.24013323207E+03  0.16451400954E+04  0.16694344934E+04  0.12500000000E+03 0.  0.
         21    1    1    2  503  502  0.19617734065E+02  0.22271313807E+02  0.68628518251E+01  0.30462528518E+02  0.00000000000E+00 0.  1.
         21    1    1    2  504  501  0.65450622528E+02  0.21786191826E+03 -0.73156368373E+03  0.76611554140E+03  0.00000000000E+00 0.  1.
<mgrwt>
<rscale>  4 0.28337573E+03</rscale>
<asrwt>0</asrwt>
<pdfrwt beam="1">  1       21 0.26049629E+00 0.28337573E+03</pdfrwt>
<pdfrwt beam="2">  1       21 0.11889025E+00 0.28337573E+03</pdfrwt>
<totfact> 0.27403635E+01</totfact>
</mgrwt>
</event>
