<event>
 5    0  0.1014204E+000  0.2614961E+03  0.7546771E-02  0.1106248E+00
          2   -1    0    0  503    0 -0.00000000000E+00  0.00000000000E+00  0.64744999687E+03  0.64744999687E+03  0.00000000000E+00 0. -1.
         21   -1    0    0  501  502  0.00000000000E+00 -0.00000000000E+00 -0.47485161356E+03  0.47485161356E+03  0.00000000000E+00 0. -1.
         25    1    1    2    0    0 -0.22652515026E+03  0.43146806574E+02 -0.41168538506E+03  0.48814459629E+03  0.12500000000E+03 0.  0.
         21    1    1    2  503  502  0.99799175529E+01 -0.24886623319E+02  0.40642052851E+02  0.48690032189E+02  0.00000000000E+00 0. -1.
          2    1    1    2  501    0  0.21654523270E+03 -0.18260183254E+02  0.54364171552E+03  0.58546698195E+03  0.00000000000E+00 0. -1.
<mgrwt>
<rscale>  4 0.26149613E+03</rscale>
<asrwt>0</asrwt>
<pdfrwt beam="1">  1       21 0.73054095E-01 0.26149613E+03</pdfrwt>
<pdfrwt beam="2">  1        2 0.99607692E-01 0.26149613E+03</pdfrwt>
<totfact> 0.94573631E+02</totfact>
</mgrwt>
</event>
<event>
 5    0  0.1014204E+000  0.2427179E+03  0.7546771E-02  0.1117995E+00
          2   -1    0    0  503    0 -0.00000000000E+00  0.00000000000E+00  0.11167681792E+04  0.11167681792E+04  0.00000000000E+00 0. -1.
         21   -1    0    0  501  502  0.00000000000E+00 -0.00000000000E+00 -0.91716437515E+02  0.91716437515E+02  0.00000000000E+00 0.  1.
         25    1    1    2    0    0 -0.61302202581E+02 -0.19598572510E+03  0.11695164225E+03  0.26734070231E+03  0.12500000000E+03 0.  0.
         21    1    1    2  503  502  0.11465506313E+02 -0.19227893949E+02  0.45543207766E+02  0.50747940986E+02  0.00000000000E+00 0.  1.
          2    1    1    2  501    0  0.49836696268E+02  0.21521361905E+03  0.86255689171E+03  0.89039597346E+03  0.00000000000E+00 0. -1.
<mgrwt>
<rscale>  4 0.24271790E+03</rscale>
<asrwt>0</asrwt>
<pdfrwt beam="1">  1       21 0.14110222E-01 0.24271790E+03</pdfrwt>
<pdfrwt beam="2">  1        2 0.17181048E+00 0.24271790E+03</pdfrwt>
<totfact> 0.12312175E+04</totfact>
</mgrwt>
</event>
<event>
 5    0  0.1014204E+000  0.3824268E+03  0.7546771E-02  0.1050040E+00
          2   -1    0    0  503    0 -0.00000000000E+00  0.00000000000E+00  0.35417330475E+03  0.35417330475E+03  0.00000000000E+00 0. -1.
         21   -1    0    0  501  502  0.00000000000E+00 -0.00000000000E+00 -0.30003321704E+04  0.30003321704E+04  0.00000000000E+00 0.  1.
         25    1    1    2    0    0 -0.37132865323E+03 -0.55987999478E+02 -0.28535960726E+04  0.28809122115E+04  0.12500000000E+03 0.  0.
         21    1    1    2  503  502  0.16663462321E+02 -0.11104000994E+02 -0.33912551306E+02  0.39383130280E+02  0.00000000000E+00 0. -1.
          2    1    1    2  501    0  0.35466519091E+03  0.67092000472E+02  0.24134975822E+03  0.43421013342E+03  0.00000000000E+00 0. -1.
<mgrwt>
<rscale>  4 0.38242681E+03</rscale>
<asrwt>0</asrwt>
<pdfrwt beam="1">  1       21 0.46158957E+00 0.38242681E+03</pdfrwt>
<pdfrwt beam="2">  1        2 0.54488200E-01 0.38242681E+03</pdfrwt>
<totfact> 0.31343243E+00</totfact>
</mgrwt>
</event>
<event>
 5    0  0.1014204E+000  0.2785101E+03  0.7546771E-02  0.1096505E+00
          2   -1    0    0  503    0 -0.00000000000E+00  0.00000000000E+00  0.15208281809E+04  0.15208281809E+04  0.00000000000E+00 0. -1.
         21   -1    0    0  501  502  0.00000000000E+00 -0.00000000000E+00 -0.12622643548E+03  0.12622643548E+03  0.00000000000E+00 0.  1.
         25    1    1    2    0    0  0.24808217255E+03 -0.38196543450E+02  0.71224463925E+02  0.28931239955E+03  0.12500000000E+03 0.  0.
         21    1    1    2  503  502 -0.73686166847E+01  0.59503750570E+02  0.20694297542E+03  0.21545391136E+03  0.00000000000E+00 0.  1.
          2    1    1    2  501    0 -0.24071355587E+03 -0.21307207121E+02  0.11164343061E+04  0.11422883055E+04  0.00000000000E+00 0. -1.
<mgrwt>
<rscale>  4 0.27851015E+03</rscale>
<asrwt>0</asrwt>
<pdfrwt beam="1">  1       21 0.19419453E-01 0.27851015E+03</pdfrwt>
<pdfrwt beam="2">  1        2 0.23397355E+00 0.27851015E+03</pdfrwt>
<totfact> 0.40282312E+03</totfact>
</mgrwt>
</event>
<event>
 5    0  0.1014204E+000  0.4879984E+03  0.7546771E-02  0.1016960E+00
          2   -1    0    0  503    0 -0.00000000000E+00  0.00000000000E+00  0.61757481625E+03  0.61757481625E+03  0.00000000000E+00 0.  1.
         21   -1    0    0  501  502  0.00000000000E+00 -0.00000000000E+00 -0.37750717730E+03  0.37750717730E+03  0.00000000000E+00 0.  1.
         25    1    1    2    0    0  0.40046017310E+03 -0.24929724104E+03  0.83800831443E+02  0.49514143835E+03  0.12500000000E+03 0.  0.
         21    1    1    2  503  502 -0.14021565304E+02  0.22939292649E+02  0.11821727611E+02  0.29369519651E+02  0.00000000000E+00 0. -1.
          2    1    1    2  501    0 -0.38643860779E+03  0.22635794839E+03  0.14444507990E+03  0.47057103555E+03  0.00000000000E+00 0.  1.
<mgrwt>
<rscale>  4 0.48799843E+03</rscale>
<asrwt>0</asrwt>
<pdfrwt beam="1">  1       21 0.58078027E-01 0.48799843E+03</pdfrwt>
<pdfrwt beam="2">  1        2 0.95011510E-01 0.48799843E+03</pdfrwt>
<totfact> 0.15588823E+03</totfact>
</mgrwt>
</event>
<event>
 5    0  0.1014204E+000  0.2656392E+03  0.7546771E-02  0.1103802E+00
         21   -1    0    0  501  502  0.00000000000E+00  0.00000000000E+00  0.79342058059E+02  0.79342058059E+02  0.00000000000E+00 0.  1.
          2   -1    0    0  503    0 -0.00000000000E+00 -0.00000000000E+00 -0.23113402979E+04  0.23113402979E+04  0.00000000000E+00 0.  1.
         25    1    1    2    0    0 -0.74401645851E+02  0.21941000946E+03 -0.17923439073E+03  0.31847499742E+03  0.12500000000E+03 0.  0.
         21    1    1    2  503  502 -0.10495732931E+02  0.18863857575E+02 -0.36027374646E+03  0.36091990514E+03  0.00000000000E+00 0. -1.
          2    1    1    2  501    0  0.84897378783E+02 -0.23827386704E+03 -0.16924901027E+04  0.17112874534E+04  0.00000000000E+00 0.  1.
<mgrwt>
<rscale>  4 0.26563918E+03</rscale>
<asrwt>0</asrwt>
<pdfrwt beam="1">  1       21 0.12206473E-01 0.26563918E+03</pdfrwt>
<pdfrwt beam="2">  1        2 0.35559073E+00 0.26563918E+03</pdfrwt>
<totfact> 0.36313222E+03</totfact>
</mgrwt>
</event>
<event>
 5    0  0.1014204E+000  0.3702707E+03  0.7546771E-02  0.1054590E+00
         -2   -1    0    0    0  501 -0.00000000000E+00  0.00000000000E+00  0.87374888188E+02  0.87374888188E+02  0.00000000000E+00 0.  1.
         21   -1    0    0  503  502  0.00000000000E+00 -0.00000000000E+00 -0.16223726323E+04  0.16223726323E+04  0.00000000000E+00 0.  1.
         25    1    1    2    0    0 -0.63958580442E+02  0.34668455972E+03 -0.63435083165E+03  0.73641487056E+03  0.12500000000E+03 0.  0.
         21    1    1    2  503  501 -0.18997054682E+02 -0.10612596315E+02 -0.37436477462E+02  0.43301329448E+02  0.00000000000E+00 0. -1.
         -2    1    1    2    0  502  0.82955635124E+02 -0.33607196341E+03 -0.86321043503E+03  0.93003132051E+03  0.00000000000E+00 0.  1.
<mgrwt>
<rscale>  4 0.37027070E+03</rscale>
<asrwt>0</asrwt>
<pdfrwt beam="1">  1       21 0.24959577E+00 0.37027070E+03</pdfrwt>
<pdfrwt beam="2">  1       -2 0.13442291E-01 0.37027070E+03</pdfrwt>
<totfact> 0.19432447E+02</totfact>
</mgrwt>
</event>
<event>
 5    0  0.1014204E+000  0.3186524E+03  0.7546771E-02  0.1076271E+00
         21   -1    0    0  501  502  0.00000000000E+00  0.00000000000E+00  0.37011383334E+03  0.37011383334E+03  0.00000000000E+00 0.  1.
          2   -1    0    0  503    0 -0.00000000000E+00 -0.00000000000E+00 -0.29634421524E+03  0.29634421524E+03  0.00000000000E+00 0.  1.
         25    1    1    2    0    0 -0.26211544119E+02 -0.28034664378E+03 -0.18839955700E+02  0.30864417969E+03  0.12500000000E+03 0.  0.
         21    1    1    2  503  502 -0.18951936479E+02 -0.16776366991E+02 -0.24538711094E+02  0.35252953464E+02  0.00000000000E+00 0.  1.
          2    1    1    2  501    0  0.45163480597E+02  0.29712301077E+03  0.11714828489E+03  0.32256091543E+03  0.00000000000E+00 0.  1.
<mgrwt>
<rscale>  4 0.31865238E+03</rscale>
<asrwt>0</asrwt>
<pdfrwt beam="1">  1       21 0.56940590E-01 0.31865238E+03</pdfrwt>
<pdfrwt beam="2">  1        2 0.45591418E-01 0.31865238E+03</pdfrwt>
<totfact> 0.38465589E+03</totfact>
</mgrwt>
</event>
<event>
 5    0  0.1014204E+000  0.3014040E+03  0.7546771E-02  0.1084541E+00
         21   -1    0    0  501  502  0.00000000000E+00  0.00000000000E+00  0.12321601299E+03  0.12321601299E+03  0.00000000000E+00 0.  1.
          2   -1    0    0  503    0 -0.00000000000E+00 -0.00000000000E+00 -0.10239778205E+04  0.10239778205E+04  0.00000000000E+00 0. -1.
         25    1    1    2    0    0  0.25568323618E+03  0.11421112401E+03 -0.18312082575E+03  0.35717829572E+03  0.12500000000E+03 0.  0.
         21    1    1    2  503  502  0.45636310444E+01 -0.57777623714E+02 -0.19518802314E+03  0.20361101372E+03  0.00000000000E+00 0. -1.
          2    1    1    2  501    0 -0.26024686723E+03 -0.56433500291E+02 -0.52245295858E+03  0.58640452402E+03  0.00000000000E+00 0. -1.
<mgrwt>
<rscale>  4 0.30140399E+03</rscale>
<asrwt>0</asrwt>
<pdfrwt beam="1">  1       21 0.18956310E-01 0.30140399E+03</pdfrwt>
<pdfrwt beam="2">  1        2 0.15753505E+00 0.30140399E+03</pdfrwt>
<totfact> 0.79892830E+03</totfact>
</mgrwt>
</event>
<event>
 5    0  0.1014204E+000  0.3505742E+03  0.7546771E-02  0.1062380E+00
         21   -1    0    0  501  502  0.00000000000E+00  0.00000000000E+00  0.68872291421E+03  0.68872291421E+03  0.00000000000E+00 0.  1.
          1   -1    0    0  503    0 -0.00000000000E+00 -0.00000000000E+00 -0.31979174709E+03  0.31979174709E+03  0.00000000000E+00 0.  1.
         25    1    1    2    0    0  0.91261484432E+02 -0.31159553602E+03  0.48994315966E+03  0.60090742740E+03  0.12500000000E+03 0.  0.
         21    1    1    2  503  502  0.25489113960E+02 -0.62381512813E+01 -0.57360325208E+02  0.63077859585E+02  0.00000000000E+00 0. -1.
          1    1    1    2  501    0 -0.11675059839E+03  0.31783368730E+03 -0.63651667338E+02  0.34452937431E+03  0.00000000000E+00 0.  1.
<mgrwt>
<rscale>  4 0.35057418E+03</rscale>
<asrwt>0</asrwt>
<pdfrwt beam="1">  1       21 0.10595737E+00 0.35057418E+03</pdfrwt>
<pdfrwt beam="2">  1        1 0.49198730E-01 0.35057418E+03</pdfrwt>
<totfact> 0.59000222E+02</totfact>
</mgrwt>
</event>
<event>
 5    0  0.1014204E+000  0.2722205E+03  0.7546771E-02  0.1100015E+00
          1   -1    0    0  503    0 -0.00000000000E+00  0.00000000000E+00  0.15300111584E+04  0.15300111584E+04  0.00000000000E+00 0.  1.
         21   -1    0    0  501  502  0.00000000000E+00 -0.00000000000E+00 -0.83297526756E+02  0.83297526756E+02  0.00000000000E+00 0.  1.
         25    1    1    2    0    0  0.19781709130E+03 -0.12839305485E+03  0.22399386024E+03  0.34844601815E+03  0.12500000000E+03 0.  0.
         21    1    1    2  503  502  0.38538468623E+02  0.16542693671E+02  0.38509837010E+03  0.38737530759E+03  0.00000000000E+00 0. -1.
          1    1    1    2  501    0 -0.23635555992E+03  0.11185036118E+03  0.83762140128E+03  0.87748735939E+03  0.00000000000E+00 0.  1.
<mgrwt>
<rscale>  4 0.27222046E+03</rscale>
<asrwt>0</asrwt>
<pdfrwt beam="1">  1       21 0.12815005E-01 0.27222046E+03</pdfrwt>
<pdfrwt beam="2">  1        1 0.23538631E+00 0.27222046E+03</pdfrwt>
<totfact> 0.39264615E+03</totfact>
</mgrwt>
</event>
<event>
 5    0  0.1014204E+000  0.2493371E+03  0.7546771E-02  0.1113724E+00
         21   -1    0    0  501  502  0.00000000000E+00  0.00000000000E+00  0.17332788406E+04  0.17332788406E+04  0.00000000000E+00 0. -1.
          1   -1    0    0  503    0 -0.00000000000E+00 -0.00000000000E+00 -0.49212912831E+03  0.49212912831E+03  0.00000000000E+00 0. -1.
         25    1    1    2    0    0  0.17844407354E+03 -0.12188254810E+03  0.16951905053E+04  0.17134741002E+04  0.12500000000E+03 0.  0.
         21    1    1    2  503  502 -0.19750333651E+02 -0.32085039883E+01 -0.11903163190E+03  0.12070169663E+03  0.00000000000E+00 0.  1.
          1    1    1    2  501    0 -0.15869373989E+03  0.12509105209E+03 -0.33500916112E+03  0.39123217203E+03  0.00000000000E+00 0. -1.
<mgrwt>
<rscale>  4 0.24933711E+03</rscale>
<asrwt>0</asrwt>
<pdfrwt beam="1">  1       21 0.26665828E+00 0.24933711E+03</pdfrwt>
<pdfrwt beam="2">  1        1 0.75712174E-01 0.24933711E+03</pdfrwt>
<totfact> 0.25419832E+01</totfact>
</mgrwt>
</event>
<event>
 5    0  0.1014204E+000  0.3723687E+03  0.7546771E-02  0.1053791E+00
         -2   -1    0    0    0  501 -0.00000000000E+00  0.00000000000E+00  0.47887633453E+03  0.47887633453E+03  0.00000000000E+00 0. -1.
         21   -1    0    0  503  502  0.00000000000E+00 -0.00000000000E+00 -0.69375015212E+03  0.69375015212E+03  0.00000000000E+00 0. -1.
         25    1    1    2    0    0 -0.33565607569E+03  0.17139102228E+03 -0.46357510632E+03  0.61038247261E+03  0.12500000000E+03 0.  0.
         21    1    1    2  503  501  0.83441487994E+02 -0.11313424737E+02  0.24970092554E+03  0.26351665548E+03  0.00000000000E+00 0. -1.
         -2    1    1    2    0  502  0.25221458770E+03 -0.16007759754E+03 -0.99963681723E+00  0.29872735857E+03  0.00000000000E+00 0. -1.
<mgrwt>
<rscale>  4 0.37236874E+03</rscale>
<asrwt>0</asrwt>
<pdfrwt beam="1">  1       21 0.10673079E+00 0.37236874E+03</pdfrwt>
<pdfrwt beam="2">  1       -2 0.73673282E-01 0.37236874E+03</pdfrwt>
<totfact> 0.90056448E+01</totfact>
</mgrwt>
</event>
<event>
 5    0  0.1014204E+000  0.3547100E+03  0.7546771E-02  0.1060698E+00
          2   -1    0    0  503    0 -0.00000000000E+00  0.00000000000E+00  0.76379273551E+03  0.76379273551E+03  0.00000000000E+00 0. -1.
         21   -1    0    0  501  502  0.00000000000E+00 -0.00000000000E+00 -0.48058856265E+03  0.48058856265E+03  0.00000000000E+00 0.  1.
         25    1    1    2    0    0 -0.23942390870E+03 -0.22482977892E+03 -0.34650347520E+03  0.49351990423E+03  0.12500000000E+03 0.  0.
         21    1    1    2  503  502 -0.96566779099E+00 -0.44495491428E+02  0.10415374132E+03  0.11326421810E+03  0.00000000000E+00 0. -1.
          2    1    1    2  501    0  0.24038957649E+03  0.26932527035E+03  0.52555390674E+03  0.63759717583E+03  0.00000000000E+00 0. -1.
<mgrwt>
<rscale>  4 0.35471000E+03</rscale>
<asrwt>0</asrwt>
<pdfrwt beam="1">  1       21 0.73936701E-01 0.35471000E+03</pdfrwt>
<pdfrwt beam="2">  1        2 0.11750658E+00 0.35471000E+03</pdfrwt>
<totfact> 0.72574252E+02</totfact>
</mgrwt>
</event>
<event>
 5    0  0.1014204E+000  0.4018889E+03  0.7546771E-02  0.1043128E+00
         -2   -1    0    0    0  501 -0.00000000000E+00  0.00000000000E+00  0.88604706467E+02  0.88604706467E+02  0.00000000000E+00 0. -1.
         21   -1    0    0  503  502  0.00000000000E+00 -0.00000000000E+00 -0.26288184615E+04  0.26288184615E+04  0.00000000000E+00 0. -1.
         25    1    1    2    0    0  0.49125882538E+01  0.37751041867E+03 -0.19724937016E+04  0.20121865353E+04  0.12500000000E+03 0.  0.
         21    1    1    2  503  501 -0.61759130778E+01  0.19255093121E+02 -0.41831232406E+02  0.46462377448E+02  0.00000000000E+00 0.  1.
         -2    1    1    2    0  502  0.12633248240E+01 -0.39676551179E+03 -0.52588882098E+03  0.65877425524E+03  0.00000000000E+00 0. -1.
<mgrwt>
<rscale>  4 0.40188885E+03</rscale>
<asrwt>0</asrwt>
<pdfrwt beam="1">  1       21 0.40443356E+00 0.40188885E+03</pdfrwt>
<pdfrwt beam="2">  1       -2 0.13631495E-01 0.40188885E+03</pdfrwt>
<totfact> 0.21248132E+01</totfact>
</mgrwt>
</event>
<event>
 5    0  0.1014204E+000  0.2905685E+03  0.7546771E-02  0.1090053E+00
         21   -1    0    0  501  502  0.00000000000E+00  0.00000000000E+00  0.49738731181E+03  0.49738731181E+03  0.00000000000E+00 0.  1.
          2   -1    0    0  503    0 -0.00000000000E+00 -0.00000000000E+00 -0.45273517613E+03  0.45273517613E+03  0.00000000000E+00 0.  1.
         25    1    1    2    0    0 -0.25572106516E+03  0.70540677929E+02  0.39134924294E+03  0.48902809771E+03  0.12500000000E+03 0.  0.
         21    1    1    2  503  502  0.12728788346E+02 -0.49681721939E+02 -0.24058247896E+02  0.56648873241E+02  0.00000000000E+00 0.  1.
          2    1    1    2  501    0  0.24299227681E+03 -0.20858955990E+02 -0.32263885936E+03  0.40444551698E+03  0.00000000000E+00 0.  1.
<mgrwt>
<rscale>  4 0.29056846E+03</rscale>
<asrwt>0</asrwt>
<pdfrwt beam="1">  1       21 0.76521125E-01 0.29056846E+03</pdfrwt>
<pdfrwt beam="2">  1        2 0.69651565E-01 0.29056846E+03</pdfrwt>
<totfact> 0.12691543E+03</totfact>
</mgrwt>
</event>
<event>
 5    0  0.1014204E+000  0.6284032E+03  0.7546771E-02  0.9848170E-01
         -1   -1    0    0    0  501 -0.00000000000E+00  0.00000000000E+00  0.67095182593E+03  0.67095182593E+03  0.00000000000E+00 0. -1.
         21   -1    0    0  503  502  0.00000000000E+00 -0.00000000000E+00 -0.12196707781E+04  0.12196707781E+04  0.00000000000E+00 0. -1.
         25    1    1    2    0    0 -0.26452623967E+03  0.54263391959E+03 -0.78784930893E+03  0.10003785462E+04  0.12500000000E+03 0.  0.
         21    1    1    2  503  501 -0.67317777710E+02 -0.20333989589E+02 -0.14552891174E+03  0.16162864375E+03  0.00000000000E+00 0.  1.
         -1    1    1    2    0  502  0.33184401738E+03 -0.52229993001E+03  0.38465926850E+03  0.72861541405E+03  0.00000000000E+00 0. -1.
<mgrwt>
<rscale>  4 0.62840319E+03</rscale>
<asrwt>0</asrwt>
<pdfrwt beam="1">  1       21 0.18764166E+00 0.62840319E+03</pdfrwt>
<pdfrwt beam="2">  1       -1 0.10322336E+00 0.62840319E+03</pdfrwt>
<totfact> 0.11229777E+01</totfact>
</mgrwt>
</event>
<event>
 5    0  0.1014204E+000  0.2566214E+03  0.7546771E-02  0.1109190E+00
          2   -1    0    0  503    0 -0.00000000000E+00  0.00000000000E+00  0.21505447967E+04  0.21505447967E+04  0.00000000000E+00 0. -1.
         21   -1    0    0  501  502  0.00000000000E+00 -0.00000000000E+00 -0.46448868557E+02  0.46448868557E+02  0.00000000000E+00 0. -1.
         25    1    1    2    0    0  0.13138288176E+03  0.18157120520E+03  0.38362396568E+03  0.46154296791E+03  0.12500000000E+03 0.  0.
         21    1    1    2  503  502 -0.56486339345E+01 -0.25474521278E+02  0.15199099708E+03  0.15421453074E+03  0.00000000000E+00 0.  1.
          2    1    1    2  501    0 -0.12573424783E+03 -0.15609668393E+03  0.15684809653E+04  0.15812361666E+04  0.00000000000E+00 0. -1.
<mgrwt>
<rscale>  4 0.25662144E+03</rscale>
<asrwt>0</asrwt>
<pdfrwt beam="1">  1       21 0.71459814E-02 0.25662144E+03</pdfrwt>
<pdfrwt beam="2">  1        2 0.33085297E+00 0.25662144E+03</pdfrwt>
<totfact> 0.11456557E+04</totfact>
</mgrwt>
</event>
<event>
 5    0  0.1014204E+000  0.3391947E+03  0.7546771E-02  0.1067139E+00
          2   -1    0    0  503    0 -0.00000000000E+00  0.00000000000E+00  0.34270538261E+04  0.34270538261E+04  0.00000000000E+00 0. -1.
         21   -1    0    0  501  502  0.00000000000E+00 -0.00000000000E+00 -0.15686268280E+03  0.15686268280E+03  0.00000000000E+00 0. -1.
         25    1    1    2    0    0  0.14154242405E+03  0.28250364862E+03  0.47046271313E+02  0.34304652882E+03  0.12500000000E+03 0.  0.
         21    1    1    2  503  502  0.21092556560E+02 -0.22174395133E+02  0.36880855993E+03  0.37007614571E+03  0.00000000000E+00 0.  1.
          2    1    1    2  501    0 -0.16263498061E+03 -0.26032925349E+03  0.28543363121E+04  0.28707938344E+04  0.00000000000E+00 0. -1.
<mgrwt>
<rscale>  4 0.33919472E+03</rscale>
<asrwt>0</asrwt>
<pdfrwt beam="1">  1       21 0.24132723E-01 0.33919472E+03</pdfrwt>
<pdfrwt beam="2">  1        2 0.52723899E+00 0.33919472E+03</pdfrwt>
<totfact> 0.21823931E+02</totfact>
</mgrwt>
</event>
<event>
 5    0  0.1014204E+000  0.2569830E+03  0.7546771E-02  0.1108970E+00
         21   -1    0    0  501  502  0.00000000000E+00  0.00000000000E+00  0.92822630343E+02  0.92822630343E+02  0.00000000000E+00 0. -1.
          2   -1    0    0  503    0 -0.00000000000E+00 -0.00000000000E+00 -0.13501554096E+04  0.13501554096E+04  0.00000000000E+00 0. -1.
         25    1    1    2    0    0  0.17680046857E+03  0.13956230824E+03 -0.15611920609E+03  0.30122126432E+03  0.12500000000E+03 0.  0.
         21    1    1    2  503  502  0.11445255426E+02 -0.19263402925E+02 -0.49799305347E+03  0.49849689454E+03  0.00000000000E+00 0. -1.
          2    1    1    2  501    0 -0.18824572400E+03 -0.12029890532E+03 -0.60322051973E+03  0.64325988111E+03  0.00000000000E+00 0. -1.
<mgrwt>
<rscale>  4 0.25698300E+03</rscale>
<asrwt>0</asrwt>
<pdfrwt beam="1">  1       21 0.14280405E-01 0.25698300E+03</pdfrwt>
<pdfrwt beam="2">  1        2 0.20771621E+00 0.25698300E+03</pdfrwt>
<totfact> 0.88631617E+03</totfact>
</mgrwt>
</event>
<event>
 5    0  0.1014204E+000  0.2481993E+03  0.7546771E-02  0.1114448E+00
         21   -1    0    0  501  502  0.00000000000E+00  0.00000000000E+00  0.14963329837E+03  0.14963329837E+03  0.00000000000E+00 0. -1.
          1   -1    0    0  503    0 -0.00000000000E+00 -0.00000000000E+00 -0.15746248856E+04  0.15746248856E+04  0.00000000000E+00 0.  1.
         25    1    1    2    0    0  0.20543366719E+03 -0.61440084869E+02  0.32749356978E+02  0.25035054628E+03  0.12500000000E+03 0.  0.
         21    1    1    2  503  502 -0.19255697959E+02  0.16804223461E+02 -0.13716926430E+03  0.13952982082E+03  0.00000000000E+00 0. -1.
          1    1    1    2  501    0 -0.18617796923E+03  0.44635861408E+02 -0.13205716799E+04  0.13343778168E+04  0.00000000000E+00 0.  1.
<mgrwt>
<rscale>  4 0.24819927E+03</rscale>
<asrwt>0</asrwt>
<pdfrwt beam="1">  1       21 0.23020510E-01 0.24819927E+03</pdfrwt>
<pdfrwt beam="2">  1        1 0.24224996E+00 0.24819927E+03</pdfrwt>
<totfact> 0.12491496E+03</totfact>
</mgrwt>
</event>
<event>
 5    0  0.1014204E+000  0.4859682E+03  0.7546771E-02  0.1017508E+00
         21   -1    0    0  503  502  0.00000000000E+00  0.00000000000E+00  0.45810530189E+03  0.45810530189E+03  0.00000000000E+00 0. -1.
         -2   -1    0    0    0  501 -0.00000000000E+00 -0.00000000000E+00 -0.10538363467E+04  0.10538363467E+04  0.00000000000E+00 0. -1.
         25    1    1    2    0    0 -0.29983905166E+03  0.37402094516E+03 -0.19675119568E+02  0.49578950640E+03  0.12500000000E+03 0.  0.
         21    1    1    2  503  501  0.20064001417E+03  0.10272567778E+03 -0.46490834848E+03  0.51667083587E+03  0.00000000000E+00 0.  1.
         -2    1    1    2    0  502  0.99199037494E+02 -0.47674662294E+03 -0.11114757675E+03  0.49948130630E+03  0.00000000000E+00 0. -1.
<mgrwt>
<rscale>  4 0.48596820E+03</rscale>
<asrwt>0</asrwt>
<pdfrwt beam="1">  1       21 0.70477740E-01 0.48596820E+03</pdfrwt>
<pdfrwt beam="2">  1       -2 0.16212867E+00 0.48596820E+03</pdfrwt>
<totfact> 0.34490518E+01</totfact>
</mgrwt>
</event>
<event>
 5    0  0.1014204E+000  0.2330001E+03  0.7546771E-02  0.1124546E+00
         21   -1    0    0  501  502  0.00000000000E+00  0.00000000000E+00  0.14075263718E+04  0.14075263718E+04  0.00000000000E+00 0.  1.
          2   -1    0    0  503    0 -0.00000000000E+00 -0.00000000000E+00 -0.59624355558E+02  0.59624355558E+02  0.00000000000E+00 0.  1.
         25    1    1    2    0    0  0.20065812462E+03  0.33903593832E+02  0.11359405367E+04  0.11607751891E+04  0.12500000000E+03 0.  0.
         21    1    1    2  503  502 -0.21738235290E+02 -0.31699966809E+02  0.17866806726E+02  0.42387044622E+02  0.00000000000E+00 0. -1.
          2    1    1    2  501    0 -0.17891988933E+03 -0.22036270227E+01  0.19409467283E+03  0.26398849367E+03  0.00000000000E+00 0.  1.
<mgrwt>
<rscale>  4 0.23300009E+03</rscale>
<asrwt>0</asrwt>
<pdfrwt beam="1">  1       21 0.21654249E+00 0.23300009E+03</pdfrwt>
<pdfrwt beam="2">  1        2 0.91729788E-02 0.23300009E+03</pdfrwt>
<totfact> 0.88900814E+02</totfact>
</mgrwt>
</event>
<event>
 5    0  0.1014204E+000  0.2944608E+03  0.7546771E-02  0.1088043E+00
         21   -1    0    0  501  502  0.00000000000E+00  0.00000000000E+00  0.90217096156E+03  0.90217096156E+03  0.00000000000E+00 0.  1.
          1   -1    0    0  503    0 -0.00000000000E+00 -0.00000000000E+00 -0.63519638185E+03  0.63519638185E+03  0.00000000000E+00 0.  1.
         25    1    1    2    0    0  0.15819653084E+03 -0.21436576726E+03  0.84205005909E+03  0.89199334445E+03  0.12500000000E+03 0.  0.
         21    1    1    2  503  502  0.18811783240E+02  0.81155091523E+01 -0.30512565966E+02  0.36752705469E+02  0.00000000000E+00 0.  1.
          1    1    1    2  501    0 -0.17700831408E+03  0.20625025810E+03 -0.54456291341E+03  0.60862129349E+03  0.00000000000E+00 0.  1.
<mgrwt>
<rscale>  4 0.29446084E+03</rscale>
<asrwt>0</asrwt>
<pdfrwt beam="1">  1       21 0.13879553E+00 0.29446084E+03</pdfrwt>
<pdfrwt beam="2">  1        1 0.97722520E-01 0.29446084E+03</pdfrwt>
<totfact> 0.12298036E+02</totfact>
</mgrwt>
</event>
<event>
 5    0  0.1014204E+000  0.2495221E+03  0.7546771E-02  0.1113607E+00
          2   -1    0    0  503    0 -0.00000000000E+00  0.00000000000E+00  0.88357737317E+03  0.88357737317E+03  0.00000000000E+00 0.  1.
         21   -1    0    0  501  502  0.00000000000E+00 -0.00000000000E+00 -0.12201326686E+03  0.12201326686E+03  0.00000000000E+00 0.  1.
         25    1    1    2    0    0  0.17623492881E+03 -0.12480990693E+03  0.41490936643E+02  0.25294813861E+03  0.12500000000E+03 0.  0.
         21    1    1    2  503  502 -0.18498530618E+02  0.10903343510E+02  0.11720424484E+03  0.11915499798E+03  0.00000000000E+00 0.  1.
          2    1    1    2  501    0 -0.15773639820E+03  0.11390656342E+03  0.60286892483E+03  0.63348750345E+03  0.00000000000E+00 0.  1.
<mgrwt>
<rscale>  4 0.24952207E+03</rscale>
<asrwt>0</asrwt>
<pdfrwt beam="1">  1       21 0.18771272E-01 0.24952207E+03</pdfrwt>
<pdfrwt beam="2">  1        2 0.13593498E+00 0.24952207E+03</pdfrwt>
<totfact> 0.10099825E+04</totfact>
</mgrwt>
</event>
<event>
 5    0  0.1014204E+000  0.2700481E+03  0.7546771E-02  0.1101252E+00
         -2   -1    0    0    0  501 -0.00000000000E+00  0.00000000000E+00  0.57101555030E+03  0.57101555030E+03  0.00000000000E+00 0. -1.
         21   -1    0    0  503  502  0.00000000000E+00 -0.00000000000E+00 -0.20495087402E+03  0.20495087402E+03  0.00000000000E+00 0.  1.
         25    1    1    2    0    0  0.99040835815E+02  0.21020013685E+03 -0.40519795422E+02  0.26694575949E+03  0.12500000000E+03 0.  0.
         21    1    1    2  503  501  0.11364922016E+02  0.31789691721E+02  0.18393130838E+02  0.38445457653E+02  0.00000000000E+00 0.  1.
         -2    1    1    2    0  502 -0.11040575783E+03 -0.24198982857E+03  0.38819134086E+03  0.47057520718E+03  0.00000000000E+00 0. -1.
<mgrwt>
<rscale>  4 0.27004815E+03</rscale>
<asrwt>0</asrwt>
<pdfrwt beam="1">  1       21 0.31530904E-01 0.27004815E+03</pdfrwt>
<pdfrwt beam="2">  1       -2 0.87848545E-01 0.27004815E+03</pdfrwt>
<totfact> 0.89457763E+02</totfact>
</mgrwt>
</event>
<event>
 5    0  0.1014204E+000  0.2868479E+03  0.7546771E-02  0.1092006E+00
          2   -1    0    0  503    0 -0.00000000000E+00  0.00000000000E+00  0.47392694606E+03  0.47392694606E+03  0.00000000000E+00 0.  1.
         21   -1    0    0  501  502  0.00000000000E+00 -0.00000000000E+00 -0.46565648830E+03  0.46565648830E+03  0.00000000000E+00 0.  1.
         25    1    1    2    0    0  0.19200867274E+03 -0.17139439462E+03 -0.36418426198E+03  0.46313987691E+03  0.12500000000E+03 0.  0.
         21    1    1    2  503  502 -0.11680458271E+02 -0.22655351667E+02  0.69394532788E+02  0.73927662248E+02  0.00000000000E+00 0.  1.
          2    1    1    2  501    0 -0.18032821447E+03  0.19404974629E+03  0.30306018695E+03  0.40251589519E+03  0.00000000000E+00 0.  1.
<mgrwt>
<rscale>  4 0.28684786E+03</rscale>
<asrwt>0</asrwt>
<pdfrwt beam="1">  1       21 0.71639460E-01 0.28684786E+03</pdfrwt>
<pdfrwt beam="2">  1        2 0.72911837E-01 0.28684786E+03</pdfrwt>
<totfact> 0.14007642E+03</totfact>
</mgrwt>
</event>
<event>
 5    0  0.1014204E+000  0.2705693E+03  0.7546771E-02  0.1100954E+00
         21   -1    0    0  501  502  0.00000000000E+00  0.00000000000E+00  0.20333270071E+03  0.20333270071E+03  0.00000000000E+00 0. -1.
          2   -1    0    0  503    0 -0.00000000000E+00 -0.00000000000E+00 -0.12947656693E+04  0.12947656693E+04  0.00000000000E+00 0. -1.
         25    1    1    2    0    0  0.44938890102E+02 -0.23745123958E+03  0.87234976387E+02  0.28572283095E+03  0.12500000000E+03 0.  0.
         21    1    1    2  503  502 -0.33203323330E+02  0.15494511773E+02 -0.49759110387E+02  0.61794090670E+02  0.00000000000E+00 0.  1.
          2    1    1    2  501    0 -0.11735566772E+02  0.22195672780E+03 -0.11289088346E+04  0.11505814484E+04  0.00000000000E+00 0. -1.
<mgrwt>
<rscale>  4 0.27056932E+03</rscale>
<asrwt>0</asrwt>
<pdfrwt beam="1">  1       21 0.31281953E-01 0.27056932E+03</pdfrwt>
<pdfrwt beam="2">  1        2 0.19919472E+00 0.27056932E+03</pdfrwt>
<totfact> 0.21434885E+03</totfact>
</mgrwt>
</event>
<event>
 5    0  0.1014204E+000  0.2980727E+03  0.7546771E-02  0.1086208E+00
          1   -1    0    0  503    0 -0.00000000000E+00  0.00000000000E+00  0.72309733557E+03  0.72309733557E+03  0.00000000000E+00 0. -1.
         21   -1    0    0  501  502  0.00000000000E+00 -0.00000000000E+00 -0.57363882685E+03  0.57363882685E+03  0.00000000000E+00 0.  1.
         25    1    1    2    0    0 -0.19083398603E+03 -0.18789518046E+03 -0.48350221457E+03  0.56667592199E+03  0.12500000000E+03 0.  0.
         21    1    1    2  503  502 -0.14024094084E+02 -0.47755751369E+02  0.64300141703E+02  0.81312946243E+02  0.00000000000E+00 0.  1.
          1    1    1    2  501    0  0.20485808012E+03  0.23565093183E+03  0.56866058159E+03  0.64874729418E+03  0.00000000000E+00 0. -1.
<mgrwt>
<rscale>  4 0.29807267E+03</rscale>
<asrwt>0</asrwt>
<pdfrwt beam="1">  1       21 0.88252127E-01 0.29807267E+03</pdfrwt>
<pdfrwt beam="2">  1        1 0.11124574E+00 0.29807267E+03</pdfrwt>
<totfact> 0.31002901E+02</totfact>
</mgrwt>
</event>
<event>
 5    0  0.1014204E+000  0.2577754E+03  0.7546771E-02  0.1108487E+00
         21   -1    0    0  501  502  0.00000000000E+00  0.00000000000E+00  0.34198093307E+02  0.34198093307E+02  0.00000000000E+00 0.  1.
          2   -1    0    0  503    0 -0.00000000000E+00 -0.00000000000E+00 -0.25058591140E+04  0.25058591140E+04  0.00000000000E+00 0. -1.
         25    1    1    2    0    0  0.19017187371E+03  0.12655682909E+03 -0.63426819925E+03  0.68564066472E+03  0.12500000000E+03 0.  0.
         21    1    1    2  503  502 -0.25179550890E+02  0.18282788918E+02 -0.23794935974E+03  0.23997534864E+03  0.00000000000E+00 0.  1.
          2    1    1    2  501    0 -0.16499232281E+03 -0.14483961801E+03 -0.15994434617E+04  0.16144411940E+04  0.00000000000E+00 0. -1.
<mgrwt>
<rscale>  4 0.25777544E+03</rscale>
<asrwt>0</asrwt>
<pdfrwt beam="1">  1       21 0.52612434E-02 0.25777544E+03</pdfrwt>
<pdfrwt beam="2">  1        2 0.38551691E+00 0.25777544E+03</pdfrwt>
<totfact> 0.12511627E+04</totfact>
</mgrwt>
</event>
<event>
 5    0  0.1014204E+000  0.2668791E+03  0.7546771E-02  0.1103079E+00
          2   -1    0    0  503    0 -0.00000000000E+00  0.00000000000E+00  0.26318230191E+04  0.26318230191E+04  0.00000000000E+00 0.  1.
         21   -1    0    0  501  502  0.00000000000E+00 -0.00000000000E+00 -0.14513469145E+03  0.14513469145E+03  0.00000000000E+00 0. -1.
         25    1    1    2    0    0 -0.50932663617E+02  0.20069881122E+03 -0.12931670704E+02  0.24221143068E+03  0.12500000000E+03 0.  0.
         21    1    1    2  503  502 -0.74873163484E+02  0.81220740213E+00  0.10835197119E+03  0.13170725095E+03  0.00000000000E+00 0.  1.
          2    1    1    2  501    0  0.12580582710E+03 -0.20151101862E+03  0.23912680271E+04  0.24030390289E+04  0.00000000000E+00 0.  1.
<mgrwt>
<rscale>  4 0.26687911E+03</rscale>
<asrwt>0</asrwt>
<pdfrwt beam="1">  1       21 0.22328416E-01 0.26687911E+03</pdfrwt>
<pdfrwt beam="2">  1        2 0.40489581E+00 0.26687911E+03</pdfrwt>
<totfact> 0.79311031E+02</totfact>
</mgrwt>
</event>
<event>
 5    0  0.1014204E+000  0.3838508E+03  0.7546771E-02  0.1049520E+00
         21   -1    0    0  501  502  0.00000000000E+00  0.00000000000E+00  0.12521873926E+03  0.12521873926E+03  0.00000000000E+00 0. -1.
          2   -1    0    0  503    0 -0.00000000000E+00 -0.00000000000E+00 -0.15729514081E+04  0.15729514081E+04  0.00000000000E+00 0. -1.
         25    1    1    2    0    0  0.23879793772E+03  0.19738195856E+03 -0.53360375838E+03  0.62955703759E+03  0.12500000000E+03 0.  0.
         21    1    1    2  503  502  0.77637543728E+02  0.91857797399E+02 -0.26063555600E+03  0.28704762008E+03  0.00000000000E+00 0.  1.
          2    1    1    2  501    0 -0.31643548145E+03 -0.28923975596E+03 -0.65349335441E+03  0.78156548965E+03  0.00000000000E+00 0. -1.
<mgrwt>
<rscale>  4 0.38385077E+03</rscale>
<asrwt>0</asrwt>
<pdfrwt beam="1">  1       21 0.19264421E-01 0.38385077E+03</pdfrwt>
<pdfrwt beam="2">  1        2 0.24199253E+00 0.38385077E+03</pdfrwt>
<totfact> 0.37170416E+03</totfact>
</mgrwt>
</event>
<event>
 5    0  0.1014204E+000  0.2900251E+03  0.7546771E-02  0.1090336E+00
         21   -1    0    0  501  502  0.00000000000E+00  0.00000000000E+00  0.39651596072E+03  0.39651596072E+03  0.00000000000E+00 0.  1.
          2   -1    0    0  503    0 -0.00000000000E+00 -0.00000000000E+00 -0.13503679796E+04  0.13503679796E+04  0.00000000000E+00 0. -1.
         25    1    1    2    0    0  0.22162129669E+03 -0.13918900259E+03  0.32758353316E+03  0.43752205519E+03  0.12500000000E+03 0.  0.
         21    1    1    2  503  502 -0.20503596777E+02  0.32883448039E+02 -0.26222603747E+03  0.26507397715E+03  0.00000000000E+00 0. -1.
          2    1    1    2  501    0 -0.20111769991E+03  0.10630555455E+03 -0.10192095146E+04  0.10442879080E+04  0.00000000000E+00 0. -1.
<mgrwt>
<rscale>  4 0.29002513E+03</rscale>
<asrwt>0</asrwt>
<pdfrwt beam="1">  1       21 0.61002455E-01 0.29002513E+03</pdfrwt>
<pdfrwt beam="2">  1        2 0.20774892E+00 0.29002513E+03</pdfrwt>
<totfact> 0.49789167E+02</totfact>
</mgrwt>
</event>
<event>
 5    0  0.1014204E+000  0.3026275E+03  0.7546771E-02  0.1083934E+00
         21   -1    0    0  501  502  0.00000000000E+00  0.00000000000E+00  0.33690953827E+03  0.33690953827E+03  0.00000000000E+00 0. -1.
          2   -1    0    0  503    0 -0.00000000000E+00 -0.00000000000E+00 -0.47655531608E+03  0.47655531608E+03  0.00000000000E+00 0. -1.
         25    1    1    2    0    0  0.21364995896E+03 -0.23010597158E+03  0.12131946448E+03  0.35908004063E+03  0.12500000000E+03 0.  0.
         21    1    1    2  503  502 -0.68352012700E+02  0.21424087259E+03 -0.14233916546E+03  0.26614204319E+03  0.00000000000E+00 0. -1.
          2    1    1    2  501    0 -0.14529794626E+03  0.15865098984E+02 -0.11862607683E+03  0.18824277053E+03  0.00000000000E+00 0. -1.
<mgrwt>
<rscale>  4 0.30262746E+03</rscale>
<asrwt>0</asrwt>
<pdfrwt beam="1">  1       21 0.51832237E-01 0.30262746E+03</pdfrwt>
<pdfrwt beam="2">  1        2 0.73316202E-01 0.30262746E+03</pdfrwt>
<totfact> 0.28023938E+03</totfact>
</mgrwt>
</event>
<event>
 5    0  0.1014204E+000  0.3929998E+03  0.7546771E-02  0.1046231E+00
          2   -1    0    0  503    0 -0.00000000000E+00  0.00000000000E+00  0.18510424414E+03  0.18510424414E+03  0.00000000000E+00 0.  1.
         21   -1    0    0  501  502  0.00000000000E+00 -0.00000000000E+00 -0.87959200657E+03  0.87959200657E+03  0.00000000000E+00 0.  1.
         25    1    1    2    0    0 -0.13220321310E+03  0.32845823182E+03 -0.35563145987E+03  0.51716654461E+03  0.12500000000E+03 0.  0.
         21    1    1    2  503  502 -0.25182952323E+02  0.27269180967E+02 -0.53422307051E+02  0.65051765609E+02  0.00000000000E+00 0. -1.
          2    1    1    2  501    0  0.15738616543E+03 -0.35572741279E+03 -0.28543399550E+03  0.48247794050E+03  0.00000000000E+00 0.  1.
<mgrwt>
<rscale>  4 0.39299982E+03</rscale>
<asrwt>0</asrwt>
<pdfrwt beam="1">  1       21 0.13532185E+00 0.39299982E+03</pdfrwt>
<pdfrwt beam="2">  1        2 0.28477576E-01 0.39299982E+03</pdfrwt>
<totfact> 0.82464109E+02</totfact>
</mgrwt>
</event>
<event>
 5    0  0.1014204E+000  0.2895040E+03  0.7546771E-02  0.1090608E+00
         21   -1    0    0  501  502  0.00000000000E+00  0.00000000000E+00  0.32405887883E+03  0.32405887883E+03  0.00000000000E+00 0. -1.
          1   -1    0    0  503    0 -0.00000000000E+00 -0.00000000000E+00 -0.60700309508E+03  0.60700309508E+03  0.00000000000E+00 0.  1.
         25    1    1    2    0    0  0.16943684345E+03 -0.20637187031E+03  0.19749623378E+03  0.35486329076E+03  0.12500000000E+03 0.  0.
         21    1    1    2  503  502 -0.74411912605E+02 -0.89589166898E+01 -0.67364830631E+02  0.10077408065E+03  0.00000000000E+00 0.  1.
          1    1    1    2  501    0 -0.95024930849E+02  0.21533078700E+03 -0.41307561940E+03  0.47542460249E+03  0.00000000000E+00 0.  1.
<mgrwt>
<rscale>  4 0.28950402E+03</rscale>
<asrwt>0</asrwt>
<pdfrwt beam="1">  1       21 0.49855212E-01 0.28950402E+03</pdfrwt>
<pdfrwt beam="2">  1        1 0.93385091E-01 0.28950402E+03</pdfrwt>
<totfact> 0.14155942E+03</totfact>
</mgrwt>
</event>
<event>
 5    0  0.1014204E+000  0.2654538E+03  0.7546771E-02  0.1103910E+00
         21   -1    0    0  501  502  0.00000000000E+00  0.00000000000E+00  0.59380533782E+03  0.59380533782E+03  0.00000000000E+00 0. -1.
          4   -1    0    0  503    0 -0.00000000000E+00 -0.00000000000E+00 -0.15515656980E+03  0.15515656980E+03  0.00000000000E+00 0. -1.
         25    1    1    2    0    0 -0.19647785658E+03 -0.11225618414E+03  0.11756376244E+03  0.28399161474E+03  0.12500000000E+03 0.  0.
         21    1    1    2  503  502  0.19401839236E+01 -0.24765019540E+02 -0.31182689325E+02  0.39867663840E+02  0.00000000000E+00 0.  1.
          4    1    1    2  501    0  0.19453767266E+03  0.13702120368E+03  0.35226769491E+03  0.42510262904E+03  0.00000000000E+00 0. -1.
<mgrwt>
<rscale>  4 0.26545383E+03</rscale>
<asrwt>0</asrwt>
<pdfrwt beam="1">  1       21 0.91354666E-01 0.26545383E+03</pdfrwt>
<pdfrwt beam="2">  1        4 0.23870242E-01 0.26545383E+03</pdfrwt>
<totfact> 0.69206375E+02</totfact>
</mgrwt>
</event>
<event>
 5    0  0.1014204E+000  0.2399760E+03  0.7546771E-02  0.1119809E+00
          1   -1    0    0  503    0 -0.00000000000E+00  0.00000000000E+00  0.55192047246E+03  0.55192047246E+03  0.00000000000E+00 0.  1.
         21   -1    0    0  501  502  0.00000000000E+00 -0.00000000000E+00 -0.31424086284E+03  0.31424086284E+03  0.00000000000E+00 0.  1.
         25    1    1    2    0    0 -0.46279952409E+02 -0.20368965751E+03 -0.22893168273E+03  0.33416466888E+03  0.12500000000E+03 0.  0.
         21    1    1    2  503  502  0.35433201139E+02  0.18368369911E+02  0.21855008785E+03  0.22216446533E+03  0.00000000000E+00 0.  1.
          1    1    1    2  501    0  0.10846751271E+02  0.18532128760E+03  0.24806120450E+03  0.30983220108E+03  0.00000000000E+00 0.  1.
<mgrwt>
<rscale>  4 0.23997601E+03</rscale>
<asrwt>0</asrwt>
<pdfrwt beam="1">  1       21 0.48344748E-01 0.23997601E+03</pdfrwt>
<pdfrwt beam="2">  1        1 0.84910842E-01 0.23997601E+03</pdfrwt>
<totfact> 0.17523257E+03</totfact>
</mgrwt>
</event>
