<event>
 5    0  0.1141006E+000  0.2577156E+03  0.7546771E-02  0.1108524E+00
         21   -1    0    0  503  502  0.00000000000E+00  0.00000000000E+00  0.43362302054E+03  0.43362302054E+03  0.00000000000E+00 0. -1.
         -2   -1    0    0    0  501 -0.00000000000E+00 -0.00000000000E+00 -0.73716736061E+03  0.73716736061E+03  0.00000000000E+00 0. -1.
         25    1    1    2    0    0  0.72484058509E+02  0.21036684979E+03  0.35650580343E+03  0.43843989110E+03  0.12500000000E+03 0.  0.
         21    1    1    2  503  501  0.37505772184E+02  0.29387476646E+02 -0.16064865899E+03  0.16756580309E+03  0.00000000000E+00 0. -1.
         -2    1    1    2    0  502 -0.10998983069E+03 -0.23975432643E+03 -0.49940148451E+03  0.56478468697E+03  0.00000000000E+00 0. -1.
<mgrwt>
<rscale>  4 0.25771563E+03</rscale>
<asrwt>0</asrwt>
<pdfrwt beam="1">  1       21 0.66711235E-01 0.25771563E+03</pdfrwt>
<pdfrwt beam="2">  1       -2 0.11341036E+00 0.25771563E+03</pdfrwt>
<totfact> 0.10432544E+02</totfact>
</mgrwt>
</event>
<event>
 5    0  0.1141006E+000  0.3574410E+03  0.7546771E-02  0.1059602E+00
         21   -1    0    0  501  502  0.00000000000E+00  0.00000000000E+00  0.50151688891E+03  0.50151688891E+03  0.00000000000E+00 0. -1.
          2   -1    0    0  503    0 -0.00000000000E+00 -0.00000000000E+00 -0.15557424783E+04  0.15557424783E+04  0.00000000000E+00 0.  1.
         25    1    1    2    0    0 -0.27861106198E+03  0.18914217704E+03  0.40857110221E+03  0.54401675760E+03  0.12500000000E+03 0.  0.
         21    1    1    2  503  502  0.11801161660E+02 -0.33792827409E+02 -0.51894916595E+03  0.52018214064E+03  0.00000000000E+00 0.  1.
          2    1    1    2  501    0  0.26680990032E+03 -0.15534934963E+03 -0.94384752564E+03  0.99306046895E+03  0.00000000000E+00 0.  1.
<mgrwt>
<rscale>  4 0.35744101E+03</rscale>
<asrwt>0</asrwt>
<pdfrwt beam="1">  1       21 0.77156446E-01 0.35744101E+03</pdfrwt>
<pdfrwt beam="2">  1        2 0.23934499E+00 0.35744101E+03</pdfrwt>
<totfact> 0.22109121E+02</totfact>
</mgrwt>
</event>
<event>
 5    0  0.1141006E+000  0.7339629E+03  0.7546771E-02  0.9660851E-01
         21   -1    0    0  501  502  0.00000000000E+00  0.00000000000E+00  0.12069741774E+04  0.12069741774E+04  0.00000000000E+00 0.  1.
          2   -1    0    0  503    0 -0.00000000000E+00 -0.00000000000E+00 -0.12765048799E+04  0.12765048799E+04  0.00000000000E+00 0. -1.
         25    1    1    2    0    0  0.22577293387E+03  0.68811149715E+03  0.94991798362E+03  0.12010162471E+04  0.12500000000E+03 0.  0.
         21    1    1    2  503  502 -0.48690477522E+02  0.66179868478E+01 -0.13662005946E+03  0.14518815722E+03  0.00000000000E+00 0. -1.
          2    1    1    2  501    0 -0.17708245635E+03 -0.69472948399E+03 -0.88282862661E+03  0.11372746529E+04  0.00000000000E+00 0. -1.
<mgrwt>
<rscale>  4 0.73396293E+03</rscale>
<asrwt>0</asrwt>
<pdfrwt beam="1">  1       21 0.18568833E+00 0.73396293E+03</pdfrwt>
<pdfrwt beam="2">  1        2 0.19638537E+00 0.73396293E+03</pdfrwt>
<totfact> 0.28840796E+01</totfact>
</mgrwt>
</event>
<event>
 5    0  0.1141006E+000  0.2647680E+03  0.7546771E-02  0.1104312E+00
         21   -1    0    0  501  502  0.00000000000E+00  0.00000000000E+00  0.36223585682E+03  0.36223585682E+03  0.00000000000E+00 0.  1.
          2   -1    0    0  503    0 -0.00000000000E+00 -0.00000000000E+00 -0.42979712401E+03  0.42979712401E+03  0.00000000000E+00 0. -1.
         25    1    1    2    0    0  0.12159919209E+03 -0.20112761106E+03  0.26724324397E+03  0.37720369948E+03  0.12500000000E+03 0.  0.
         21    1    1    2  503  502  0.77508573433E+01  0.18833755801E+02 -0.18483254429E+02  0.27503033313E+02  0.00000000000E+00 0.  1.
          2    1    1    2  501    0 -0.12935004944E+03  0.18229385526E+03 -0.31632125673E+03  0.38732624803E+03  0.00000000000E+00 0. -1.
<mgrwt>
<rscale>  4 0.26476803E+03</rscale>
<asrwt>0</asrwt>
<pdfrwt beam="1">  1       21 0.55728593E-01 0.26476803E+03</pdfrwt>
<pdfrwt beam="2">  1        2 0.66122635E-01 0.26476803E+03</pdfrwt>
<totfact> 0.27227132E+03</totfact>
</mgrwt>
</event>
<event>
 5    0  0.1141006E+000  0.2257981E+03  0.7546771E-02  0.1129633E+00
         21   -1    0    0  501  502  0.00000000000E+00  0.00000000000E+00  0.18426875439E+02  0.18426875439E+02  0.00000000000E+00 0.  1.
          1   -1    0    0  503    0 -0.00000000000E+00 -0.00000000000E+00 -0.42529939236E+04  0.42529939236E+04  0.00000000000E+00 0.  1.
         25    1    1    2    0    0  0.98760950113E+01 -0.20219558531E+03 -0.94102734165E+03  0.97063796016E+03  0.12500000000E+03 0.  0.
         21    1    1    2  503  502  0.13159918314E+02  0.18149536199E+02 -0.13913262985E+03  0.14092720747E+03  0.00000000000E+00 0.  1.
          1    1    1    2  501    0 -0.23036013326E+02  0.18404604911E+03 -0.31544070766E+04  0.31598556314E+04  0.00000000000E+00 0.  1.
<mgrwt>
<rscale>  4 0.22579807E+03</rscale>
<asrwt>0</asrwt>
<pdfrwt beam="1">  1       21 0.28349010E-02 0.22579807E+03</pdfrwt>
<pdfrwt beam="2">  1        1 0.65430743E+00 0.22579807E+03</pdfrwt>
<totfact> 0.60567134E+02</totfact>
</mgrwt>
</event>
<event>
 5    0  0.1141006E+000  0.2865940E+03  0.7546771E-02  0.1092141E+00
          2   -1    0    0  503    0 -0.00000000000E+00  0.00000000000E+00  0.64707926095E+03  0.64707926095E+03  0.00000000000E+00 0. -1.
         21   -1    0    0  501  502  0.00000000000E+00 -0.00000000000E+00 -0.20019687670E+03  0.20019687670E+03  0.00000000000E+00 0.  1.
         25    1    1    2    0    0  0.23199200009E+03 -0.10023919469E+03 -0.19542677426E+02  0.28262183301E+03  0.12500000000E+03 0.  0.
         21    1    1    2  503  502  0.33696415114E+02  0.22990927794E+02  0.73898943780E+02  0.84410218838E+02  0.00000000000E+00 0. -1.
          2    1    1    2  501    0 -0.26568841520E+03  0.77248266893E+02  0.39252611790E+03  0.48024408580E+03  0.00000000000E+00 0. -1.
<mgrwt>
<rscale>  4 0.28659396E+03</rscale>
<asrwt>0</asrwt>
<pdfrwt beam="1">  1       21 0.30799520E-01 0.28659396E+03</pdfrwt>
<pdfrwt beam="2">  1        2 0.99550655E-01 0.28659396E+03</pdfrwt>
<totfact> 0.57251380E+03</totfact>
</mgrwt>
</event>
<event>
 5    0  0.1141006E+000  0.2460870E+03  0.7546771E-02  0.1115803E+00
          2   -1    0    0  503    0 -0.00000000000E+00  0.00000000000E+00  0.78108777701E+03  0.78108777701E+03  0.00000000000E+00 0.  1.
         21   -1    0    0  501  502  0.00000000000E+00 -0.00000000000E+00 -0.39138573437E+03  0.39138573437E+03  0.00000000000E+00 0. -1.
         25    1    1    2    0    0  0.19661450379E+03  0.79224713420E+02 -0.33548777945E+03  0.41606594246E+03  0.12500000000E+03 0.  0.
         21    1    1    2  503  502 -0.25560061791E+02 -0.58239139100E+01  0.56346266410E+02  0.62146089743E+02  0.00000000000E+00 0. -1.
          2    1    1    2  501    0 -0.17105444200E+03 -0.73400799510E+02  0.66884355568E+03  0.69426147918E+03  0.00000000000E+00 0.  1.
<mgrwt>
<rscale>  4 0.24608701E+03</rscale>
<asrwt>0</asrwt>
<pdfrwt beam="1">  1       21 0.60213190E-01 0.24608701E+03</pdfrwt>
<pdfrwt beam="2">  1        2 0.12016735E+00 0.24608701E+03</pdfrwt>
<totfact> 0.11577515E+03</totfact>
</mgrwt>
</event>
<event>
 5    0  0.1141006E+000  0.2693419E+03  0.7546771E-02  0.1101657E+00
         21   -1    0    0  503  502  0.00000000000E+00  0.00000000000E+00  0.59522247908E+03  0.59522247908E+03  0.00000000000E+00 0.  1.
         -1   -1    0    0    0  501 -0.00000000000E+00 -0.00000000000E+00 -0.35513976225E+03  0.35513976225E+03  0.00000000000E+00 0. -1.
         25    1    1    2    0    0  0.22946417441E+02 -0.23915588739E+03  0.49677687870E+03  0.56580415671E+03  0.12500000000E+03 0.  0.
         21    1    1    2  503  501  0.31387560534E+02  0.19799982822E+02  0.64797743649E+01  0.37672347310E+02  0.00000000000E+00 0. -1.
         -1    1    1    2    0  502 -0.54333977975E+02  0.21935590457E+03 -0.26317393623E+03  0.34688573730E+03  0.00000000000E+00 0. -1.
<mgrwt>
<rscale>  4 0.26934192E+03</rscale>
<asrwt>0</asrwt>
<pdfrwt beam="1">  1       21 0.91572689E-01 0.26934192E+03</pdfrwt>
<pdfrwt beam="2">  1       -1 0.54636886E-01 0.26934192E+03</pdfrwt>
<totfact> 0.31310060E+02</totfact>
</mgrwt>
</event>
<event>
 5    0  0.1141006E+000  0.3051032E+03  0.7546771E-02  0.1082717E+00
          2   -1    0    0  503    0 -0.00000000000E+00  0.00000000000E+00  0.27801967327E+04  0.27801967327E+04  0.00000000000E+00 0.  1.
         21   -1    0    0  501  502  0.00000000000E+00 -0.00000000000E+00 -0.19555628971E+03  0.19555628971E+03  0.00000000000E+00 0. -1.
         25    1    1    2    0    0  0.68811388794E+01  0.28073636699E+03 -0.60031279371E+02  0.31319165430E+03  0.12500000000E+03 0.  0.
         21    1    1    2  503  502 -0.71410702347E+01 -0.36673117694E+02  0.91420760965E+03  0.91497074598E+03  0.00000000000E+00 0. -1.
          2    1    1    2  501    0  0.25993135537E+00 -0.24406324929E+03  0.17304641127E+04  0.17475906221E+04  0.00000000000E+00 0.  1.
<mgrwt>
<rscale>  4 0.30510315E+03</rscale>
<asrwt>0</asrwt>
<pdfrwt beam="1">  1       21 0.30085585E-01 0.30510315E+03</pdfrwt>
<pdfrwt beam="2">  1        2 0.42772255E+00 0.30510315E+03</pdfrwt>
<totfact> 0.35929929E+02</totfact>
</mgrwt>
</event>
<event>
 5    0  0.1141006E+000  0.3559525E+03  0.7546771E-02  0.1060198E+00
         21   -1    0    0  501  502  0.00000000000E+00  0.00000000000E+00  0.96208676478E+03  0.96208676478E+03  0.00000000000E+00 0. -1.
          2   -1    0    0  503    0 -0.00000000000E+00 -0.00000000000E+00 -0.39700307287E+03  0.39700307287E+03  0.00000000000E+00 0. -1.
         25    1    1    2    0    0  0.24394787424E+02 -0.23496926760E+03  0.74271788315E+03  0.78934182476E+03  0.12500000000E+03 0.  0.
         21    1    1    2  503  502 -0.63580382044E+02 -0.10785290117E+03  0.71478726104E+02  0.14416629827E+03  0.00000000000E+00 0. -1.
          2    1    1    2  501    0  0.39185594620E+02  0.34282216878E+03 -0.24911291734E+03  0.42558171462E+03  0.00000000000E+00 0. -1.
<mgrwt>
<rscale>  4 0.35595247E+03</rscale>
<asrwt>0</asrwt>
<pdfrwt beam="1">  1       21 0.14801335E+00 0.35595247E+03</pdfrwt>
<pdfrwt beam="2">  1        2 0.61077396E-01 0.35595247E+03</pdfrwt>
<totfact> 0.28440825E+02</totfact>
</mgrwt>
</event>
<event>
 5    0  0.1141006E+000  0.2624213E+03  0.7546771E-02  0.1105697E+00
         21   -1    0    0  501  502  0.00000000000E+00  0.00000000000E+00  0.71473874772E+03  0.71473874772E+03  0.00000000000E+00 0.  1.
          3   -1    0    0  503    0 -0.00000000000E+00 -0.00000000000E+00 -0.72953871658E+03  0.72953871658E+03  0.00000000000E+00 0.  1.
         25    1    1    2    0    0  0.10612759634E+03 -0.20567357457E+03  0.66277224114E+03  0.71306151881E+03  0.12500000000E+03 0.  0.
         21    1    1    2  503  502 -0.39751314297E+02 -0.43041150221E+01 -0.21761874068E+03  0.22126140352E+03  0.00000000000E+00 0.  1.
          3    1    1    2  501    0 -0.66376282040E+02  0.20997768959E+03 -0.45995346932E+03  0.50995454198E+03  0.00000000000E+00 0.  1.
<mgrwt>
<rscale>  4 0.26242129E+03</rscale>
<asrwt>0</asrwt>
<pdfrwt beam="1">  1       21 0.10995981E+00 0.26242129E+03</pdfrwt>
<pdfrwt beam="2">  1        3 0.11223673E+00 0.26242129E+03</pdfrwt>
<totfact> 0.21643576E+01</totfact>
</mgrwt>
</event>
<event>
 5    0  0.1141006E+000  0.3026525E+03  0.7546771E-02  0.1083922E+00
          2   -1    0    0  503    0 -0.00000000000E+00  0.00000000000E+00  0.79966838904E+03  0.79966838904E+03  0.00000000000E+00 0. -1.
         21   -1    0    0  501  502  0.00000000000E+00 -0.00000000000E+00 -0.21919095560E+03  0.21919095560E+03  0.00000000000E+00 0. -1.
         25    1    1    2    0    0 -0.77133883671E+02  0.26566081413E+03 -0.56734460283E+02  0.30881888407E+03  0.12500000000E+03 0.  0.
         21    1    1    2  503  502  0.33994214084E+02  0.39187034895E+01  0.12517665100E+03  0.12976962967E+03  0.00000000000E+00 0. -1.
          2    1    1    2  501    0  0.43139669588E+02 -0.26957951762E+03  0.51203524271E+03  0.58027083090E+03  0.00000000000E+00 0. -1.
<mgrwt>
<rscale>  4 0.30265252E+03</rscale>
<asrwt>0</asrwt>
<pdfrwt beam="1">  1       21 0.33721686E-01 0.30265252E+03</pdfrwt>
<pdfrwt beam="2">  1        2 0.12302590E+00 0.30265252E+03</pdfrwt>
<totfact> 0.36663740E+03</totfact>
</mgrwt>
</event>
<event>
 5    0  0.1141006E+000  0.4352847E+03  0.7546771E-02  0.1032203E+00
         21   -1    0    0  501  502  0.00000000000E+00  0.00000000000E+00  0.24359465522E+03  0.24359465522E+03  0.00000000000E+00 0.  1.
          2   -1    0    0  503    0 -0.00000000000E+00 -0.00000000000E+00 -0.93628906857E+03  0.93628906857E+03  0.00000000000E+00 0.  1.
         25    1    1    2    0    0 -0.39458843708E+03  0.16259906289E+03 -0.47360460118E+03  0.64966515082E+03  0.12500000000E+03 0.  0.
         21    1    1    2  503  502  0.26767896399E+02  0.24109543130E+02 -0.91665913092E+02  0.98490760839E+02  0.00000000000E+00 0.  1.
          2    1    1    2  501    0  0.36782054068E+03 -0.18670860602E+03 -0.12742389907E+03  0.43172781213E+03  0.00000000000E+00 0.  1.
<mgrwt>
<rscale>  4 0.43528470E+03</rscale>
<asrwt>0</asrwt>
<pdfrwt beam="1">  1       21 0.37476101E-01 0.43528470E+03</pdfrwt>
<pdfrwt beam="2">  1        2 0.14404447E+00 0.43528470E+03</pdfrwt>
<totfact> 0.23245582E+03</totfact>
</mgrwt>
</event>
<event>
 5    0  0.1141006E+000  0.3144984E+03  0.7546771E-02  0.1078210E+00
          2   -1    0    0  503    0 -0.00000000000E+00  0.00000000000E+00  0.13181518807E+04  0.13181518807E+04  0.00000000000E+00 0. -1.
         21   -1    0    0  501  502  0.00000000000E+00 -0.00000000000E+00 -0.39105587577E+03  0.39105587577E+03  0.00000000000E+00 0.  1.
         25    1    1    2    0    0 -0.26918607297E+03  0.10768408071E+03 -0.30279692449E+03  0.43745626136E+03  0.12500000000E+03 0.  0.
         21    1    1    2  503  502  0.87668644427E+01 -0.30699539525E+02  0.33615760607E+03  0.33767033591E+03  0.00000000000E+00 0. -1.
          2    1    1    2  501    0  0.26041920853E+03 -0.76984541185E+02  0.89373532335E+03  0.93408115919E+03  0.00000000000E+00 0. -1.
<mgrwt>
<rscale>  4 0.31449843E+03</rscale>
<asrwt>0</asrwt>
<pdfrwt beam="1">  1       21 0.60162443E-01 0.31449843E+03</pdfrwt>
<pdfrwt beam="2">  1        2 0.20279260E+00 0.31449843E+03</pdfrwt>
<totfact> 0.52868698E+02</totfact>
</mgrwt>
</event>
<event>
 5    0  0.1141006E+000  0.2794910E+03  0.7546771E-02  0.1095967E+00
          2   -1    0    0  503    0 -0.00000000000E+00  0.00000000000E+00  0.18873722224E+04  0.18873722224E+04  0.00000000000E+00 0.  1.
         21   -1    0    0  501  502  0.00000000000E+00 -0.00000000000E+00 -0.72900224547E+03  0.72900224547E+03  0.00000000000E+00 0. -1.
         25    1    1    2    0    0 -0.50673899344E+02 -0.24130950174E+03 -0.61382512942E+03  0.67320458199E+03  0.12500000000E+03 0.  0.
         21    1    1    2  503  502 -0.19716065964E+03 -0.14509118528E+03  0.23666554144E+03  0.34049134535E+03  0.00000000000E+00 0. -1.
          2    1    1    2  501    0  0.24783455898E+03  0.38640068702E+03  0.15355295649E+04  0.16026785405E+04  0.00000000000E+00 0.  1.
<mgrwt>
<rscale>  4 0.27949096E+03</rscale>
<asrwt>0</asrwt>
<pdfrwt beam="1">  1       21 0.11215419E+00 0.27949096E+03</pdfrwt>
<pdfrwt beam="2">  1        2 0.29036495E+00 0.27949096E+03</pdfrwt>
<totfact> 0.63586471E+01</totfact>
</mgrwt>
</event>
<event>
 5    0  0.1141006E+000  0.2905769E+03  0.7546771E-02  0.1090048E+00
         21   -1    0    0  501  502  0.00000000000E+00  0.00000000000E+00  0.13927980230E+03  0.13927980230E+03  0.00000000000E+00 0. -1.
          2   -1    0    0  503    0 -0.00000000000E+00 -0.00000000000E+00 -0.27149738009E+04  0.27149738009E+04  0.00000000000E+00 0.  1.
         25    1    1    2    0    0  0.25731085411E+03  0.10235030617E+02 -0.46315614117E+02  0.28997201176E+03  0.12500000000E+03 0.  0.
         21    1    1    2  503  502  0.42012200731E+02  0.13636597581E+02 -0.12246449932E+04  0.12254412843E+04  0.00000000000E+00 0.  1.
          2    1    1    2  501    0 -0.29932305484E+03 -0.23871628199E+02 -0.13047333912E+04  0.13388403071E+04  0.00000000000E+00 0.  1.
<mgrwt>
<rscale>  4 0.29057687E+03</rscale>
<asrwt>0</asrwt>
<pdfrwt beam="1">  1       21 0.21427664E-01 0.29057687E+03</pdfrwt>
<pdfrwt beam="2">  1        2 0.41768823E+00 0.29057687E+03</pdfrwt>
<totfact> 0.76015151E+02</totfact>
</mgrwt>
</event>
<event>
 5    0  0.1141006E+000  0.3009695E+03  0.7546771E-02  0.1084757E+00
         21   -1    0    0  501  502  0.00000000000E+00  0.00000000000E+00  0.28734621362E+03  0.28734621362E+03  0.00000000000E+00 0. -1.
          2   -1    0    0  503    0 -0.00000000000E+00 -0.00000000000E+00 -0.11411798184E+04  0.11411798184E+04  0.00000000000E+00 0. -1.
         25    1    1    2    0    0  0.12408150968E+03  0.25311990317E+03  0.16391504648E+03  0.34922635767E+03  0.12500000000E+03 0.  0.
         21    1    1    2  503  502  0.38943406340E+02 -0.11167795527E+03 -0.18940694577E+03  0.22330146819E+03  0.00000000000E+00 0. -1.
          2    1    1    2  501    0 -0.16302491602E+03 -0.14144194791E+03 -0.82834170554E+03  0.85599820619E+03  0.00000000000E+00 0. -1.
<mgrwt>
<rscale>  4 0.30096950E+03</rscale>
<asrwt>0</asrwt>
<pdfrwt beam="1">  1       21 0.44207110E-01 0.30096950E+03</pdfrwt>
<pdfrwt beam="2">  1        2 0.17556612E+00 0.30096950E+03</pdfrwt>
<totfact> 0.12881284E+03</totfact>
</mgrwt>
</event>
<event>
 5    0  0.1141006E+000  0.3769453E+03  0.7546771E-02  0.1052069E+00
         -2   -1    0    0    0  501 -0.00000000000E+00  0.00000000000E+00  0.77875726078E+03  0.77875726078E+03  0.00000000000E+00 0. -1.
         21   -1    0    0  503  502  0.00000000000E+00 -0.00000000000E+00 -0.56239081236E+03  0.56239081236E+03  0.00000000000E+00 0. -1.
         25    1    1    2    0    0  0.13361048303E+03  0.29112519823E+03 -0.26722398040E+03  0.43547594413E+03  0.12500000000E+03 0.  0.
         21    1    1    2  503  501  0.85435664298E+02  0.19813383407E+03  0.22060408933E+03  0.30858132342E+03  0.00000000000E+00 0. -1.
         -2    1    1    2    0  502 -0.21904614733E+03 -0.48925903229E+03  0.26298633949E+03  0.59709080558E+03  0.00000000000E+00 0. -1.
<mgrwt>
<rscale>  4 0.37694535E+03</rscale>
<asrwt>0</asrwt>
<pdfrwt beam="1">  1       21 0.86521663E-01 0.37694535E+03</pdfrwt>
<pdfrwt beam="2">  1       -2 0.11980881E+00 0.37694535E+03</pdfrwt>
<totfact> 0.48348133E+01</totfact>
</mgrwt>
</event>
<event>
 5    0  0.1141006E+000  0.2726234E+03  0.7546771E-02  0.1099788E+00
          1   -1    0    0  503    0 -0.00000000000E+00  0.00000000000E+00  0.16158679413E+04  0.16158679413E+04  0.00000000000E+00 0.  1.
         21   -1    0    0  501  502  0.00000000000E+00 -0.00000000000E+00 -0.10797523144E+04  0.10797523144E+04  0.00000000000E+00 0.  1.
         25    1    1    2    0    0 -0.10895924671E+03  0.21687792881E+03 -0.10513280649E+04  0.10861969681E+04  0.12500000000E+03 0.  0.
         21    1    1    2  503  502 -0.15680855119E+01 -0.32027858246E+02  0.48985304457E+03  0.49090146452E+03  0.00000000000E+00 0. -1.
          1    1    1    2  501    0  0.11052733222E+03 -0.18485007057E+03  0.10975906472E+04  0.11185218230E+04  0.00000000000E+00 0.  1.
<mgrwt>
<rscale>  4 0.27262336E+03</rscale>
<asrwt>0</asrwt>
<pdfrwt beam="1">  1       21 0.16611574E+00 0.27262336E+03</pdfrwt>
<pdfrwt beam="2">  1        1 0.24859507E+00 0.27262336E+03</pdfrwt>
<totfact> 0.14269525E+01</totfact>
</mgrwt>
</event>
<event>
 5    0  0.1141006E+000  0.4560259E+03  0.7546771E-02  0.1025940E+00
         21   -1    0    0  501  502  0.00000000000E+00  0.00000000000E+00  0.37423035009E+03  0.37423035009E+03  0.00000000000E+00 0.  1.
          1   -1    0    0  503    0 -0.00000000000E+00 -0.00000000000E+00 -0.24487553714E+04  0.24487553714E+04  0.00000000000E+00 0. -1.
         25    1    1    2    0    0  0.42415371351E+03 -0.11300303376E+03  0.19958666254E+03  0.49813240628E+03  0.12500000000E+03 0.  0.
         21    1    1    2  503  502  0.31137859378E+01  0.32938119369E+02 -0.38282803088E+03  0.38425501506E+03  0.00000000000E+00 0.  1.
          1    1    1    2  501    0 -0.42726749944E+03  0.80064914390E+02 -0.18912836529E+04  0.19405983001E+04  0.00000000000E+00 0. -1.
<mgrwt>
<rscale>  4 0.45602591E+03</rscale>
<asrwt>0</asrwt>
<pdfrwt beam="1">  1       21 0.57573902E-01 0.45602591E+03</pdfrwt>
<pdfrwt beam="2">  1        1 0.37673158E+00 0.45602591E+03</pdfrwt>
<totfact> 0.47133377E+01</totfact>
</mgrwt>
</event>
<event>
 5    0  0.1141006E+000  0.2716263E+03  0.7546771E-02  0.1100352E+00
          1   -1    0    0  503    0 -0.00000000000E+00  0.00000000000E+00  0.41954332112E+03  0.41954332112E+03  0.00000000000E+00 0. -1.
         21   -1    0    0  501  502  0.00000000000E+00 -0.00000000000E+00 -0.42353112691E+03  0.42353112691E+03  0.00000000000E+00 0. -1.
         25    1    1    2    0    0 -0.22133336047E+03  0.10277904673E+03 -0.31516605207E+03  0.41773990626E+03  0.12500000000E+03 0.  0.
         21    1    1    2  503  502 -0.24857835132E+01 -0.47829948430E+02  0.10781009039E+03  0.11796990580E+03  0.00000000000E+00 0. -1.
          1    1    1    2  501    0  0.22381914398E+03 -0.54949098295E+02  0.20336815589E+03  0.30736463597E+03  0.00000000000E+00 0. -1.
<mgrwt>
<rscale>  4 0.27162629E+03</rscale>
<asrwt>0</asrwt>
<pdfrwt beam="1">  1       21 0.65158634E-01 0.27162629E+03</pdfrwt>
<pdfrwt beam="2">  1        1 0.64545127E-01 0.27162629E+03</pdfrwt>
<totfact> 0.13153633E+03</totfact>
</mgrwt>
</event>
<event>
 5    0  0.1141006E+000  0.2533762E+03  0.7546771E-02  0.1111190E+00
         21   -1    0    0  501  502  0.00000000000E+00  0.00000000000E+00  0.26321549490E+03  0.26321549490E+03  0.00000000000E+00 0.  1.
          1   -1    0    0  503    0 -0.00000000000E+00 -0.00000000000E+00 -0.16270939716E+04  0.16270939716E+04  0.00000000000E+00 0.  1.
         25    1    1    2    0    0 -0.11078007148E+03 -0.19272461727E+03  0.18862382670E+03  0.31720490277E+03  0.12500000000E+03 0.  0.
         21    1    1    2  503  502 -0.44802239821E+01  0.37620167761E+02 -0.60015344119E+03  0.60134807093E+03  0.00000000000E+00 0.  1.
          1    1    1    2  501    0  0.11526029546E+03  0.15510444951E+03 -0.95234886218E+03  0.97175649278E+03  0.00000000000E+00 0.  1.
<mgrwt>
<rscale>  4 0.25337618E+03</rscale>
<asrwt>0</asrwt>
<pdfrwt beam="1">  1       21 0.40494691E-01 0.25337618E+03</pdfrwt>
<pdfrwt beam="2">  1        1 0.25032215E+00 0.25337618E+03</pdfrwt>
<totfact> 0.37897084E+02</totfact>
</mgrwt>
</event>
<event>
 5    0  0.1141006E+000  0.3711619E+03  0.7546771E-02  0.1054250E+00
         -1   -1    0    0    0  501 -0.00000000000E+00  0.00000000000E+00  0.14890860748E+04  0.14890860748E+04  0.00000000000E+00 0.  1.
         21   -1    0    0  503  502  0.00000000000E+00 -0.00000000000E+00 -0.99322493230E+02  0.99322493230E+02  0.00000000000E+00 0.  1.
         25    1    1    2    0    0 -0.26371996443E+03  0.21114900549E+03  0.53013722760E+03  0.64093884439E+03  0.12500000000E+03 0.  0.
         21    1    1    2  503  501 -0.28003383306E+02  0.88978074191E+01  0.10491303078E+03  0.10895000909E+03  0.00000000000E+00 0. -1.
         -1    1    1    2    0  502  0.29172334774E+03 -0.22004681291E+03  0.75471332323E+03  0.83851971458E+03  0.00000000000E+00 0.  1.
<mgrwt>
<rscale>  4 0.37116188E+03</rscale>
<asrwt>0</asrwt>
<pdfrwt beam="1">  1       21 0.15280385E-01 0.37116188E+03</pdfrwt>
<pdfrwt beam="2">  1       -1 0.22909015E+00 0.37116188E+03</pdfrwt>
<totfact> 0.36557100E+02</totfact>
</mgrwt>
</event>
<event>
 5    0  0.1141006E+000  0.3294208E+03  0.7546771E-02  0.1071393E+00
         -1   -1    0    0    0  501 -0.00000000000E+00  0.00000000000E+00  0.61377326969E+03  0.61377326969E+03  0.00000000000E+00 0.  1.
         21   -1    0    0  503  502  0.00000000000E+00 -0.00000000000E+00 -0.91694817549E+03  0.91694817549E+03  0.00000000000E+00 0.  1.
         25    1    1    2    0    0 -0.40335693064E+02 -0.30088154126E+03 -0.83028618158E+03  0.89283638665E+03  0.12500000000E+03 0.  0.
         21    1    1    2  503  501 -0.27659837725E+02 -0.18121143789E+02  0.48159228335E+02  0.58418779078E+02  0.00000000000E+00 0.  1.
         -1    1    1    2    0  502  0.67995530789E+02  0.31900268504E+03  0.47895204744E+03  0.57946627945E+03  0.00000000000E+00 0.  1.
<mgrwt>
<rscale>  4 0.32942080E+03</rscale>
<asrwt>0</asrwt>
<pdfrwt beam="1">  1       21 0.14106895E+00 0.32942080E+03</pdfrwt>
<pdfrwt beam="2">  1       -1 0.94426658E-01 0.32942080E+03</pdfrwt>
<totfact> 0.34349514E+01</totfact>
</mgrwt>
</event>
<event>
 5    0  0.1141006E+000  0.9024066E+03  0.7546771E-02  0.9422578E-01
         21   -1    0    0  501  502  0.00000000000E+00  0.00000000000E+00  0.10094925747E+04  0.10094925747E+04  0.00000000000E+00 0. -1.
          2   -1    0    0  503    0 -0.00000000000E+00 -0.00000000000E+00 -0.21301944705E+04  0.21301944705E+04  0.00000000000E+00 0.  1.
         25    1    1    2    0    0  0.56401899952E+03  0.69070310371E+03  0.66803595125E+03  0.11211981277E+04  0.12500000000E+03 0.  0.
         21    1    1    2  503  502  0.23987825727E+02  0.35979158602E+01 -0.64773232971E+02  0.69165977845E+02  0.00000000000E+00 0. -1.
          2    1    1    2  501    0 -0.58800682525E+03 -0.69430101958E+03 -0.17239646141E+04  0.19493229397E+04  0.00000000000E+00 0.  1.
<mgrwt>
<rscale>  4 0.90240663E+03</rscale>
<asrwt>0</asrwt>
<pdfrwt beam="1">  1       21 0.15530655E+00 0.90240663E+03</pdfrwt>
<pdfrwt beam="2">  1        2 0.32772223E+00 0.90240663E+03</pdfrwt>
<totfact> 0.15623816E+01</totfact>
</mgrwt>
</event>
<event>
 5    0  0.1141006E+000  0.2872536E+03  0.7546771E-02  0.1091792E+00
         21   -1    0    0  501  502  0.00000000000E+00  0.00000000000E+00  0.57172255352E+02  0.57172255352E+02  0.00000000000E+00 0. -1.
          1   -1    0    0  503    0 -0.00000000000E+00 -0.00000000000E+00 -0.19560171809E+04  0.19560171809E+04  0.00000000000E+00 0. -1.
         25    1    1    2    0    0 -0.24858281301E+03 -0.37692615174E+02 -0.46143201932E+03  0.54014688429E+03  0.12500000000E+03 0.  0.
         21    1    1    2  503  502 -0.18445648472E+02 -0.32564938293E+02 -0.31272352193E+03  0.31495510524E+03  0.00000000000E+00 0. -1.
          1    1    1    2  501    0  0.26702846148E+03  0.70257553466E+02 -0.11246893843E+04  0.11580874467E+04  0.00000000000E+00 0. -1.
<mgrwt>
<rscale>  4 0.28725363E+03</rscale>
<asrwt>0</asrwt>
<pdfrwt beam="1">  1       21 0.87957322E-02 0.28725363E+03</pdfrwt>
<pdfrwt beam="2">  1        1 0.30092570E+00 0.28725363E+03</pdfrwt>
<totfact> 0.40331739E+03</totfact>
</mgrwt>
</event>
<event>
 5    0  0.1141006E+000  0.2602111E+03  0.7546771E-02  0.1107016E+00
         21   -1    0    0  501  502  0.00000000000E+00  0.00000000000E+00  0.65948302488E+02  0.65948302488E+02  0.00000000000E+00 0. -1.
          2   -1    0    0  503    0 -0.00000000000E+00 -0.00000000000E+00 -0.22790987395E+04  0.22790987395E+04  0.00000000000E+00 0.  1.
         25    1    1    2    0    0 -0.21914443104E+03 -0.63722211818E+02 -0.22942093713E+03  0.34690599350E+03  0.12500000000E+03 0.  0.
         21    1    1    2  503  502  0.21261184143E+02 -0.15579828925E+02 -0.21237324187E+03  0.21400271700E+03  0.00000000000E+00 0. -1.
          2    1    1    2  501    0  0.19788324690E+03  0.79302040743E+02 -0.17713562580E+04  0.17841383315E+04  0.00000000000E+00 0.  1.
<mgrwt>
<rscale>  4 0.26021107E+03</rscale>
<asrwt>0</asrwt>
<pdfrwt beam="1">  1       21 0.10145892E-01 0.26021107E+03</pdfrwt>
<pdfrwt beam="2">  1        2 0.35063060E+00 0.26021107E+03</pdfrwt>
<totfact> 0.52751900E+03</totfact>
</mgrwt>
</event>
<event>
 5    0  0.1141006E+000  0.3013769E+03  0.7546771E-02  0.1084554E+00
         21   -1    0    0  501  502  0.00000000000E+00  0.00000000000E+00  0.34587243956E+03  0.34587243956E+03  0.00000000000E+00 0. -1.
          1   -1    0    0  503    0 -0.00000000000E+00 -0.00000000000E+00 -0.47719427635E+03  0.47719427635E+03  0.00000000000E+00 0.  1.
         25    1    1    2    0    0 -0.13666652022E+03  0.24641257815E+03  0.19253381220E+03  0.36344348289E+03  0.12500000000E+03 0.  0.
         21    1    1    2  503  502  0.53583969634E+02 -0.60560800308E+01 -0.12716074895E+03  0.13812231529E+03  0.00000000000E+00 0.  1.
          1    1    1    2  501    0  0.83082550583E+02 -0.24035649812E+03 -0.19669490004E+03  0.32150091773E+03  0.00000000000E+00 0.  1.
<mgrwt>
<rscale>  4 0.30137688E+03</rscale>
<asrwt>0</asrwt>
<pdfrwt beam="1">  1       21 0.53211145E-01 0.30137688E+03</pdfrwt>
<pdfrwt beam="2">  1        1 0.73414504E-01 0.30137688E+03</pdfrwt>
<totfact> 0.17050178E+03</totfact>
</mgrwt>
</event>
<event>
 5    0  0.1141006E+000  0.2570522E+03  0.7546771E-02  0.1108927E+00
          2   -1    0    0  503    0 -0.00000000000E+00  0.00000000000E+00  0.16368912652E+04  0.16368912652E+04  0.00000000000E+00 0.  1.
         21   -1    0    0  501  502  0.00000000000E+00 -0.00000000000E+00 -0.72641707434E+03  0.72641707434E+03  0.00000000000E+00 0. -1.
         25    1    1    2    0    0 -0.16690600560E+03 -0.15594324783E+03 -0.68608129724E+03  0.73383135506E+03  0.12500000000E+03 0.  0.
         21    1    1    2  503  502  0.16177187887E+03  0.31808527662E+02  0.51348789911E+03  0.53930672697E+03  0.00000000000E+00 0.  1.
          2    1    1    2  501    0  0.51341267315E+01  0.12413472017E+03  0.10830675890E+04  0.10901702575E+04  0.00000000000E+00 0.  1.
<mgrwt>
<rscale>  4 0.25705217E+03</rscale>
<asrwt>0</asrwt>
<pdfrwt beam="1">  1       21 0.11175647E+00 0.25705217E+03</pdfrwt>
<pdfrwt beam="2">  1        2 0.25182943E+00 0.25705217E+03</pdfrwt>
<totfact> 0.88363663E+01</totfact>
</mgrwt>
</event>
<event>
 5    0  0.1141006E+000  0.2449903E+03  0.7546771E-02  0.1116512E+00
         21   -1    0    0  503  502  0.00000000000E+00  0.00000000000E+00  0.28507019181E+03  0.28507019181E+03  0.00000000000E+00 0.  1.
         -1   -1    0    0    0  501 -0.00000000000E+00 -0.00000000000E+00 -0.73331938087E+03  0.73331938087E+03  0.00000000000E+00 0. -1.
         25    1    1    2    0    0  0.19547565833E+03 -0.72598427062E+02  0.20007707787E+03  0.31486044798E+03  0.12500000000E+03 0.  0.
         21    1    1    2  503  501  0.29568903477E+02  0.38109959121E+01 -0.31658754071E+02  0.43487014751E+02  0.00000000000E+00 0.  1.
         -1    1    1    2    0  502 -0.22504456181E+03  0.68787431150E+02 -0.61666751286E+03  0.66004210995E+03  0.00000000000E+00 0. -1.
<mgrwt>
<rscale>  4 0.24499030E+03</rscale>
<asrwt>0</asrwt>
<pdfrwt beam="1">  1       21 0.43856953E-01 0.24499030E+03</pdfrwt>
<pdfrwt beam="2">  1       -1 0.11281836E+00 0.24499030E+03</pdfrwt>
<totfact> 0.35061244E+02</totfact>
</mgrwt>
</event>
<event>
 5    0  0.1141006E+000  0.2818979E+03  0.7546771E-02  0.1094657E+00
         21   -1    0    0  503  502  0.00000000000E+00  0.00000000000E+00  0.84651715640E+03  0.84651715640E+03  0.00000000000E+00 0.  1.
         -1   -1    0    0    0  501 -0.00000000000E+00 -0.00000000000E+00 -0.51130201054E+03  0.51130201054E+03  0.00000000000E+00 0.  1.
         25    1    1    2    0    0  0.25280797300E+03  0.20510145417E+01  0.78171676368E+03  0.83103680814E+03  0.12500000000E+03 0.  0.
         21    1    1    2  503  501 -0.31172547397E+01  0.27541306775E+02 -0.36657376962E+02  0.45956546233E+02  0.00000000000E+00 0. -1.
         -1    1    1    2    0  502 -0.24969071826E+03 -0.29592321317E+02 -0.40984424085E+03  0.48082581256E+03  0.00000000000E+00 0.  1.
<mgrwt>
<rscale>  4 0.28189789E+03</rscale>
<asrwt>0</asrwt>
<pdfrwt beam="1">  1       21 0.13023341E+00 0.28189789E+03</pdfrwt>
<pdfrwt beam="2">  1       -1 0.78661848E-01 0.28189789E+03</pdfrwt>
<totfact> 0.63981930E+01</totfact>
</mgrwt>
</event>
<event>
 5    0  0.1141006E+000  0.3011220E+03  0.7546771E-02  0.1084681E+00
         21   -1    0    0  501  502  0.00000000000E+00  0.00000000000E+00  0.10641791423E+03  0.10641791423E+03  0.00000000000E+00 0.  1.
          2   -1    0    0  503    0 -0.00000000000E+00 -0.00000000000E+00 -0.14757551629E+04  0.14757551629E+04  0.00000000000E+00 0.  1.
         25    1    1    2    0    0 -0.13204511951E+03 -0.23719410420E+03 -0.18718246991E+03  0.35264604591E+03  0.12500000000E+03 0.  0.
         21    1    1    2  503  502 -0.23202835988E+02  0.13008309799E+01 -0.34981643450E+03  0.35058750920E+03  0.00000000000E+00 0. -1.
          2    1    1    2  501    0  0.15524795550E+03  0.23589327322E+03 -0.83233834425E+03  0.87893952201E+03  0.00000000000E+00 0.  1.
<mgrwt>
<rscale>  4 0.30112203E+03</rscale>
<asrwt>0</asrwt>
<pdfrwt beam="1">  1       21 0.16371988E-01 0.30112203E+03</pdfrwt>
<pdfrwt beam="2">  1        2 0.22703924E+00 0.30112203E+03</pdfrwt>
<totfact> 0.58150737E+03</totfact>
</mgrwt>
</event>
<event>
 5    0  0.1141006E+000  0.2525034E+03  0.7546771E-02  0.1111733E+00
         -1   -1    0    0    0  501 -0.00000000000E+00  0.00000000000E+00  0.29236510973E+03  0.29236510973E+03  0.00000000000E+00 0. -1.
         21   -1    0    0  503  502  0.00000000000E+00 -0.00000000000E+00 -0.12219882473E+04  0.12219882473E+04  0.00000000000E+00 0.  1.
         25    1    1    2    0    0 -0.12355980698E+03  0.18387894280E+03 -0.11434993311E+04  0.11714496198E+04  0.12500000000E+03 0.  0.
         21    1    1    2  503  501 -0.65356360811E+01 -0.54230715022E+02 -0.76333536361E+01  0.55153903566E+02  0.00000000000E+00 0. -1.
         -1    1    1    2    0  502  0.13009544306E+03 -0.12964822777E+03  0.22150954719E+03  0.28774983365E+03  0.00000000000E+00 0. -1.
<mgrwt>
<rscale>  4 0.25250337E+03</rscale>
<asrwt>0</asrwt>
<pdfrwt beam="1">  1       21 0.18799819E+00 0.25250337E+03</pdfrwt>
<pdfrwt beam="2">  1       -1 0.44979247E-01 0.25250337E+03</pdfrwt>
<totfact> 0.70737143E+01</totfact>
</mgrwt>
</event>
<event>
 5    0  0.1141006E+000  0.2483781E+03  0.7546771E-02  0.1114334E+00
         21   -1    0    0  501  502  0.00000000000E+00  0.00000000000E+00  0.48861476461E+03  0.48861476461E+03  0.00000000000E+00 0.  1.
          1   -1    0    0  503    0 -0.00000000000E+00 -0.00000000000E+00 -0.10176013097E+04  0.10176013097E+04  0.00000000000E+00 0.  1.
         25    1    1    2    0    0 -0.18261128810E+03 -0.10868056714E+03  0.42821217452E+03  0.49411437403E+03  0.12500000000E+03 0.  0.
         21    1    1    2  503  502 -0.49840125499E+02 -0.19190826324E+01 -0.33594012508E+03  0.33962256789E+03  0.00000000000E+00 0.  1.
          1    1    1    2  501    0  0.23245141360E+03  0.11059964977E+03 -0.62125859454E+03  0.67247913239E+03  0.00000000000E+00 0.  1.
<mgrwt>
<rscale>  4 0.24837815E+03</rscale>
<asrwt>0</asrwt>
<pdfrwt beam="1">  1       21 0.75171503E-01 0.24837815E+03</pdfrwt>
<pdfrwt beam="2">  1        1 0.15655405E+00 0.24837815E+03</pdfrwt>
<totfact> 0.26576892E+02</totfact>
</mgrwt>
</event>
<event>
 5    0  0.1141006E+000  0.2432342E+03  0.7546771E-02  0.1117657E+00
         21   -1    0    0  501  502  0.00000000000E+00  0.00000000000E+00  0.86909238947E+03  0.86909238947E+03  0.00000000000E+00 0.  1.
          4   -1    0    0  503    0 -0.00000000000E+00 -0.00000000000E+00 -0.18573347036E+03  0.18573347036E+03  0.00000000000E+00 0. -1.
         25    1    1    2    0    0 -0.22847077441E+01 -0.20524954906E+03  0.74335300229E+03  0.78123702120E+03  0.12500000000E+03 0.  0.
         21    1    1    2  503  502  0.36038808591E+01 -0.27487699568E+02 -0.26679866016E+02  0.38475665497E+02  0.00000000000E+00 0.  1.
          4    1    1    2  501    0 -0.13191731151E+01  0.23273724862E+03 -0.33314217159E+02  0.23511317313E+03  0.00000000000E+00 0. -1.
<mgrwt>
<rscale>  4 0.24323417E+03</rscale>
<asrwt>0</asrwt>
<pdfrwt beam="1">  1       21 0.13370652E+00 0.24323417E+03</pdfrwt>
<pdfrwt beam="2">  1        4 0.28574381E-01 0.24323417E+03</pdfrwt>
<totfact> 0.19489290E+02</totfact>
</mgrwt>
</event>
<event>
 5    0  0.1141006E+000  0.2335198E+03  0.7546771E-02  0.1124187E+00
          2   -1    0    0  503    0 -0.00000000000E+00  0.00000000000E+00  0.19381898398E+04  0.19381898398E+04  0.00000000000E+00 0. -1.
         21   -1    0    0  501  502  0.00000000000E+00 -0.00000000000E+00 -0.86177979454E+03  0.86177979454E+03  0.00000000000E+00 0. -1.
         25    1    1    2    0    0  0.16311269745E+03 -0.13666176415E+03 -0.80726325414E+03  0.84414521934E+03  0.12500000000E+03 0.  0.
         21    1    1    2  503  502 -0.77822677520E+02  0.86361502265E+02  0.62551580014E+02  0.13201279624E+03  0.00000000000E+00 0. -1.
          2    1    1    2  501    0 -0.85290019934E+02  0.50300261881E+02  0.18211217194E+04  0.18238116188E+04  0.00000000000E+00 0. -1.
<mgrwt>
<rscale>  4 0.23351977E+03</rscale>
<asrwt>0</asrwt>
<pdfrwt beam="1">  1       21 0.13258151E+00 0.23351977E+03</pdfrwt>
<pdfrwt beam="2">  1        2 0.29818305E+00 0.23351977E+03</pdfrwt>
<totfact> 0.40859744E+01</totfact>
</mgrwt>
</event>
<event>
 5    0  0.1141006E+000  0.3177960E+03  0.7546771E-02  0.1076668E+00
          2   -1    0    0  503    0 -0.00000000000E+00  0.00000000000E+00  0.13744449334E+04  0.13744449334E+04  0.00000000000E+00 0.  1.
         21   -1    0    0  501  502  0.00000000000E+00 -0.00000000000E+00 -0.13414591036E+04  0.13414591036E+04  0.00000000000E+00 0.  1.
         25    1    1    2    0    0  0.25805068054E+03  0.13687527280E+03 -0.12968834540E+04  0.13352365661E+04  0.12500000000E+03 0.  0.
         21    1    1    2  503  502  0.19171321215E+02 -0.24834745504E+02  0.20234834430E+02  0.37332997011E+02  0.00000000000E+00 0.  1.
          2    1    1    2  501    0 -0.27722200175E+03 -0.11204052730E+03  0.13096344493E+04  0.13433344739E+04  0.00000000000E+00 0.  1.
<mgrwt>
<rscale>  4 0.31779602E+03</rscale>
<asrwt>0</asrwt>
<pdfrwt beam="1">  1       21 0.20637832E+00 0.31779602E+03</pdfrwt>
<pdfrwt beam="2">  1        2 0.21145307E+00 0.31779602E+03</pdfrwt>
<totfact> 0.22156385E+01</totfact>
</mgrwt>
</event>
<event>
 5    0  0.1141006E+000  0.2319380E+03  0.7546771E-02  0.1125283E+00
          1   -1    0    0  503    0 -0.00000000000E+00  0.00000000000E+00  0.12849895571E+04  0.12849895571E+04  0.00000000000E+00 0. -1.
         21   -1    0    0  501  502  0.00000000000E+00 -0.00000000000E+00 -0.61293973726E+02  0.61293973726E+02  0.00000000000E+00 0.  1.
         25    1    1    2    0    0 -0.16925095797E+03  0.15128833220E+03  0.35115850815E+03  0.43643022819E+03  0.12500000000E+03 0.  0.
         21    1    1    2  503  502  0.44238602818E+02 -0.46485669059E+02  0.48720223578E+03  0.49141020538E+03  0.00000000000E+00 0. -1.
          1    1    1    2  501    0  0.12501235516E+03 -0.10480266314E+03  0.38533483943E+03  0.41844309724E+03  0.00000000000E+00 0. -1.
<mgrwt>
<rscale>  4 0.23193803E+03</rscale>
<asrwt>0</asrwt>
<pdfrwt beam="1">  1       21 0.94298430E-02 0.23193803E+03</pdfrwt>
<pdfrwt beam="2">  1        1 0.19769068E+00 0.23193803E+03</pdfrwt>
<totfact> 0.10052760E+04</totfact>
</mgrwt>
</event>
<event>
 5    0  0.1141006E+000  0.2453159E+03  0.7546771E-02  0.1116301E+00
         21   -1    0    0  501  502  0.00000000000E+00  0.00000000000E+00  0.44241891310E+03  0.44241891310E+03  0.00000000000E+00 0. -1.
          2   -1    0    0  503    0 -0.00000000000E+00 -0.00000000000E+00 -0.12984863526E+04  0.12984863526E+04  0.00000000000E+00 0. -1.
         25    1    1    2    0    0 -0.94139158133E+02 -0.18954809928E+03  0.39059910221E+03  0.46150116109E+03  0.12500000000E+03 0.  0.
         21    1    1    2  503  502  0.31451590374E+02 -0.35375438179E+01 -0.61721540810E+03  0.61802635603E+03  0.00000000000E+00 0. -1.
          2    1    1    2  501    0  0.62687567759E+02  0.19308564309E+03 -0.62945113365E+03  0.66137774862E+03  0.00000000000E+00 0. -1.
<mgrwt>
<rscale>  4 0.24531588E+03</rscale>
<asrwt>0</asrwt>
<pdfrwt beam="1">  1       21 0.68064449E-01 0.24531588E+03</pdfrwt>
<pdfrwt beam="2">  1        2 0.19976713E+00 0.24531588E+03</pdfrwt>
<totfact> 0.42845348E+02</totfact>
</mgrwt>
</event>
<event>
 5    0  0.1141006E+000  0.2991414E+03  0.7546771E-02  0.1085671E+00
         21   -1    0    0  501  502  0.00000000000E+00  0.00000000000E+00  0.36898486388E+03  0.36898486388E+03  0.00000000000E+00 0. -1.
          2   -1    0    0  503    0 -0.00000000000E+00 -0.00000000000E+00 -0.11090720578E+04  0.11090720578E+04  0.00000000000E+00 0. -1.
         25    1    1    2    0    0 -0.25574084028E+03 -0.81649124952E+02  0.26827865146E+03  0.39958527478E+03  0.12500000000E+03 0.  0.
         21    1    1    2  503  502 -0.46541926076E+02 -0.24509169389E+02 -0.74660925005E+02  0.91329644637E+02  0.00000000000E+00 0. -1.
          2    1    1    2  501    0  0.30228276635E+03  0.10615829434E+03 -0.93370492043E+03  0.98714200231E+03  0.00000000000E+00 0. -1.
<mgrwt>
<rscale>  4 0.29914136E+03</rscale>
<asrwt>0</asrwt>
<pdfrwt beam="1">  1       21 0.56766902E-01 0.29914136E+03</pdfrwt>
<pdfrwt beam="2">  1        2 0.17062647E+00 0.29914136E+03</pdfrwt>
<totfact> 0.79443920E+02</totfact>
</mgrwt>
</event>
<event>
 5    0  0.1141006E+000  0.2666549E+03  0.7546771E-02  0.1103209E+00
          1   -1    0    0  503    0 -0.00000000000E+00  0.00000000000E+00  0.20547298013E+04  0.20547298013E+04  0.00000000000E+00 0.  1.
         21   -1    0    0  501  502  0.00000000000E+00 -0.00000000000E+00 -0.35863502877E+03  0.35863502877E+03  0.00000000000E+00 0. -1.
         25    1    1    2    0    0  0.30948795654E+02  0.23372114378E+03 -0.29681838537E+03  0.39913601052E+03  0.12500000000E+03 0.  0.
         21    1    1    2  503  502  0.19713009545E+02 -0.83693783225E+01  0.73335856773E+03  0.73367120572E+03  0.00000000000E+00 0. -1.
          1    1    1    2  501    0 -0.50661805200E+02 -0.22535176546E+03  0.12595545902E+04  0.12805576138E+04  0.00000000000E+00 0.  1.
<mgrwt>
<rscale>  4 0.26665493E+03</rscale>
<asrwt>0</asrwt>
<pdfrwt beam="1">  1       21 0.55174621E-01 0.26665493E+03</pdfrwt>
<pdfrwt beam="2">  1        1 0.31611227E+00 0.26665493E+03</pdfrwt>
<totfact> 0.10395774E+02</totfact>
</mgrwt>
</event>
<event>
 5    0  0.1141006E+000  0.3734539E+03  0.7546771E-02  0.1053380E+00
          2   -1    0    0  503    0 -0.00000000000E+00  0.00000000000E+00  0.17314445321E+04  0.17314445321E+04  0.00000000000E+00 0. -1.
         21   -1    0    0  501  502  0.00000000000E+00 -0.00000000000E+00 -0.11606714062E+04  0.11606714062E+04  0.00000000000E+00 0. -1.
         25    1    1    2    0    0  0.19193039708E+03  0.29426947998E+03 -0.10916286593E+04  0.11535640139E+04  0.12500000000E+03 0.  0.
         21    1    1    2  503  502 -0.26944066554E+01  0.22692965435E+02  0.80168988864E+03  0.80201552856E+03  0.00000000000E+00 0. -1.
          2    1    1    2  501    0 -0.18923599042E+03 -0.31696244542E+03  0.86071189662E+03  0.93653639591E+03  0.00000000000E+00 0. -1.
<mgrwt>
<rscale>  4 0.37345395E+03</rscale>
<asrwt>0</asrwt>
<pdfrwt beam="1">  1       21 0.17856483E+00 0.37345395E+03</pdfrwt>
<pdfrwt beam="2">  1        2 0.26637608E+00 0.37345395E+03</pdfrwt>
<totfact> 0.21065355E+01</totfact>
</mgrwt>
</event>
<event>
 5    0  0.1141006E+000  0.2456892E+03  0.7546771E-02  0.1116060E+00
         21   -1    0    0  501  502  0.00000000000E+00  0.00000000000E+00  0.69708700268E+03  0.69708700268E+03  0.00000000000E+00 0. -1.
          1   -1    0    0  503    0 -0.00000000000E+00 -0.00000000000E+00 -0.12558611449E+04  0.12558611449E+04  0.00000000000E+00 0.  1.
         25    1    1    2    0    0  0.21361543311E+03  0.58407616726E+01  0.66145381962E+03  0.70626611362E+03  0.12500000000E+03 0.  0.
         21    1    1    2  503  502 -0.56938634320E+02  0.30408895826E+02 -0.67917098354E+03  0.68223158378E+03  0.00000000000E+00 0.  1.
          1    1    1    2  501    0 -0.15667679879E+03 -0.36249657498E+02 -0.54105697826E+03  0.56445045015E+03  0.00000000000E+00 0.  1.
<mgrwt>
<rscale>  4 0.24568919E+03</rscale>
<asrwt>0</asrwt>
<pdfrwt beam="1">  1       21 0.10724416E+00 0.24568919E+03</pdfrwt>
<pdfrwt beam="2">  1        1 0.19320940E+00 0.24568919E+03</pdfrwt>
<totfact> 0.78566178E+01</totfact>
</mgrwt>
</event>
<event>
 5    0  0.1141006E+000  0.3061572E+03  0.7546771E-02  0.1082203E+00
         21   -1    0    0  501  502  0.00000000000E+00  0.00000000000E+00  0.42549632018E+02  0.42549632018E+02  0.00000000000E+00 0.  1.
          1   -1    0    0  503    0 -0.00000000000E+00 -0.00000000000E+00 -0.24353802748E+04  0.24353802748E+04  0.00000000000E+00 0. -1.
         25    1    1    2    0    0  0.26182003323E+02  0.25631740927E+03 -0.13847750327E+04  0.14140760244E+04  0.12500000000E+03 0.  0.
         21    1    1    2  503  502  0.31805171267E+02  0.31180631505E+02 -0.17871269047E+03  0.18417933227E+03  0.00000000000E+00 0.  1.
          1    1    1    2  501    0 -0.57987174590E+02 -0.28749804077E+03 -0.82934291956E+03  0.87967455010E+03  0.00000000000E+00 0. -1.
<mgrwt>
<rscale>  4 0.30615721E+03</rscale>
<asrwt>0</asrwt>
<pdfrwt beam="1">  1       21 0.65460987E-02 0.30615721E+03</pdfrwt>
<pdfrwt beam="2">  1        1 0.37467380E+00 0.30615721E+03</pdfrwt>
<totfact> 0.32600230E+03</totfact>
</mgrwt>
</event>
<event>
 5    0  0.1141006E+000  0.3341779E+03  0.7546771E-02  0.1069303E+00
         21   -1    0    0  501  502  0.00000000000E+00  0.00000000000E+00  0.85914788822E+03  0.85914788822E+03  0.00000000000E+00 0.  1.
          2   -1    0    0  503    0 -0.00000000000E+00 -0.00000000000E+00 -0.36460654975E+03  0.36460654975E+03  0.00000000000E+00 0. -1.
         25    1    1    2    0    0 -0.27838041560E+03  0.13879377679E+03  0.68429770154E+03  0.76200243608E+03  0.12500000000E+03 0.  0.
         21    1    1    2  503  502 -0.79745601130E+01 -0.30680326463E+02 -0.14974496105E+03  0.15306348160E+03  0.00000000000E+00 0.  1.
          2    1    1    2  501    0  0.28635497572E+03 -0.10811345033E+03 -0.40011402019E+02  0.30868852028E+03  0.00000000000E+00 0. -1.
<mgrwt>
<rscale>  4 0.33417788E+03</rscale>
<asrwt>0</asrwt>
<pdfrwt beam="1">  1       21 0.13217660E+00 0.33417788E+03</pdfrwt>
<pdfrwt beam="2">  1        2 0.56093316E-01 0.33417788E+03</pdfrwt>
<totfact> 0.42426916E+02</totfact>
</mgrwt>
</event>
<event>
 5    0  0.1141006E+000  0.2462674E+03  0.7546771E-02  0.1115687E+00
          2   -1    0    0  503    0 -0.00000000000E+00  0.00000000000E+00  0.23983937248E+04  0.23983937248E+04  0.00000000000E+00 0. -1.
         21   -1    0    0  501  502  0.00000000000E+00 -0.00000000000E+00 -0.39693643648E+03  0.39693643648E+03  0.00000000000E+00 0. -1.
         25    1    1    2    0    0 -0.21192430938E+03  0.11806336338E+02 -0.34846477315E+03  0.42673645334E+03  0.12500000000E+03 0.  0.
         21    1    1    2  503  502 -0.31153852090E+00 -0.51661906562E+02  0.10153557127E+04  0.10166692053E+04  0.00000000000E+00 0.  1.
          2    1    1    2  501    0  0.21223584790E+03  0.39855570224E+02  0.13345663487E+04  0.13519245026E+04  0.00000000000E+00 0. -1.
<mgrwt>
<rscale>  4 0.24626743E+03</rscale>
<asrwt>0</asrwt>
<pdfrwt beam="1">  1       21 0.61067146E-01 0.24626743E+03</pdfrwt>
<pdfrwt beam="2">  1        2 0.36898364E+00 0.24626743E+03</pdfrwt>
<totfact> 0.14151495E+02</totfact>
</mgrwt>
</event>
<event>
 5    0  0.1141006E+000  0.2790702E+03  0.7546771E-02  0.1096198E+00
         21   -1    0    0  501  502  0.00000000000E+00  0.00000000000E+00  0.10327684241E+04  0.10327684241E+04  0.00000000000E+00 0.  1.
          1   -1    0    0  503    0 -0.00000000000E+00 -0.00000000000E+00 -0.70513781231E+03  0.70513781231E+03  0.00000000000E+00 0.  1.
         25    1    1    2    0    0 -0.13364800286E+03 -0.21086091229E+03  0.98574930096E+03  0.10245246690E+04  0.12500000000E+03 0.  0.
         21    1    1    2  503  502 -0.16245384159E+02  0.15320957100E+02 -0.11276661466E+03  0.11495631177E+03  0.00000000000E+00 0. -1.
          1    1    1    2  501    0  0.14989338702E+03  0.19553995519E+03 -0.54535207446E+03  0.59842525570E+03  0.00000000000E+00 0.  1.
<mgrwt>
<rscale>  4 0.27907019E+03</rscale>
<asrwt>0</asrwt>
<pdfrwt beam="1">  1       21 0.15888745E+00 0.27907019E+03</pdfrwt>
<pdfrwt beam="2">  1        1 0.10848274E+00 0.27907019E+03</pdfrwt>
<totfact> 0.74401450E+01</totfact>
</mgrwt>
</event>
<event>
 5    0  0.1141006E+000  0.3087525E+03  0.7546771E-02  0.1080945E+00
         21   -1    0    0  501  502  0.00000000000E+00  0.00000000000E+00  0.12516747851E+03  0.12516747851E+03  0.00000000000E+00 0. -1.
          2   -1    0    0  503    0 -0.00000000000E+00 -0.00000000000E+00 -0.18266770771E+04  0.18266770771E+04  0.00000000000E+00 0.  1.
         25    1    1    2    0    0  0.27579032557E+03 -0.60355582932E+02 -0.99687139584E+02  0.32444664564E+03  0.12500000000E+03 0.  0.
         21    1    1    2  503  502 -0.32732012130E+02 -0.11924956430E+01 -0.28872426763E+03  0.29057616795E+03  0.00000000000E+00 0. -1.
          2    1    1    2  501    0 -0.24305831344E+03  0.61548078576E+02 -0.13130981914E+04  0.13368217420E+04  0.00000000000E+00 0.  1.
<mgrwt>
<rscale>  4 0.30875249E+03</rscale>
<asrwt>0</asrwt>
<pdfrwt beam="1">  1       21 0.19256535E-01 0.30875249E+03</pdfrwt>
<pdfrwt beam="2">  1        2 0.28102724E+00 0.30875249E+03</pdfrwt>
<totfact> 0.27871099E+03</totfact>
</mgrwt>
</event>
<event>
 5    0  0.1141006E+000  0.2742821E+03  0.7546771E-02  0.1098854E+00
         21   -1    0    0  501  502  0.00000000000E+00  0.00000000000E+00  0.29055317471E+03  0.29055317471E+03  0.00000000000E+00 0. -1.
          2   -1    0    0  503    0 -0.00000000000E+00 -0.00000000000E+00 -0.24632528371E+04  0.24632528371E+04  0.00000000000E+00 0. -1.
         25    1    1    2    0    0 -0.18031452973E+03 -0.18877921927E+03  0.16736441972E+03  0.33434528896E+03  0.12500000000E+03 0.  0.
         21    1    1    2  503  502  0.44632949773E+02 -0.13792643181E+02  0.17080539265E+02  0.49740145083E+02  0.00000000000E+00 0.  1.
          2    1    1    2  501    0  0.13568157996E+03  0.20257186245E+03 -0.23571446214E+04  0.23697205778E+04  0.00000000000E+00 0. -1.
<mgrwt>
<rscale>  4 0.27428212E+03</rscale>
<asrwt>0</asrwt>
<pdfrwt beam="1">  1       21 0.44700489E-01 0.27428212E+03</pdfrwt>
<pdfrwt beam="2">  1        2 0.37896197E+00 0.27428212E+03</pdfrwt>
<totfact> 0.24752439E+02</totfact>
</mgrwt>
</event>
<event>
 5    0  0.1141006E+000  0.2465688E+03  0.7546771E-02  0.1115493E+00
         21   -1    0    0  501  502  0.00000000000E+00  0.00000000000E+00  0.19027374582E+03  0.19027374582E+03  0.00000000000E+00 0.  1.
          1   -1    0    0  503    0 -0.00000000000E+00 -0.00000000000E+00 -0.47717020522E+03  0.47717020522E+03  0.00000000000E+00 0.  1.
         25    1    1    2    0    0  0.13272693052E+02 -0.22774974152E+03 -0.22207286128E+03  0.34203430363E+03  0.12500000000E+03 0.  0.
         21    1    1    2  503  502 -0.40365958025E+01  0.20036342092E+02 -0.11063233376E+03  0.11250449939E+03  0.00000000000E+00 0.  1.
          1    1    1    2  501    0 -0.92360972495E+01  0.20771339942E+03  0.45808735646E+02  0.21290514802E+03  0.00000000000E+00 0.  1.
<mgrwt>
<rscale>  4 0.24656876E+03</rscale>
<asrwt>0</asrwt>
<pdfrwt beam="1">  1       21 0.29272884E-01 0.24656876E+03</pdfrwt>
<pdfrwt beam="2">  1        1 0.73410801E-01 0.24656876E+03</pdfrwt>
<totfact> 0.58442195E+03</totfact>
</mgrwt>
</event>
<event>
 5    0  0.1141006E+000  0.4965893E+03  0.7546771E-02  0.1027450E+00
          2   -1    0    0  503    0 -0.00000000000E+00  0.00000000000E+00  0.34452354645E+03  0.34452354645E+03  0.00000000000E+00 0. -1.
         21   -1    0    0  501  502  0.00000000000E+00 -0.00000000000E+00 -0.16783483610E+04  0.16783483610E+04  0.00000000000E+00 0.  1.
         25    1    1    2    0    0  0.28345826852E+03 -0.13412759439E+03 -0.58753679890E+03  0.67761588797E+03  0.12500000000E+03 0.  0.
         21    1    1    2  503  502 -0.16912212562E+03  0.58852136925E+03 -0.59260435315E+03  0.85213826039E+03  0.00000000000E+00 0. -1.
          2    1    1    2  501    0 -0.11433614289E+03 -0.45439377486E+03 -0.15368366250E+03  0.49311775908E+03  0.00000000000E+00 0. -1.
<mgrwt>
<rscale>  4 0.45091417E+03</rscale>
<asrwt>0</asrwt>
<pdfrwt beam="1">  1       21 0.25820744E+00 0.49658930E+03</pdfrwt>
<pdfrwt beam="2">  1        2 0.53003623E-01 0.49658930E+03</pdfrwt>
<totfact> 0.56894550E+01</totfact>
</mgrwt>
</event>
<event>
 5    0  0.2072919E+000  0.3775081E+03  0.7546771E-02  0.1051859E+00
         21   -1    0    0  501  502  0.00000000000E+00  0.00000000000E+00  0.15329645016E+04  0.15329645016E+04  0.00000000000E+00 0. -1.
          2   -1    0    0  503    0 -0.00000000000E+00 -0.00000000000E+00 -0.20215200916E+04  0.20215200916E+04  0.00000000000E+00 0. -1.
         25    1    1    2    0    0 -0.93853605941E+02 -0.36925866780E+03  0.14775048945E+04  0.15309494363E+04  0.12500000000E+03 0.  0.
         21    1    1    2  503  502 -0.50574214806E+01  0.27326307118E+02 -0.24221193692E+01  0.27895720729E+02  0.00000000000E+00 0.  1.
          2    1    1    2  501    0  0.98911027421E+02  0.34193236068E+03 -0.19636383651E+04  0.19956394362E+04  0.00000000000E+00 0. -1.
<mgrwt>
<rscale>  4 0.37750811E+03</rscale>
<asrwt>0</asrwt>
<pdfrwt beam="1">  1       21 0.23584069E+00 0.37750811E+03</pdfrwt>
<pdfrwt beam="2">  1        2 0.31100309E+00 0.37750811E+03</pdfrwt>
<totfact> 0.62122919E+00</totfact>
</mgrwt>
</event>
<event>
 5    0  0.1141006E+000  0.2411222E+03  0.7546771E-02  0.1119047E+00
         21   -1    0    0  503  502  0.00000000000E+00  0.00000000000E+00  0.14959336566E+04  0.14959336566E+04  0.00000000000E+00 0. -1.
         -3   -1    0    0    0  501 -0.00000000000E+00 -0.00000000000E+00 -0.39847079849E+02  0.39847079849E+02  0.00000000000E+00 0. -1.
         25    1    1    2    0    0 -0.18642156012E+03 -0.11303396545E+03  0.79241231834E+03  0.83130737858E+03  0.12500000000E+03 0.  0.
         21    1    1    2  503  501  0.25381219531E+02 -0.10954080221E+01  0.23667793109E+02  0.34721328521E+02  0.00000000000E+00 0. -1.
         -3    1    1    2    0  502  0.16104034059E+03  0.11412937347E+03  0.64000646529E+03  0.66975202934E+03  0.00000000000E+00 0. -1.
<mgrwt>
<rscale>  4 0.24112221E+03</rscale>
<asrwt>0</asrwt>
<pdfrwt beam="1">  1       21 0.23014360E+00 0.24112221E+03</pdfrwt>
<pdfrwt beam="2">  1       -3 0.61303211E-02 0.24112221E+03</pdfrwt>
<totfact> 0.69264786E+02</totfact>
</mgrwt>
</event>
<event>
 5    0  0.1141006E+000  0.2687634E+03  0.7546771E-02  0.1101989E+00
         21   -1    0    0  501  502  0.00000000000E+00  0.00000000000E+00  0.61367636239E+02  0.61367636239E+02  0.00000000000E+00 0. -1.
          2   -1    0    0  503    0 -0.00000000000E+00 -0.00000000000E+00 -0.19672561208E+04  0.19672561208E+04  0.00000000000E+00 0. -1.
         25    1    1    2    0    0 -0.13516412391E+03  0.20816910140E+03 -0.34404854589E+03  0.44226475905E+03  0.12500000000E+03 0.  0.
         21    1    1    2  503  502  0.59201036883E+02 -0.17216286429E+02 -0.20585026413E+03  0.21488484016E+03  0.00000000000E+00 0.  1.
          2    1    1    2  501    0  0.75963087028E+02 -0.19095281497E+03 -0.13559896745E+04  0.13714741578E+04  0.00000000000E+00 0. -1.
<mgrwt>
<rscale>  4 0.26876336E+03</rscale>
<asrwt>0</asrwt>
<pdfrwt beam="1">  1       21 0.94411741E-02 0.26876336E+03</pdfrwt>
<pdfrwt beam="2">  1        2 0.30265481E+00 0.26876336E+03</pdfrwt>
<totfact> 0.87403054E+03</totfact>
</mgrwt>
</event>
<event>
 5    0  0.1141006E+000  0.2623498E+03  0.7546771E-02  0.1105740E+00
         21   -1    0    0  501  502  0.00000000000E+00  0.00000000000E+00  0.86296533062E+02  0.86296533062E+02  0.00000000000E+00 0. -1.
          2   -1    0    0  503    0 -0.00000000000E+00 -0.00000000000E+00 -0.96084506091E+03  0.96084506091E+03  0.00000000000E+00 0. -1.
         25    1    1    2    0    0 -0.11440871167E+03 -0.20541150451E+03 -0.22724566983E+03  0.35006975583E+03  0.12500000000E+03 0.  0.
         21    1    1    2  503  502  0.22398624967E+02  0.21075022598E+01 -0.15409611533E+03  0.15572974259E+03  0.00000000000E+00 0.  1.
          2    1    1    2  501    0  0.92010086700E+02  0.20330400225E+03 -0.49320674269E+03  0.54134209556E+03  0.00000000000E+00 0. -1.
<mgrwt>
<rscale>  4 0.26234975E+03</rscale>
<asrwt>0</asrwt>
<pdfrwt beam="1">  1       21 0.13276389E-01 0.26234975E+03</pdfrwt>
<pdfrwt beam="2">  1        2 0.14782232E+00 0.26234975E+03</pdfrwt>
<totfact> 0.17006538E+04</totfact>
</mgrwt>
</event>
<event>
 5    0  0.1141006E+000  0.3315250E+03  0.7546771E-02  0.1070464E+00
         21   -1    0    0  501  502  0.00000000000E+00  0.00000000000E+00  0.21100006603E+03  0.21100006603E+03  0.00000000000E+00 0. -1.
          2   -1    0    0  503    0 -0.00000000000E+00 -0.00000000000E+00 -0.54550559411E+03  0.54550559411E+03  0.00000000000E+00 0. -1.
         25    1    1    2    0    0  0.17234673379E+03  0.25412676575E+03 -0.60627169042E+02  0.33702294187E+03  0.12500000000E+03 0.  0.
         21    1    1    2  503  502 -0.33328343605E+02 -0.81136491369E+01 -0.39849247673E+02  0.52579200544E+02  0.00000000000E+00 0. -1.
          2    1    1    2  501    0 -0.13901839018E+03 -0.24601311661E+03 -0.23402911137E+03  0.36690351773E+03  0.00000000000E+00 0. -1.
<mgrwt>
<rscale>  4 0.33152498E+03</rscale>
<asrwt>0</asrwt>
<pdfrwt beam="1">  1       21 0.32461549E-01 0.33152498E+03</pdfrwt>
<pdfrwt beam="2">  1        2 0.83923936E-01 0.33152498E+03</pdfrwt>
<totfact> 0.62407283E+03</totfact>
</mgrwt>
</event>
<event>
 5    0  0.1141006E+000  0.2895753E+03  0.7546771E-02  0.1090571E+00
         21   -1    0    0  501  502  0.00000000000E+00  0.00000000000E+00  0.14110397671E+03  0.14110397671E+03  0.00000000000E+00 0.  1.
          1   -1    0    0  503    0 -0.00000000000E+00 -0.00000000000E+00 -0.13268662720E+04  0.13268662720E+04  0.00000000000E+00 0.  1.
         25    1    1    2    0    0  0.24229325424E+03  0.14759036233E+03 -0.98232252177E+02  0.32521302476E+03  0.12500000000E+03 0.  0.
         21    1    1    2  503  502 -0.60837233629E+02 -0.34058652953E+02 -0.66943538309E+03  0.67305638172E+03  0.00000000000E+00 0.  1.
          1    1    1    2  501    0 -0.18145602061E+03 -0.11353170938E+03 -0.41809466002E+03  0.46970084223E+03  0.00000000000E+00 0.  1.
<mgrwt>
<rscale>  4 0.28957533E+03</rscale>
<asrwt>0</asrwt>
<pdfrwt beam="1">  1       21 0.21708304E-01 0.28957533E+03</pdfrwt>
<pdfrwt beam="2">  1        1 0.20413328E+00 0.28957533E+03</pdfrwt>
<totfact> 0.20106879E+03</totfact>
</mgrwt>
</event>
<event>
 5    0  0.1141006E+000  0.2486955E+03  0.7546771E-02  0.1114132E+00
          2   -1    0    0  503    0 -0.00000000000E+00  0.00000000000E+00  0.25141699710E+04  0.25141699710E+04  0.00000000000E+00 0. -1.
         21   -1    0    0  501  502  0.00000000000E+00 -0.00000000000E+00 -0.37118748459E+02  0.37118748459E+02  0.00000000000E+00 0. -1.
         25    1    1    2    0    0  0.19399658788E+03 -0.10561432821E+03  0.62855501829E+03  0.67786095437E+03  0.12500000000E+03 0.  0.
         21    1    1    2  503  502 -0.45410933802E+02 -0.45123925113E+02  0.86742748144E+03  0.86978661584E+03  0.00000000000E+00 0. -1.
          2    1    1    2  501    0 -0.14858565408E+03  0.15073825332E+03  0.98106872286E+03  0.10036411493E+04  0.00000000000E+00 0. -1.
<mgrwt>
<rscale>  4 0.24869545E+03</rscale>
<asrwt>0</asrwt>
<pdfrwt beam="1">  1       21 0.57105787E-02 0.24869545E+03</pdfrwt>
<pdfrwt beam="2">  1        2 0.38679525E+00 0.24869545E+03</pdfrwt>
<totfact> 0.10794748E+04</totfact>
</mgrwt>
</event>
<event>
 5    0  0.1141006E+000  0.3629975E+03  0.7546771E-02  0.1057403E+00
          2   -1    0    0  503    0 -0.00000000000E+00  0.00000000000E+00  0.11635846533E+04  0.11635846533E+04  0.00000000000E+00 0.  1.
         21   -1    0    0  501  502  0.00000000000E+00 -0.00000000000E+00 -0.26285859886E+03  0.26285859886E+03  0.00000000000E+00 0.  1.
         25    1    1    2    0    0  0.32271587462E+03 -0.99871597198E+02  0.26951285541E+03  0.44986892635E+03  0.12500000000E+03 0.  0.
         21    1    1    2  503  502 -0.42224064168E+01 -0.26169000577E+02  0.63348606049E+03  0.63404040418E+03  0.00000000000E+00 0.  1.
          2    1    1    2  501    0 -0.31849346820E+03  0.12604059777E+03 -0.22728614555E+01  0.34253392164E+03  0.00000000000E+00 0.  1.
<mgrwt>
<rscale>  4 0.36299748E+03</rscale>
<asrwt>0</asrwt>
<pdfrwt beam="1">  1       21 0.40439785E-01 0.36299748E+03</pdfrwt>
<pdfrwt beam="2">  1        2 0.17901302E+00 0.36299748E+03</pdfrwt>
<totfact> 0.14710566E+03</totfact>
</mgrwt>
</event>
<event>
 5    0  0.1141006E+000  0.4785326E+03  0.7546771E-02  0.1019539E+00
          2   -1    0    0  503    0 -0.00000000000E+00  0.00000000000E+00  0.67715031502E+03  0.67715031502E+03  0.00000000000E+00 0.  1.
         21   -1    0    0  501  502  0.00000000000E+00 -0.00000000000E+00 -0.14385348395E+04  0.14385348395E+04  0.00000000000E+00 0.  1.
         25    1    1    2    0    0  0.15891298936E+03 -0.44084940881E+03 -0.10999009003E+04  0.12020850760E+04  0.12500000000E+03 0.  0.
         21    1    1    2  503  502 -0.77288323633E+01  0.27813277537E+02  0.45713854092E+03  0.45804907909E+03  0.00000000000E+00 0.  1.
          2    1    1    2  501    0 -0.15118415700E+03  0.41303613127E+03 -0.11862216515E+03  0.45555099948E+03  0.00000000000E+00 0.  1.
<mgrwt>
<rscale>  4 0.47853256E+03</rscale>
<asrwt>0</asrwt>
<pdfrwt beam="1">  1       21 0.22131305E+00 0.47853256E+03</pdfrwt>
<pdfrwt beam="2">  1        2 0.10417697E+00 0.47853256E+03</pdfrwt>
<totfact> 0.44819329E+01</totfact>
</mgrwt>
</event>
<event>
 5    0  0.1141006E+000  0.2758383E+03  0.7546771E-02  0.1097984E+00
          2   -1    0    0  503    0 -0.00000000000E+00  0.00000000000E+00  0.12184350626E+04  0.12184350626E+04  0.00000000000E+00 0. -1.
         21   -1    0    0  501  502  0.00000000000E+00 -0.00000000000E+00 -0.12741718694E+03  0.12741718694E+03  0.00000000000E+00 0. -1.
         25    1    1    2    0    0  0.13017917689E+03  0.20995312834E+03  0.36496162158E+03  0.45809269741E+03  0.12500000000E+03 0.  0.
         21    1    1    2  503  502  0.16011359789E+02 -0.12563394655E+02  0.61979577228E+03  0.62012982662E+03  0.00000000000E+00 0. -1.
          2    1    1    2  501    0 -0.14619053668E+03 -0.19738973369E+03  0.10626048180E+03  0.26762972550E+03  0.00000000000E+00 0. -1.
<mgrwt>
<rscale>  4 0.27583826E+03</rscale>
<asrwt>0</asrwt>
<pdfrwt beam="1">  1       21 0.19602645E-01 0.27583826E+03</pdfrwt>
<pdfrwt beam="2">  1        2 0.18745154E+00 0.27583826E+03</pdfrwt>
<totfact> 0.58056988E+03</totfact>
</mgrwt>
</event>
<event>
 5    0  0.1141006E+000  0.3145919E+03  0.7546771E-02  0.1078166E+00
         21   -1    0    0  501  502  0.00000000000E+00  0.00000000000E+00  0.60184996778E+02  0.60184996778E+02  0.00000000000E+00 0. -1.
          2   -1    0    0  503    0 -0.00000000000E+00 -0.00000000000E+00 -0.22022493216E+04  0.22022493216E+04  0.00000000000E+00 0. -1.
         25    1    1    2    0    0 -0.24266456175E+03 -0.16035460107E+03 -0.55421317288E+03  0.63826086251E+03  0.12500000000E+03 0.  0.
         21    1    1    2  503  502  0.34418244172E+02 -0.36362160906E+02 -0.15230690964E+03  0.16032534735E+03  0.00000000000E+00 0.  1.
          2    1    1    2  501    0  0.20824631758E+03  0.19671676198E+03 -0.14355442423E+04  0.14638481086E+04  0.00000000000E+00 0. -1.
<mgrwt>
<rscale>  4 0.31459192E+03</rscale>
<asrwt>0</asrwt>
<pdfrwt beam="1">  1       21 0.92592302E-02 0.31459192E+03</pdfrwt>
<pdfrwt beam="2">  1        2 0.33880759E+00 0.31459192E+03</pdfrwt>
<totfact> 0.66927725E+03</totfact>
</mgrwt>
</event>
<event>
 5    0  0.1141006E+000  0.3036140E+03  0.7546771E-02  0.1083448E+00
          1   -1    0    0  503    0 -0.00000000000E+00  0.00000000000E+00  0.17034657590E+04  0.17034657590E+04  0.00000000000E+00 0.  1.
         21   -1    0    0  501  502  0.00000000000E+00 -0.00000000000E+00 -0.16931486821E+03  0.16931486821E+03  0.00000000000E+00 0. -1.
         25    1    1    2    0    0 -0.23285149135E+03 -0.17418629431E+03  0.10557575593E+02  0.31669724431E+03  0.12500000000E+03 0.  0.
         21    1    1    2  503  502  0.46231049022E+01  0.19774579749E+02  0.24256121219E+02  0.31634894022E+02  0.00000000000E+00 0.  1.
          1    1    1    2  501    0  0.22822838645E+03  0.15441171456E+03  0.14993371939E+04  0.15244484888E+04  0.00000000000E+00 0.  1.
<mgrwt>
<rscale>  4 0.30361400E+03</rscale>
<asrwt>0</asrwt>
<pdfrwt beam="1">  1       21 0.26048442E-01 0.30361400E+03</pdfrwt>
<pdfrwt beam="2">  1        1 0.26207164E+00 0.30361400E+03</pdfrwt>
<totfact> 0.79097262E+02</totfact>
</mgrwt>
</event>
