<event>
 5    0  0.1781295E-001  0.2991581E+03  0.7546771E-02  0.1085662E+00
         21   -1    0    0  501  502  0.00000000000E+00  0.00000000000E+00  0.56786474225E+03  0.56786474225E+03  0.00000000000E+00 0.  1.
         21   -1    0    0  502  503 -0.00000000000E+00 -0.00000000000E+00 -0.21871916913E+03  0.21871916913E+03  0.00000000000E+00 0.  1.
         25    1    1    2    0    0  0.22503919989E+03  0.15240718745E+03  0.39886302040E+03  0.49858529994E+03  0.12500000000E+03 0.  0.
          3    1    1    2  501    0 -0.45649583036E+02 -0.15248749519E+02  0.19323947122E+02  0.51863510541E+02  0.00000000000E+00 0. -1.
         -3    1    1    2    0  503 -0.17938961686E+03 -0.13715843793E+03 -0.69041394408E+02  0.23613510089E+03  0.00000000000E+00 0.  1.
<mgrwt>
<rscale>  4 0.29915814E+03</rscale>
<asrwt>0</asrwt>
<pdfrwt beam="1">  1       21 0.87363806E-01 0.29915814E+03</pdfrwt>
<pdfrwt beam="2">  1       21 0.33649103E-01 0.29915814E+03</pdfrwt>
<totfact> 0.89980324E+03</totfact>
</mgrwt>
</event>
<event>
 5    0  0.1781295E-001  0.2402436E+03  0.7546771E-02  0.1119631E+00
         21   -1    0    0  501  502  0.00000000000E+00  0.00000000000E+00  0.40043501412E+03  0.40043501412E+03  0.00000000000E+00 0. -1.
         21   -1    0    0  502  503 -0.00000000000E+00 -0.00000000000E+00 -0.13964322185E+03  0.13964322185E+03  0.00000000000E+00 0. -1.
         25    1    1    2    0    0  0.18685641706E+03  0.84715106304E+02  0.22080939600E+03  0.32630317067E+03  0.12500000000E+03 0.  0.
          2    1    1    2  501    0 -0.16272773671E+03 -0.87339344505E+02  0.28305703581E+02  0.18684135048E+03  0.00000000000E+00 0. -1.
         -2    1    1    2    0  503 -0.24128680347E+02  0.26242382002E+01  0.11676692695E+02  0.26933714815E+02  0.00000000000E+00 0.  1.
<mgrwt>
<rscale>  4 0.24024356E+03</rscale>
<asrwt>0</asrwt>
<pdfrwt beam="1">  1       21 0.61605386E-01 0.24024356E+03</pdfrwt>
<pdfrwt beam="2">  1       21 0.21483573E-01 0.24024356E+03</pdfrwt>
<totfact> 0.48344254E+04</totfact>
</mgrwt>
</event>
<event>
 5    0  0.1781295E-001  0.2490973E+03  0.7546771E-02  0.1113877E+00
         21   -1    0    0  501  502  0.00000000000E+00  0.00000000000E+00  0.22185705415E+03  0.22185705415E+03  0.00000000000E+00 0.  1.
         21   -1    0    0  502  503 -0.00000000000E+00 -0.00000000000E+00 -0.33998217266E+03  0.33998217266E+03  0.00000000000E+00 0.  1.
         25    1    1    2    0    0 -0.76268057551E+02 -0.20151335416E+03 -0.20585780245E+03  0.32315148667E+03  0.12500000000E+03 0.  0.
          2    1    1    2  501    0  0.35967666611E+02  0.12940498824E+03  0.78497236524E+02  0.15556715645E+03  0.00000000000E+00 0.  1.
         -2    1    1    2    0  503  0.40300390940E+02  0.72108365915E+02  0.92354474160E+01  0.83120583695E+02  0.00000000000E+00 0. -1.
<mgrwt>
<rscale>  4 0.24909727E+03</rscale>
<asrwt>0</asrwt>
<pdfrwt beam="1">  1       21 0.34131855E-01 0.24909727E+03</pdfrwt>
<pdfrwt beam="2">  1       21 0.52304949E-01 0.24909727E+03</pdfrwt>
<totfact> 0.27866830E+04</totfact>
</mgrwt>
</event>
<event>
 5    0  0.1781295E-001  0.2182105E+03  0.7546771E-02  0.1135224E+00
         21   -1    0    0  501  502  0.00000000000E+00  0.00000000000E+00  0.37766279014E+03  0.37766279014E+03  0.00000000000E+00 0.  1.
         21   -1    0    0  502  503 -0.00000000000E+00 -0.00000000000E+00 -0.21984655211E+03  0.21984655211E+03  0.00000000000E+00 0.  1.
         25    1    1    2    0    0 -0.40582222605E+01  0.21932787079E+03  0.62307868551E+02  0.26005471455E+03  0.12500000000E+03 0.  0.
          2    1    1    2  501    0 -0.73960797845E+02 -0.15113953045E+03 -0.33928200181E+02  0.17165220666E+03  0.00000000000E+00 0.  1.
         -2    1    1    2    0  503  0.78019020106E+02 -0.68188340339E+02  0.12943656966E+03  0.16580242104E+03  0.00000000000E+00 0. -1.
<mgrwt>
<rscale>  4 0.21821054E+03</rscale>
<asrwt>0</asrwt>
<pdfrwt beam="1">  1       21 0.58101968E-01 0.21821054E+03</pdfrwt>
<pdfrwt beam="2">  1       21 0.33822547E-01 0.21821054E+03</pdfrwt>
<totfact> 0.23038963E+04</totfact>
</mgrwt>
</event>
<event>
 5    0  0.1781295E-001  0.2194238E+03  0.7546771E-02  0.1134313E+00
         21   -1    0    0  501  502  0.00000000000E+00  0.00000000000E+00  0.11145003339E+03  0.11145003339E+03  0.00000000000E+00 0.  1.
         21   -1    0    0  502  503 -0.00000000000E+00 -0.00000000000E+00 -0.75610091459E+03  0.75610091459E+03  0.00000000000E+00 0.  1.
         25    1    1    2    0    0  0.25016943872E+03  0.18167574684E+02 -0.24140521545E+03  0.36988685687E+03  0.12500000000E+03 0.  0.
          4    1    1    2  501    0 -0.16165527087E+03 -0.40607474736E+01 -0.36688056920E+03  0.40093673855E+03  0.00000000000E+00 0.  1.
         -4    1    1    2    0  503 -0.88514167855E+02 -0.14106827210E+02 -0.36365096546E+02  0.96727352553E+02  0.00000000000E+00 0. -1.
<mgrwt>
<rscale>  4 0.21942377E+03</rscale>
<asrwt>0</asrwt>
<pdfrwt beam="1">  1       21 0.17146158E-01 0.21942377E+03</pdfrwt>
<pdfrwt beam="2">  1       21 0.11632322E+00 0.21942377E+03</pdfrwt>
<totfact> 0.17213657E+04</totfact>
</mgrwt>
</event>
<event>
 5    0  0.1781295E-001  0.2428877E+03  0.7546771E-02  0.1117884E+00
         21   -1    0    0  501  502  0.00000000000E+00  0.00000000000E+00  0.25951364306E+04  0.25951364306E+04  0.00000000000E+00 0. -1.
         21   -1    0    0  502  503 -0.00000000000E+00 -0.00000000000E+00 -0.20496743681E+02  0.20496743681E+02  0.00000000000E+00 0. -1.
         25    1    1    2    0    0  0.19552031837E+03 -0.71702330091E+02  0.12119198951E+04  0.12360195189E+04  0.12500000000E+03 0.  0.
          1    1    1    2  501    0 -0.96561613522E+02  0.58770727405E+02  0.62027003420E+03  0.63048636697E+03  0.00000000000E+00 0. -1.
         -1    1    1    2    0  503 -0.98958704848E+02  0.12931602686E+02  0.74244975762E+03  0.74912728839E+03  0.00000000000E+00 0.  1.
<mgrwt>
<rscale>  4 0.24288767E+03</rscale>
<asrwt>0</asrwt>
<pdfrwt beam="1">  1       21 0.39925150E+00 0.24288767E+03</pdfrwt>
<pdfrwt beam="2">  1       21 0.31533472E-02 0.24288767E+03</pdfrwt>
<totfact> 0.48261810E+03</totfact>
</mgrwt>
</event>
<event>
 5    0  0.1781295E-001  0.4520990E+03  0.7546771E-02  0.1027098E+00
         21   -1    0    0  501  502  0.00000000000E+00  0.00000000000E+00  0.15470460728E+04  0.15470460728E+04  0.00000000000E+00 0. -1.
         21   -1    0    0  502  503 -0.00000000000E+00 -0.00000000000E+00 -0.36782945239E+03  0.36782945239E+03  0.00000000000E+00 0. -1.
         25    1    1    2    0    0  0.22623327766E+03  0.37283693344E+03 -0.17012637420E+03  0.48451713907E+03  0.12500000000E+03 0.  0.
          3    1    1    2  501    0 -0.43104773956E+02  0.96870448446E+01  0.21111527684E+03  0.21568848020E+03  0.00000000000E+00 0.  1.
         -3    1    1    2    0  503 -0.18312850370E+03 -0.38252397828E+03  0.11382277178E+04  0.12146699059E+04  0.00000000000E+00 0. -1.
<mgrwt>
<rscale>  4 0.45209905E+03</rscale>
<asrwt>0</asrwt>
<pdfrwt beam="1">  1       21 0.23800708E+00 0.45209905E+03</pdfrwt>
<pdfrwt beam="2">  1       21 0.56589147E-01 0.45209905E+03</pdfrwt>
<totfact> 0.18325518E+02</totfact>
</mgrwt>
</event>
<event>
 5    0  0.1781295E-001  0.3201674E+03  0.7546771E-02  0.1075572E+00
         21   -1    0    0  501  502  0.00000000000E+00  0.00000000000E+00  0.50944680234E+03  0.50944680234E+03  0.00000000000E+00 0.  1.
         21   -1    0    0  502  503 -0.00000000000E+00 -0.00000000000E+00 -0.25181845057E+03  0.25181845057E+03  0.00000000000E+00 0.  1.
         25    1    1    2    0    0  0.28151800218E+03 -0.87348651492E+02 -0.54923294906E+02  0.32484417925E+03  0.12500000000E+03 0.  0.
          3    1    1    2  501    0 -0.12008462265E+03  0.14842519188E+02  0.17266874693E+03  0.21084381219E+03  0.00000000000E+00 0. -1.
         -3    1    1    2    0  503 -0.16143337954E+03  0.72506132305E+02  0.13988289975E+03  0.22557726147E+03  0.00000000000E+00 0.  1.
<mgrwt>
<rscale>  4 0.32016741E+03</rscale>
<asrwt>0</asrwt>
<pdfrwt beam="1">  1       21 0.78376431E-01 0.32016741E+03</pdfrwt>
<pdfrwt beam="2">  1       21 0.38741300E-01 0.32016741E+03</pdfrwt>
<totfact> 0.86172484E+03</totfact>
</mgrwt>
</event>
<event>
 5    0  0.1781295E-001  0.3322352E+03  0.7546771E-02  0.1070152E+00
         21   -1    0    0  501  502  0.00000000000E+00  0.00000000000E+00  0.24753860677E+03  0.24753860677E+03  0.00000000000E+00 0.  1.
         21   -1    0    0  502  503 -0.00000000000E+00 -0.00000000000E+00 -0.41848630124E+03  0.41848630124E+03  0.00000000000E+00 0.  1.
         25    1    1    2    0    0  0.12840380643E+03 -0.27976365279E+03 -0.85702290230E+02  0.34311094631E+03  0.12500000000E+03 0.  0.
          4    1    1    2  501    0 -0.12869647656E+03  0.24544697706E+03 -0.75971990378E+02  0.28736517700E+03  0.00000000000E+00 0.  1.
         -4    1    1    2    0  503  0.29267013309E+00  0.34316675733E+02 -0.92734138570E+01  0.35548784702E+02  0.00000000000E+00 0. -1.
<mgrwt>
<rscale>  4 0.33223522E+03</rscale>
<asrwt>0</asrwt>
<pdfrwt beam="1">  1       21 0.38082863E-01 0.33223522E+03</pdfrwt>
<pdfrwt beam="2">  1       21 0.64382507E-01 0.33223522E+03</pdfrwt>
<totfact> 0.13797252E+04</totfact>
</mgrwt>
</event>
<event>
 5    0  0.1781295E-001  0.2390203E+03  0.7546771E-02  0.1120447E+00
         21   -1    0    0  501  502  0.00000000000E+00  0.00000000000E+00  0.16559722421E+03  0.16559722421E+03  0.00000000000E+00 0.  1.
         21   -1    0    0  502  503 -0.00000000000E+00 -0.00000000000E+00 -0.11972398015E+04  0.11972398015E+04  0.00000000000E+00 0. -1.
         25    1    1    2    0    0  0.72487268323E+02 -0.19039771681E+03  0.63646613578E+02  0.24734911776E+03  0.12500000000E+03 0.  0.
          4    1    1    2  501    0 -0.69105477255E+02  0.13294282625E+03 -0.68600103775E+03  0.70217290309E+03  0.00000000000E+00 0. -1.
         -4    1    1    2    0  503 -0.33817910682E+01  0.57454890560E+02 -0.40928815310E+03  0.41331500485E+03  0.00000000000E+00 0.  1.
<mgrwt>
<rscale>  4 0.23902028E+03</rscale>
<asrwt>0</asrwt>
<pdfrwt beam="1">  1       21 0.25476496E-01 0.23902028E+03</pdfrwt>
<pdfrwt beam="2">  1       21 0.18419074E+00 0.23902028E+03</pdfrwt>
<totfact> 0.23881706E+03</totfact>
</mgrwt>
</event>
<event>
 5    0  0.1781295E-001  0.3071867E+03  0.7546771E-02  0.1081702E+00
         21   -1    0    0  501  502  0.00000000000E+00  0.00000000000E+00  0.69033297479E+02  0.69033297479E+02  0.00000000000E+00 0. -1.
         21   -1    0    0  502  503 -0.00000000000E+00 -0.00000000000E+00 -0.13522722778E+04  0.13522722778E+04  0.00000000000E+00 0. -1.
         25    1    1    2    0    0 -0.17252724777E+03  0.22129850304E+03 -0.77492502345E+03  0.83359010949E+03  0.12500000000E+03 0.  0.
          4    1    1    2  501    0  0.93338288924E+02 -0.16571583560E+03 -0.39717101970E+03  0.44036188894E+03  0.00000000000E+00 0. -1.
         -4    1    1    2    0  503  0.79188958847E+02 -0.55582667440E+02 -0.11114293715E+03  0.14735357682E+03  0.00000000000E+00 0.  1.
<mgrwt>
<rscale>  4 0.30718672E+03</rscale>
<asrwt>0</asrwt>
<pdfrwt beam="1">  1       21 0.10620508E-01 0.30718672E+03</pdfrwt>
<pdfrwt beam="2">  1       21 0.20804188E+00 0.30718672E+03</pdfrwt>
<totfact> 0.80311965E+03</totfact>
</mgrwt>
</event>
<event>
 5    0  0.1781295E-001  0.2754516E+03  0.7546771E-02  0.1098199E+00
         21   -1    0    0  501  502  0.00000000000E+00  0.00000000000E+00  0.81965298723E+02  0.81965298723E+02  0.00000000000E+00 0.  1.
         21   -1    0    0  502  503 -0.00000000000E+00 -0.00000000000E+00 -0.12351038897E+04  0.12351038897E+04  0.00000000000E+00 0.  1.
         25    1    1    2    0    0  0.23831528639E+03 -0.58774160442E+02 -0.23814735532E+03  0.36412599537E+03  0.12500000000E+03 0.  0.
          2    1    1    2  501    0 -0.63393656034E+02  0.19800000508E+02 -0.44527799889E+03  0.45020361165E+03  0.00000000000E+00 0. -1.
         -2    1    1    2    0  503 -0.17492163035E+03  0.38974159934E+02 -0.46971323674E+03  0.50273958137E+03  0.00000000000E+00 0.  1.
<mgrwt>
<rscale>  4 0.27545159E+03</rscale>
<asrwt>0</asrwt>
<pdfrwt beam="1">  1       21 0.12610047E-01 0.27545159E+03</pdfrwt>
<pdfrwt beam="2">  1       21 0.19001597E+00 0.27545159E+03</pdfrwt>
<totfact> 0.78842437E+03</totfact>
</mgrwt>
</event>
<event>
 5    0  0.1781295E-001  0.2701737E+03  0.7546771E-02  0.1101180E+00
         21   -1    0    0  501  502  0.00000000000E+00  0.00000000000E+00  0.23052964792E+04  0.23052964792E+04  0.00000000000E+00 0.  1.
         21   -1    0    0  502  503 -0.00000000000E+00 -0.00000000000E+00 -0.51970722697E+02  0.51970722697E+02  0.00000000000E+00 0.  1.
         25    1    1    2    0    0 -0.19266522090E+03 -0.14229883834E+03  0.19450591865E+04  0.19637334559E+04  0.12500000000E+03 0.  0.
          2    1    1    2  501    0  0.92537484001E+01  0.18808366054E+02  0.13040864683E+02  0.24687054194E+02  0.00000000000E+00 0. -1.
         -2    1    1    2    0  503  0.18341147250E+03  0.12349047228E+03  0.29522570531E+03  0.36884669182E+03  0.00000000000E+00 0.  1.
<mgrwt>
<rscale>  4 0.27017373E+03</rscale>
<asrwt>0</asrwt>
<pdfrwt beam="1">  1       21 0.35466092E+00 0.27017373E+03</pdfrwt>
<pdfrwt beam="2">  1       21 0.79954976E-02 0.27017373E+03</pdfrwt>
<totfact> 0.17998644E+03</totfact>
</mgrwt>
</event>
<event>
 5    0  0.1781295E-001  0.2373588E+03  0.7546771E-02  0.1121565E+00
         21   -1    0    0  501  502  0.00000000000E+00  0.00000000000E+00  0.83791192996E+03  0.83791192996E+03  0.00000000000E+00 0.  1.
         21   -1    0    0  502  503 -0.00000000000E+00 -0.00000000000E+00 -0.69819241992E+02  0.69819241992E+02  0.00000000000E+00 0.  1.
         25    1    1    2    0    0 -0.13828154414E+03 -0.16465771157E+03  0.39602715827E+03  0.46764993052E+03  0.12500000000E+03 0.  0.
          2    1    1    2  501    0  0.11611622541E+03  0.15437235641E+03  0.25180563091E+03  0.31736395193E+03  0.00000000000E+00 0.  1.
         -2    1    1    2    0  503  0.22165318734E+02  0.10285355151E+02  0.12025989879E+03  0.12271728950E+03  0.00000000000E+00 0. -1.
<mgrwt>
<rscale>  4 0.23735877E+03</rscale>
<asrwt>0</asrwt>
<pdfrwt beam="1">  1       21 0.12890952E+00 0.23735877E+03</pdfrwt>
<pdfrwt beam="2">  1       21 0.10741422E-01 0.23735877E+03</pdfrwt>
<totfact> 0.30787134E+04</totfact>
</mgrwt>
</event>
<event>
 5    0  0.1781295E-001  0.2889440E+03  0.7546771E-02  0.1090902E+00
         21   -1    0    0  501  502  0.00000000000E+00  0.00000000000E+00  0.45222415257E+02  0.45222415257E+02  0.00000000000E+00 0.  1.
         21   -1    0    0  502  503 -0.00000000000E+00 -0.00000000000E+00 -0.17451230011E+04  0.17451230011E+04  0.00000000000E+00 0.  1.
         25    1    1    2    0    0  0.25080927977E+03  0.70415663560E+02 -0.90129237499E+03  0.94647588755E+03  0.12500000000E+03 0.  0.
          1    1    1    2  501    0 -0.21062719058E+03 -0.72925697766E+02 -0.73943174965E+03  0.77229611108E+03  0.00000000000E+00 0.  1.
         -1    1    1    2    0  503 -0.40182089191E+02  0.25100342060E+01 -0.59176461158E+02  0.71573417682E+02  0.00000000000E+00 0. -1.
<mgrwt>
<rscale>  4 0.28894404E+03</rscale>
<asrwt>0</asrwt>
<pdfrwt beam="1">  1       21 0.69572954E-02 0.28894404E+03</pdfrwt>
<pdfrwt beam="2">  1       21 0.26848043E+00 0.28894404E+03</pdfrwt>
<totfact> 0.73082907E+03</totfact>
</mgrwt>
</event>
<event>
 5    0  0.1781295E-001  0.3302388E+03  0.7546771E-02  0.1071031E+00
         21   -1    0    0  501  502  0.00000000000E+00  0.00000000000E+00  0.76316254903E+03  0.76316254903E+03  0.00000000000E+00 0. -1.
         21   -1    0    0  502  503 -0.00000000000E+00 -0.00000000000E+00 -0.26485968938E+03  0.26485968938E+03  0.00000000000E+00 0. -1.
         25    1    1    2    0    0 -0.12727802324E+03  0.27790821823E+03  0.61423731558E+03  0.69738450859E+03  0.12500000000E+03 0.  0.
          2    1    1    2  501    0  0.10123315360E+03 -0.25667016278E+03 -0.10036358683E+03  0.29359934164E+03  0.00000000000E+00 0. -1.
         -2    1    1    2    0  503  0.26044869641E+02 -0.21238055450E+02 -0.15570869099E+02  0.37038388172E+02  0.00000000000E+00 0.  1.
<mgrwt>
<rscale>  4 0.33023881E+03</rscale>
<asrwt>0</asrwt>
<pdfrwt beam="1">  1       21 0.11740962E+00 0.33023881E+03</pdfrwt>
<pdfrwt beam="2">  1       21 0.40747645E-01 0.33023881E+03</pdfrwt>
<totfact> 0.29500100E+03</totfact>
</mgrwt>
</event>
<event>
 5    0  0.1781295E-001  0.4125938E+03  0.7546771E-02  0.1039504E+00
         21   -1    0    0  501  502  0.00000000000E+00  0.00000000000E+00  0.94317485886E+03  0.94317485886E+03  0.00000000000E+00 0.  1.
         21   -1    0    0  502  503 -0.00000000000E+00 -0.00000000000E+00 -0.20627321382E+03  0.20627321382E+03  0.00000000000E+00 0.  1.
         25    1    1    2    0    0  0.39103367466E+03  0.14154277818E+03  0.31598396858E+03  0.53704055822E+03  0.12500000000E+03 0.  0.
          4    1    1    2  501    0 -0.50442457128E+02  0.11302847832E+02  0.12750824896E+03  0.13758833309E+03  0.00000000000E+00 0. -1.
         -4    1    1    2    0  503 -0.34059121753E+03 -0.15284562601E+03  0.29340942750E+03  0.47481918137E+03  0.00000000000E+00 0.  1.
<mgrwt>
<rscale>  4 0.41259376E+03</rscale>
<asrwt>0</asrwt>
<pdfrwt beam="1">  1       21 0.14510382E+00 0.41259376E+03</pdfrwt>
<pdfrwt beam="2">  1       21 0.31734341E-01 0.41259376E+03</pdfrwt>
<totfact> 0.27228167E+03</totfact>
</mgrwt>
</event>
<event>
 5    0  0.1781295E-001  0.3619455E+03  0.7546771E-02  0.1057816E+00
         21   -1    0    0  501  502  0.00000000000E+00  0.00000000000E+00  0.25622808754E+04  0.25622808754E+04  0.00000000000E+00 0.  1.
         21   -1    0    0  502  503 -0.00000000000E+00 -0.00000000000E+00 -0.90146794921E+02  0.90146794921E+02  0.00000000000E+00 0.  1.
         25    1    1    2    0    0  0.20045520684E+02  0.33908366893E+03  0.36266815067E+03  0.51237949309E+03  0.12500000000E+03 0.  0.
          3    1    1    2  501    0  0.46100204105E+02 -0.20959310930E+03  0.13116197374E+04  0.13290601325E+04  0.00000000000E+00 0. -1.
         -3    1    1    2    0  503 -0.66145724789E+02 -0.12949055963E+03  0.79784619242E+03  0.81098804473E+03  0.00000000000E+00 0.  1.
<mgrwt>
<rscale>  4 0.36194552E+03</rscale>
<asrwt>0</asrwt>
<pdfrwt beam="1">  1       21 0.39419700E+00 0.36194552E+03</pdfrwt>
<pdfrwt beam="2">  1       21 0.13868740E-01 0.36194552E+03</pdfrwt>
<totfact> 0.35191888E+02</totfact>
</mgrwt>
</event>
<event>
 5    0  0.1781295E-001  0.2732601E+03  0.7546771E-02  0.1099428E+00
         21   -1    0    0  501  502  0.00000000000E+00  0.00000000000E+00  0.97603153220E+03  0.97603153220E+03  0.00000000000E+00 0. -1.
         21   -1    0    0  502  503 -0.00000000000E+00 -0.00000000000E+00 -0.12610484825E+03  0.12610484825E+03  0.00000000000E+00 0.  1.
         25    1    1    2    0    0 -0.28854089673E+03  0.13436865068E+03  0.39725146495E+03  0.52416076711E+03  0.12500000000E+03 0.  0.
          1    1    1    2  501    0  0.11285679306E+03 -0.14688630798E+02  0.53564867848E+02  0.12578396831E+03  0.00000000000E+00 0. -1.
         -1    1    1    2    0  503  0.17568410366E+03 -0.11968001989E+03  0.39911035115E+03  0.45219164503E+03  0.00000000000E+00 0.  1.
<mgrwt>
<rscale>  4 0.27326012E+03</rscale>
<asrwt>0</asrwt>
<pdfrwt beam="1">  1       21 0.15015869E+00 0.27326012E+03</pdfrwt>
<pdfrwt beam="2">  1       21 0.19400747E-01 0.27326012E+03</pdfrwt>
<totfact> 0.68888944E+03</totfact>
</mgrwt>
</event>
<event>
 5    0  0.1781295E-001  0.3070653E+03  0.7546771E-02  0.1082658E+00
         21   -1    0    0  501  502  0.00000000000E+00  0.00000000000E+00  0.38115491584E+03  0.38115491584E+03  0.00000000000E+00 0. -1.
         21   -1    0    0  502  503 -0.00000000000E+00 -0.00000000000E+00 -0.42802814386E+03  0.42802814386E+03  0.00000000000E+00 0.  1.
         25    1    1    2    0    0 -0.13379293350E+03  0.23735157224E+03  0.24377417430E+03  0.38637697389E+03  0.12500000000E+03 0.  0.
          3    1    1    2  501    0  0.12146535542E+03 -0.91634711421E+02 -0.19792789305E+03  0.24965216553E+03  0.00000000000E+00 0.  1.
         -3    1    1    2    0  503  0.12327578080E+02 -0.14571686082E+03 -0.92719509268E+02  0.17315392027E+03  0.00000000000E+00 0. -1.
<mgrwt>
<rscale>  4 0.30522465E+03</rscale>
<asrwt>0</asrwt>
<pdfrwt beam="1">  1       21 0.58639218E-01 0.30706526E+03</pdfrwt>
<pdfrwt beam="2">  1       21 0.65850483E-01 0.30706526E+03</pdfrwt>
<totfact> 0.53735040E+03</totfact>
</mgrwt>
</event>
<event>
 5    0  0.1781295E-001  0.2386789E+03  0.7546771E-02  0.1120676E+00
         21   -1    0    0  501  502  0.00000000000E+00  0.00000000000E+00  0.32852889004E+03  0.32852889004E+03  0.00000000000E+00 0. -1.
         21   -1    0    0  502  503 -0.00000000000E+00 -0.00000000000E+00 -0.40971829297E+03  0.40971829297E+03  0.00000000000E+00 0. -1.
         25    1    1    2    0    0  0.20211167021E+03  0.22214175109E+02 -0.32946342287E+03  0.40683380368E+03  0.12500000000E+03 0.  0.
          3    1    1    2  501    0 -0.65387749413E+02 -0.45292157968E+02  0.73351239142E+02  0.10820046964E+03  0.00000000000E+00 0. -1.
         -3    1    1    2    0  503 -0.13672392080E+03  0.23077982859E+02  0.17492278080E+03  0.22321290969E+03  0.00000000000E+00 0.  1.
<mgrwt>
<rscale>  4 0.23867886E+03</rscale>
<asrwt>0</asrwt>
<pdfrwt beam="1">  1       21 0.50542906E-01 0.23867886E+03</pdfrwt>
<pdfrwt beam="2">  1       21 0.63033584E-01 0.23867886E+03</pdfrwt>
<totfact> 0.84200887E+03</totfact>
</mgrwt>
</event>
<event>
 5    0  0.1781295E-001  0.2567200E+03  0.7546771E-02  0.1109130E+00
         21   -1    0    0  501  502  0.00000000000E+00  0.00000000000E+00  0.16205128222E+04  0.16205128222E+04  0.00000000000E+00 0.  1.
         21   -1    0    0  502  503 -0.00000000000E+00 -0.00000000000E+00 -0.38310195137E+02  0.38310195137E+02  0.00000000000E+00 0. -1.
         25    1    1    2    0    0  0.12550020294E+03 -0.18582215715E+03  0.98917453861E+03  0.10219449314E+04  0.12500000000E+03 0.  0.
          1    1    1    2  501    0 -0.25317705566E+00  0.20073447162E+02  0.97808955247E+02  0.99847879828E+02  0.00000000000E+00 0.  1.
         -1    1    1    2    0  503 -0.12524702589E+03  0.16574870999E+03  0.49521913322E+03  0.53703020610E+03  0.00000000000E+00 0. -1.
<mgrwt>
<rscale>  4 0.25672003E+03</rscale>
<asrwt>0</asrwt>
<pdfrwt beam="1">  1       21 0.24930961E+00 0.25672003E+03</pdfrwt>
<pdfrwt beam="2">  1       21 0.58938774E-02 0.25672003E+03</pdfrwt>
<totfact> 0.12953410E+04</totfact>
</mgrwt>
</event>
<event>
 5    0  0.1781295E-001  0.2750765E+03  0.7546771E-02  0.1098409E+00
         21   -1    0    0  501  502  0.00000000000E+00  0.00000000000E+00  0.13335853065E+03  0.13335853065E+03  0.00000000000E+00 0. -1.
         21   -1    0    0  502  503 -0.00000000000E+00 -0.00000000000E+00 -0.86239899914E+03  0.86239899914E+03  0.00000000000E+00 0. -1.
         25    1    1    2    0    0 -0.15482597440E+03 -0.19616178845E+03 -0.65244110731E+03  0.70975695002E+03  0.12500000000E+03 0.  0.
          1    1    1    2  501    0  0.16510100201E+03  0.16407503743E+03 -0.90250919605E+02  0.24964812689E+03  0.00000000000E+00 0. -1.
         -1    1    1    2    0  503 -0.10275027608E+02  0.32086751021E+02  0.13651558424E+02  0.36352452887E+02  0.00000000000E+00 0.  1.
<mgrwt>
<rscale>  4 0.27507647E+03</rscale>
<asrwt>0</asrwt>
<pdfrwt beam="1">  1       21 0.20516698E-01 0.27507647E+03</pdfrwt>
<pdfrwt beam="2">  1       21 0.13267676E+00 0.27507647E+03</pdfrwt>
<totfact> 0.85665505E+03</totfact>
</mgrwt>
</event>
<event>
 5    0  0.1781295E-001  0.2457670E+03  0.7546771E-02  0.1116010E+00
         21   -1    0    0  501  502  0.00000000000E+00  0.00000000000E+00  0.17417708108E+04  0.17417708108E+04  0.00000000000E+00 0. -1.
         21   -1    0    0  502  503 -0.00000000000E+00 -0.00000000000E+00 -0.14565000103E+03  0.14565000103E+03  0.00000000000E+00 0. -1.
         25    1    1    2    0    0  0.21250096648E+03 -0.28411632394E+02 -0.21380062485E+02  0.24909032233E+03  0.12500000000E+03 0.  0.
          1    1    1    2  501    0 -0.18418104933E+03  0.49585237678E+02  0.90151558113E+03  0.92147257027E+03  0.00000000000E+00 0.  1.
         -1    1    1    2    0  503 -0.28319917147E+02 -0.21173605284E+02  0.71598529113E+03  0.71685791924E+03  0.00000000000E+00 0. -1.
<mgrwt>
<rscale>  4 0.24576699E+03</rscale>
<asrwt>0</asrwt>
<pdfrwt beam="1">  1       21 0.26796473E+00 0.24576699E+03</pdfrwt>
<pdfrwt beam="2">  1       21 0.22407694E-01 0.24576699E+03</pdfrwt>
<totfact> 0.91640741E+02</totfact>
</mgrwt>
</event>
<event>
 5    0  0.1781295E-001  0.2272488E+03  0.7546771E-02  0.1128591E+00
         21   -1    0    0  501  502  0.00000000000E+00  0.00000000000E+00  0.41671754204E+03  0.41671754204E+03  0.00000000000E+00 0.  1.
         21   -1    0    0  502  503 -0.00000000000E+00 -0.00000000000E+00 -0.13412435080E+03  0.13412435080E+03  0.00000000000E+00 0.  1.
         25    1    1    2    0    0  0.99367306879E+02 -0.17766015110E+03  0.13251309134E+03  0.27316974639E+03  0.12500000000E+03 0.  0.
          1    1    1    2  501    0 -0.35230523369E+02  0.81221580010E+01  0.71473798517E+02  0.80097834564E+02  0.00000000000E+00 0. -1.
         -1    1    1    2    0  503 -0.64136783510E+02  0.16953799310E+03  0.78606301387E+02  0.19757431189E+03  0.00000000000E+00 0.  1.
<mgrwt>
<rscale>  4 0.22724880E+03</rscale>
<asrwt>0</asrwt>
<pdfrwt beam="1">  1       21 0.64110391E-01 0.22724880E+03</pdfrwt>
<pdfrwt beam="2">  1       21 0.20634516E-01 0.22724880E+03</pdfrwt>
<totfact> 0.48099395E+04</totfact>
</mgrwt>
</event>
<event>
 5    0  0.1781295E-001  0.3234342E+03  0.7546771E-02  0.1074080E+00
         21   -1    0    0  501  502  0.00000000000E+00  0.00000000000E+00  0.32364746418E+03  0.32364746418E+03  0.00000000000E+00 0. -1.
         21   -1    0    0  502  503 -0.00000000000E+00 -0.00000000000E+00 -0.33833342433E+03  0.33833342433E+03  0.00000000000E+00 0. -1.
         25    1    1    2    0    0  0.19940350099E+03  0.23140310377E+03  0.20979690652E+02  0.33071785567E+03  0.12500000000E+03 0.  0.
          4    1    1    2  501    0  0.11394278358E+02 -0.26799223441E+02  0.15632900694E+02  0.33051710099E+02  0.00000000000E+00 0.  1.
         -4    1    1    2    0  503 -0.21079777934E+03 -0.20460388033E+03 -0.51298551494E+02  0.29821132273E+03  0.00000000000E+00 0. -1.
<mgrwt>
<rscale>  4 0.32343421E+03</rscale>
<asrwt>0</asrwt>
<pdfrwt beam="1">  1       21 0.49791917E-01 0.32343421E+03</pdfrwt>
<pdfrwt beam="2">  1       21 0.52051296E-01 0.32343421E+03</pdfrwt>
<totfact> 0.12586219E+04</totfact>
</mgrwt>
</event>
<event>
 5    0  0.1781295E-001  0.2705845E+03  0.7546771E-02  0.1100946E+00
         21   -1    0    0  501  502  0.00000000000E+00  0.00000000000E+00  0.68259052796E+03  0.68259052796E+03  0.00000000000E+00 0.  1.
         21   -1    0    0  502  503 -0.00000000000E+00 -0.00000000000E+00 -0.12641589036E+03  0.12641589036E+03  0.00000000000E+00 0.  1.
         25    1    1    2    0    0  0.25171191671E+03 -0.72158986736E+02  0.32536197431E+03  0.43594864687E+03  0.12500000000E+03 0.  0.
          2    1    1    2  501    0 -0.19350694677E+03  0.11034497933E+03  0.18664352391E+03  0.29061444893E+03  0.00000000000E+00 0.  1.
         -2    1    1    2    0  503 -0.58204969937E+02 -0.38185992589E+02  0.44169139371E+02  0.82443322520E+02  0.00000000000E+00 0. -1.
<mgrwt>
<rscale>  4 0.27058448E+03</rscale>
<asrwt>0</asrwt>
<pdfrwt beam="1">  1       21 0.10501392E+00 0.27058448E+03</pdfrwt>
<pdfrwt beam="2">  1       21 0.19448599E-01 0.27058448E+03</pdfrwt>
<totfact> 0.17003395E+04</totfact>
</mgrwt>
</event>
<event>
 5    0  0.1781295E-001  0.2341758E+03  0.7546771E-02  0.1123735E+00
         21   -1    0    0  501  502  0.00000000000E+00  0.00000000000E+00  0.80778173345E+03  0.80778173345E+03  0.00000000000E+00 0. -1.
         21   -1    0    0  502  503 -0.00000000000E+00 -0.00000000000E+00 -0.24003385221E+03  0.24003385221E+03  0.00000000000E+00 0.  1.
         25    1    1    2    0    0 -0.36685926202E+02 -0.19773086700E+03  0.73508176494E+03  0.77227815850E+03  0.12500000000E+03 0.  0.
          3    1    1    2  501    0  0.14407292027E+02  0.25337867647E+02 -0.71117028382E+02  0.76858371869E+02  0.00000000000E+00 0. -1.
         -3    1    1    2    0  503  0.22278634175E+02  0.17239299935E+03 -0.96216855309E+02  0.19867905529E+03  0.00000000000E+00 0.  1.
<mgrwt>
<rscale>  4 0.23417577E+03</rscale>
<asrwt>0</asrwt>
<pdfrwt beam="1">  1       21 0.12427411E+00 0.23417577E+03</pdfrwt>
<pdfrwt beam="2">  1       21 0.36928285E-01 0.23417577E+03</pdfrwt>
<totfact> 0.33104492E+03</totfact>
</mgrwt>
</event>
<event>
 5    0  0.1781295E-001  0.2601375E+03  0.7546771E-02  0.1107061E+00
         21   -1    0    0  501  502  0.00000000000E+00  0.00000000000E+00  0.23598992786E+03  0.23598992786E+03  0.00000000000E+00 0. -1.
         21   -1    0    0  502  503 -0.00000000000E+00 -0.00000000000E+00 -0.52108506440E+03  0.52108506440E+03  0.00000000000E+00 0. -1.
         25    1    1    2    0    0  0.12826652451E+03  0.19133475139E+03 -0.40997063365E+03  0.48658217071E+03  0.12500000000E+03 0.  0.
          2    1    1    2  501    0 -0.10804835554E+03 -0.18995069429E+03  0.10634653216E+03  0.24303353328E+03  0.00000000000E+00 0. -1.
         -2    1    1    2    0  503 -0.20218168963E+02 -0.13840571021E+01  0.18528964947E+02  0.27459288270E+02  0.00000000000E+00 0.  1.
<mgrwt>
<rscale>  4 0.26013754E+03</rscale>
<asrwt>0</asrwt>
<pdfrwt beam="1">  1       21 0.36306143E-01 0.26013754E+03</pdfrwt>
<pdfrwt beam="2">  1       21 0.80166932E-01 0.26013754E+03</pdfrwt>
<totfact> 0.96057392E+03</totfact>
</mgrwt>
</event>
<event>
 5    0  0.1781295E-001  0.2637564E+03  0.7546771E-02  0.1104907E+00
         21   -1    0    0  501  502  0.00000000000E+00  0.00000000000E+00  0.10343549399E+04  0.10343549399E+04  0.00000000000E+00 0.  1.
         21   -1    0    0  502  503 -0.00000000000E+00 -0.00000000000E+00 -0.15000943010E+03  0.15000943010E+03  0.00000000000E+00 0.  1.
         25    1    1    2    0    0  0.31180248943E+02 -0.23015263090E+03  0.90523243281E+03  0.94287496459E+03  0.12500000000E+03 0.  0.
          4    1    1    2  501    0  0.49997981568E+01  0.86809219743E+02  0.17614679803E+02  0.88719307699E+02  0.00000000000E+00 0. -1.
         -4    1    1    2    0  503 -0.36180047100E+02  0.14334341115E+03 -0.38501602837E+02  0.15277009770E+03  0.00000000000E+00 0.  1.
<mgrwt>
<rscale>  4 0.26375641E+03</rscale>
<asrwt>0</asrwt>
<pdfrwt beam="1">  1       21 0.15913152E+00 0.26375641E+03</pdfrwt>
<pdfrwt beam="2">  1       21 0.23078375E-01 0.26375641E+03</pdfrwt>
<totfact> 0.42665407E+03</totfact>
</mgrwt>
</event>
