<event>
 5    0  0.1911311E+001  0.3967771E+03  0.7546771E-02  0.1044901E+00
         21   -1    0    0  504  501  0.00000000000E+00  0.00000000000E+00  0.87071913425E+03  0.87071913425E+03  0.00000000000E+00 0.  1.
         21   -1    0    0  501  502 -0.00000000000E+00 -0.00000000000E+00 -0.33711312386E+03  0.33711312386E+03  0.00000000000E+00 0.  1.
         25    1    1    2    0    0  0.24372728808E+03 -0.20564575352E+03  0.37086854034E+03  0.50483823261E+03  0.12500000000E+03 0.  0.
         21    1    1    2  503  502  0.13146914898E+03  0.59211589932E+02  0.25211700734E+03  0.29043611158E+03  0.00000000000E+00 0.  1.
         21    1    1    2  504  503 -0.37519643706E+03  0.14643416359E+03 -0.89379537300E+02  0.41255791392E+03  0.00000000000E+00 0.  1.
<mgrwt>
<rscale>  4 0.39677707E+03</rscale>
<asrwt>0</asrwt>
<pdfrwt beam="1">  1       21 0.13395679E+00 0.39677707E+03</pdfrwt>
<pdfrwt beam="2">  1       21 0.51863558E-01 0.39677707E+03</pdfrwt>
<totfact> 0.12309230E+03</totfact>
</mgrwt>
</event>
<event>
 5    0  0.1911311E+001  0.2482340E+03  0.7546771E-02  0.1114426E+00
         21   -1    0    0  503  501  0.00000000000E+00  0.00000000000E+00  0.50388432927E+03  0.50388432927E+03  0.00000000000E+00 0. -1.
         21   -1    0    0  501  502 -0.00000000000E+00 -0.00000000000E+00 -0.12093698043E+03  0.12093698043E+03  0.00000000000E+00 0. -1.
         25    1    1    2    0    0  0.11350633062E+03 -0.18196544960E+03  0.30163569885E+03  0.39064588409E+03  0.12500000000E+03 0.  0.
         21    1    1    2  503  504 -0.30414151805E+02  0.68959262288E+02  0.76841188010E+01  0.75759132566E+02  0.00000000000E+00 0. -1.
         21    1    1    2  504  502 -0.83092178816E+02  0.11300618731E+03  0.73627531193E+02  0.15841629304E+03  0.00000000000E+00 0. -1.
<mgrwt>
<rscale>  4 0.24823399E+03</rscale>
<asrwt>0</asrwt>
<pdfrwt beam="1">  1       21 0.77520665E-01 0.24823399E+03</pdfrwt>
<pdfrwt beam="2">  1       21 0.18605690E-01 0.24823399E+03</pdfrwt>
<totfact> 0.37951991E+04</totfact>
</mgrwt>
</event>
<event>
 5    0  0.1911311E+001  0.2358174E+03  0.7546771E-02  0.1122611E+00
         21   -1    0    0  504  501  0.00000000000E+00  0.00000000000E+00  0.21449900177E+04  0.21449900177E+04  0.00000000000E+00 0. -1.
         21   -1    0    0  503  502 -0.00000000000E+00 -0.00000000000E+00 -0.31325116416E+02  0.31325116416E+02  0.00000000000E+00 0. -1.
         25    1    1    2    0    0  0.46613491963E+02 -0.19728753072E+03  0.70337487383E+03  0.74260110459E+03  0.12500000000E+03 0.  0.
         21    1    1    2  503  501 -0.91033099535E+02  0.17769182919E+03  0.94269721599E+03  0.96360751990E+03  0.00000000000E+00 0. -1.
         21    1    1    2  504  502  0.44419607571E+02  0.19595701527E+02  0.46759281150E+03  0.47010650966E+03  0.00000000000E+00 0. -1.
<mgrwt>
<rscale>  4 0.23581740E+03</rscale>
<asrwt>0</asrwt>
<pdfrwt beam="1">  1       21 0.32999835E+00 0.23581740E+03</pdfrwt>
<pdfrwt beam="2">  1       21 0.48192504E-02 0.23581740E+03</pdfrwt>
<totfact> 0.62523884E+03</totfact>
</mgrwt>
</event>
<event>
 5    0  0.1911311E+001  0.2893701E+03  0.7546771E-02  0.1090678E+00
         21   -1    0    0  502  501  0.00000000000E+00  0.00000000000E+00  0.64772527196E+03  0.64772527196E+03  0.00000000000E+00 0.  1.
         21   -1    0    0  504  502 -0.00000000000E+00 -0.00000000000E+00 -0.61841357593E+03  0.61841357593E+03  0.00000000000E+00 0. -1.
         25    1    1    2    0    0  0.17756573675E+03 -0.18338440312E+03  0.41320341992E+03  0.50151918847E+03  0.12500000000E+03 0.  0.
         21    1    1    2  503  501 -0.13592362888E+02 -0.20211593346E+02  0.15964138306E+03  0.16148879844E+03  0.00000000000E+00 0.  1.
         21    1    1    2  504  503 -0.16397337387E+03  0.20359599646E+03 -0.54353310695E+03  0.60313086098E+03  0.00000000000E+00 0. -1.
<mgrwt>
<rscale>  4 0.28937011E+03</rscale>
<asrwt>0</asrwt>
<pdfrwt beam="1">  1       21 0.99650042E-01 0.28937011E+03</pdfrwt>
<pdfrwt beam="2">  1       21 0.95140550E-01 0.28937011E+03</pdfrwt>
<totfact> 0.70271151E+02</totfact>
</mgrwt>
</event>
