<event>
 5    0  0.1856407E+000  0.2066167E+03  0.7546771E-02  0.1144274E+00
         21   -1    0    0  502  501  0.00000000000E+00  0.00000000000E+00  0.12187345138E+04  0.12187345138E+04  0.00000000000E+00 0.  1.
         21   -1    0    0  503  502 -0.00000000000E+00 -0.00000000000E+00 -0.70634647252E+02  0.70634647252E+02  0.00000000000E+00 0.  1.
         25    1    1    2    0    0  0.89435023467E+02 -0.18038077072E+03  0.26788814357E+03  0.35766591022E+03  0.12500000000E+03 0.  0.
         21    1    1    2  503  504 -0.63130281141E+02  0.12572289799E+03  0.17802837590E+03  0.22690478642E+03  0.00000000000E+00 0.  1.
         21    1    1    2  504  501 -0.26304742326E+02  0.54657872726E+02  0.70218334707E+03  0.70479846440E+03  0.00000000000E+00 0.  1.
<mgrwt>
<rscale>  4 0.20661673E+03</rscale>
<asrwt>0</asrwt>
<pdfrwt beam="1">  1       21 0.18749760E+00 0.20661673E+03</pdfrwt>
<pdfrwt beam="2">  1       21 0.10866870E-01 0.20661673E+03</pdfrwt>
<totfact> 0.11221938E+04</totfact>
</mgrwt>
</event>
<event>
 5    0  0.3188535E+000  0.2828024E+03  0.7546771E-02  0.1094168E+00
         21   -1    0    0  502  501  0.00000000000E+00  0.00000000000E+00  0.13760294348E+04  0.13760294348E+04  0.00000000000E+00 0. -1.
         21   -1    0    0  503  502 -0.00000000000E+00 -0.00000000000E+00 -0.54600936989E+02  0.54600936989E+02  0.00000000000E+00 0. -1.
         25    1    1    2    0    0  0.16423214914E+03  0.19333913268E+03  0.79608789851E+03  0.84482729666E+03  0.12500000000E+03 0.  0.
         21    1    1    2  503  504 -0.11752025002E+02 -0.43524614076E+02  0.80412151915E+02  0.92187940088E+02  0.00000000000E+00 0. -1.
         21    1    1    2  504  501 -0.15248012414E+03 -0.14981451860E+03  0.44492844734E+03  0.49361513499E+03  0.00000000000E+00 0. -1.
<mgrwt>
<rscale>  4 0.28280244E+03</rscale>
<asrwt>0</asrwt>
<pdfrwt beam="1">  1       21 0.21169681E+00 0.28280244E+03</pdfrwt>
<pdfrwt beam="2">  1       21 0.84001452E-02 0.28280244E+03</pdfrwt>
<totfact> 0.11704613E+04</totfact>
</mgrwt>
</event>
<event>
 5    0  0.1856407E+000  0.5248710E+03  0.7546771E-02  0.1007484E+00
         21   -1    0    0  502  501  0.00000000000E+00  0.00000000000E+00  0.80861098721E+03  0.80861098721E+03  0.00000000000E+00 0.  1.
         21   -1    0    0  503  502 -0.00000000000E+00 -0.00000000000E+00 -0.55190017757E+03  0.55190017757E+03  0.00000000000E+00 0.  1.
         25    1    1    2    0    0 -0.24951101245E+03 -0.50855834826E+03  0.40639305620E+03  0.70828500976E+03  0.12500000000E+03 0.  0.
         21    1    1    2  503  504  0.28261114217E+03  0.40550886361E+03 -0.19957559253E+03  0.53304494489E+03  0.00000000000E+00 0.  1.
         21    1    1    2  504  501 -0.33100129721E+02  0.10304948466E+03  0.49893345959E+02  0.11918121012E+03  0.00000000000E+00 0. -1.
<mgrwt>
<rscale>  4 0.52487101E+03</rscale>
<asrwt>0</asrwt>
<pdfrwt beam="1">  1       21 0.12440169E+00 0.52487101E+03</pdfrwt>
<pdfrwt beam="2">  1       21 0.84907719E-01 0.52487101E+03</pdfrwt>
<totfact> 0.46941850E+02</totfact>
</mgrwt>
</event>
<event>
 5    0  0.1856407E+000  0.3815230E+03  0.7546771E-02  0.1050372E+00
         21   -1    0    0  502  501  0.00000000000E+00  0.00000000000E+00  0.61622286590E+03  0.61622286590E+03  0.00000000000E+00 0. -1.
         21   -1    0    0  503  502 -0.00000000000E+00 -0.00000000000E+00 -0.26325913717E+03  0.26325913717E+03  0.00000000000E+00 0. -1.
         25    1    1    2    0    0  0.37322091641E+03  0.10064352454E+02  0.27871201362E+03  0.48239043334E+03  0.12500000000E+03 0.  0.
         21    1    1    2  503  504 -0.29866704876E+02  0.12958446975E+02 -0.22558195657E+02  0.39608251659E+02  0.00000000000E+00 0. -1.
         21    1    1    2  504  501 -0.34335421154E+03 -0.23022799429E+02  0.96809910766E+02  0.35748331807E+03  0.00000000000E+00 0. -1.
<mgrwt>
<rscale>  4 0.38152298E+03</rscale>
<asrwt>0</asrwt>
<pdfrwt beam="1">  1       21 0.94803518E-01 0.38152298E+03</pdfrwt>
<pdfrwt beam="2">  1       21 0.40501406E-01 0.38152298E+03</pdfrwt>
<totfact> 0.49214113E+03</totfact>
</mgrwt>
</event>
<event>
 5    0  0.1856407E+000  0.2670999E+03  0.7546771E-02  0.1102951E+00
         21   -1    0    0  502  501  0.00000000000E+00  0.00000000000E+00  0.99234215726E+03  0.99234215726E+03  0.00000000000E+00 0. -1.
         21   -1    0    0  503  502 -0.00000000000E+00 -0.00000000000E+00 -0.70735451478E+02  0.70735451478E+02  0.00000000000E+00 0.  1.
         25    1    1    2    0    0  0.25114613661E+02 -0.23470535445E+03  0.46414520549E+03  0.53551201575E+03  0.12500000000E+03 0.  0.
         21    1    1    2  503  504 -0.65545024068E+02  0.12803913827E+03  0.30438446515E+03  0.33666017545E+03  0.00000000000E+00 0.  1.
         21    1    1    2  504  501  0.40430410406E+02  0.10666621618E+03  0.15307703514E+03  0.19090541754E+03  0.00000000000E+00 0.  1.
<mgrwt>
<rscale>  4 0.26709988E+03</rscale>
<asrwt>0</asrwt>
<pdfrwt beam="1">  1       21 0.15266801E+00 0.26709988E+03</pdfrwt>
<pdfrwt beam="2">  1       21 0.10882378E-01 0.26709988E+03</pdfrwt>
<totfact> 0.19063197E+04</totfact>
</mgrwt>
</event>
<event>
 5    0  0.1856407E+000  0.2593187E+03  0.7546771E-02  0.1107553E+00
         21   -1    0    0  502  501  0.00000000000E+00  0.00000000000E+00  0.10210251991E+04  0.10210251991E+04  0.00000000000E+00 0. -1.
         21   -1    0    0  503  502 -0.00000000000E+00 -0.00000000000E+00 -0.43363187132E+03  0.43363187132E+03  0.00000000000E+00 0.  1.
         25    1    1    2    0    0 -0.46947924684E+02  0.23899577435E+03  0.95531932278E+03  0.99377215511E+03  0.12500000000E+03 0.  0.
         21    1    1    2  503  504  0.81065647619E+01 -0.12773515027E+03 -0.82995452322E+02  0.15254582955E+03  0.00000000000E+00 0.  1.
         21    1    1    2  504  501  0.38841359922E+02 -0.11126062408E+03 -0.28493054263E+03  0.30833908580E+03  0.00000000000E+00 0.  1.
<mgrwt>
<rscale>  4 0.25931867E+03</rscale>
<asrwt>0</asrwt>
<pdfrwt beam="1">  1       21 0.15708080E+00 0.25931867E+03</pdfrwt>
<pdfrwt beam="2">  1       21 0.66712596E-01 0.25931867E+03</pdfrwt>
<totfact> 0.50961332E+02</totfact>
</mgrwt>
</event>
<event>
 5    0  0.1856407E+000  0.2607820E+03  0.7546771E-02  0.1106674E+00
         21   -1    0    0  502  501  0.00000000000E+00  0.00000000000E+00  0.25546954129E+03  0.25546954129E+03  0.00000000000E+00 0. -1.
         21   -1    0    0  503  502 -0.00000000000E+00 -0.00000000000E+00 -0.33276286163E+03  0.33276286163E+03  0.00000000000E+00 0. -1.
         25    1    1    2    0    0  0.12824615683E+03  0.18956573667E+03  0.11150364022E+03  0.28362000466E+03  0.12500000000E+03 0.  0.
         21    1    1    2  503  504 -0.99823131986E+02 -0.10421477795E+03 -0.85920840423E+02  0.16795168484E+03  0.00000000000E+00 0. -1.
         21    1    1    2  504  501 -0.28423024841E+02 -0.85350958723E+02 -0.10287612014E+03  0.13666071341E+03  0.00000000000E+00 0. -1.
<mgrwt>
<rscale>  4 0.26078199E+03</rscale>
<asrwt>0</asrwt>
<pdfrwt beam="1">  1       21 0.39303007E-01 0.26078199E+03</pdfrwt>
<pdfrwt beam="2">  1       21 0.51194286E-01 0.26078199E+03</pdfrwt>
<totfact> 0.21844381E+04</totfact>
</mgrwt>
</event>
<event>
 5    0  0.1856407E+000  0.3261780E+03  0.7546771E-02  0.1072841E+00
         21   -1    0    0  502  501  0.00000000000E+00  0.00000000000E+00  0.20628829728E+04  0.20628829728E+04  0.00000000000E+00 0. -1.
         21   -1    0    0  503  502 -0.00000000000E+00 -0.00000000000E+00 -0.11898112141E+03  0.11898112141E+03  0.00000000000E+00 0. -1.
         25    1    1    2    0    0  0.10458782135E+03  0.35126427030E+03  0.45653264988E+03  0.59864201354E+03  0.12500000000E+03 0.  0.
         21    1    1    2  503  504  0.13475077802E+03 -0.17308055742E+03  0.40628896968E+03  0.46172002168E+03  0.00000000000E+00 0. -1.
         21    1    1    2  504  501 -0.23933859937E+03 -0.17818371287E+03  0.10810802318E+04  0.11215020590E+04  0.00000000000E+00 0. -1.
<mgrwt>
<rscale>  4 0.32617799E+03</rscale>
<asrwt>0</asrwt>
<pdfrwt beam="1">  1       21 0.31736659E+00 0.32617799E+03</pdfrwt>
<pdfrwt beam="2">  1       21 0.18304789E-01 0.32617799E+03</pdfrwt>
<totfact> 0.63841806E+02</totfact>
</mgrwt>
</event>
