<event>
 5    0  0.2306346E+000  0.3663838E+03  0.7546771E-02  0.1056084E+00
         21   -1    0    0  503  502  0.00000000000E+00  0.00000000000E+00  0.27294559351E+03  0.27294559351E+03  0.00000000000E+00 0. -1.
          1   -1    0    0  502    0 -0.00000000000E+00 -0.00000000000E+00 -0.14402794653E+04  0.14402794653E+04  0.00000000000E+00 0.  1.
         25    1    1    2    0    0  0.32265780225E+03 -0.36129182203E+02 -0.78419356956E+02  0.35663422537E+03  0.12500000000E+03 0.  0.
         21    1    1    2  503  501  0.23800650858E+02  0.42255225771E+01  0.10772182113E+03  0.11040071001E+03  0.00000000000E+00 0.  1.
          1    1    1    2  501    0 -0.34645845311E+03  0.31903659626E+02 -0.11966363360E+04  0.12461901234E+04  0.00000000000E+00 0.  1.
<mgrwt>
<rscale>  4 0.36638381E+03</rscale>
<asrwt>0</asrwt>
<pdfrwt beam="1">  1       21 0.41991630E-01 0.36638381E+03</pdfrwt>
<pdfrwt beam="2">  1        1 0.22158145E+00 0.36638381E+03</pdfrwt>
<totfact> 0.44435410E+02</totfact>
</mgrwt>
</event>
<event>
 5    0  0.2306346E+000  0.2485285E+03  0.7546771E-02  0.1114238E+00
          2   -1    0    0  502    0 -0.00000000000E+00  0.00000000000E+00  0.56272445536E+03  0.56272445536E+03  0.00000000000E+00 0.  1.
         21   -1    0    0  503  502  0.00000000000E+00 -0.00000000000E+00 -0.41887320483E+03  0.41887320483E+03  0.00000000000E+00 0.  1.
         25    1    1    2    0    0  0.20804986406E+03 -0.10357884193E+03 -0.21658786622E+03  0.34139218829E+03  0.12500000000E+03 0.  0.
         21    1    1    2  503  501 -0.86088786240E+01  0.27532450775E+02 -0.11525926719E+03  0.11881433967E+03  0.00000000000E+00 0.  1.
          2    1    1    2  501    0 -0.19944098544E+03  0.76046391152E+02  0.47569838395E+03  0.52139113223E+03  0.00000000000E+00 0.  1.
<mgrwt>
<rscale>  4 0.24852847E+03</rscale>
<asrwt>0</asrwt>
<pdfrwt beam="1">  1       21 0.64442031E-01 0.24852847E+03</pdfrwt>
<pdfrwt beam="2">  1        2 0.86572993E-01 0.24852847E+03</pdfrwt>
<totfact> 0.14783259E+03</totfact>
</mgrwt>
</event>
<event>
 5    0  0.2306346E+000  0.2409244E+03  0.7546771E-02  0.1119179E+00
         21   -1    0    0  501  502  0.00000000000E+00  0.00000000000E+00  0.56592238368E+03  0.56592238368E+03  0.00000000000E+00 0. -1.
         -3   -1    0    0    0  501 -0.00000000000E+00 -0.00000000000E+00 -0.22860084043E+03  0.22860084043E+03  0.00000000000E+00 0. -1.
         25    1    1    2    0    0 -0.13730846254E+03  0.27860069406E+03  0.12688318713E+03  0.35804511419E+03  0.12500000000E+03 0.  0.
         21    1    1    2  503  502  0.74230451028E+02 -0.16312380417E+03  0.24202605229E+03  0.30115800726E+03  0.00000000000E+00 0. -1.
         -3    1    1    2    0  503  0.63078011517E+02 -0.11547688989E+03 -0.31587696168E+02  0.13532010267E+03  0.00000000000E+00 0. -1.
<mgrwt>
<rscale>  4 0.24092438E+03</rscale>
<asrwt>0</asrwt>
<pdfrwt beam="1">  1       21 0.87064982E-01 0.24092438E+03</pdfrwt>
<pdfrwt beam="2">  1       -3 0.35169360E-01 0.24092438E+03</pdfrwt>
<totfact> 0.44023223E+02</totfact>
</mgrwt>
</event>
<event>
 5    0  0.2306346E+000  0.2323673E+03  0.7546771E-02  0.1124985E+00
          1   -1    0    0  502    0 -0.00000000000E+00  0.00000000000E+00  0.24243051831E+03  0.24243051831E+03  0.00000000000E+00 0.  1.
         21   -1    0    0  503  502  0.00000000000E+00 -0.00000000000E+00 -0.39507022902E+03  0.39507022902E+03  0.00000000000E+00 0. -1.
         25    1    1    2    0    0  0.22158977895E+03 -0.62146183283E+02 -0.14547890489E+03  0.29958853449E+03  0.12500000000E+03 0.  0.
         21    1    1    2  503  501 -0.70073289348E+02 -0.52159728575E+02 -0.94754326617E+02  0.12887701726E+03  0.00000000000E+00 0. -1.
          1    1    1    2  501    0 -0.15151648960E+03  0.11430591186E+03  0.87593520794E+02  0.20903519558E+03  0.00000000000E+00 0.  1.
<mgrwt>
<rscale>  4 0.23236731E+03</rscale>
<asrwt>0</asrwt>
<pdfrwt beam="1">  1       21 0.60780035E-01 0.23236731E+03</pdfrwt>
<pdfrwt beam="2">  1        1 0.37297003E-01 0.23236731E+03</pdfrwt>
<totfact> 0.31090611E+03</totfact>
</mgrwt>
</event>
<event>
 5    0  0.2306346E+000  0.6144539E+03  0.7546771E-02  0.9875864E-01
         21   -1    0    0  503  502  0.00000000000E+00  0.00000000000E+00  0.13436428019E+04  0.13436428019E+04  0.00000000000E+00 0.  1.
          1   -1    0    0  502    0 -0.00000000000E+00 -0.00000000000E+00 -0.16876169861E+04  0.16876169861E+04  0.00000000000E+00 0.  1.
         25    1    1    2    0    0  0.65551907267E+03 -0.15493366012E+03  0.49445726731E+03  0.84488027724E+03  0.12500000000E+03 0.  0.
         21    1    1    2  503  501 -0.89497405157E+02 -0.30037509952E+02  0.61159746521E+03  0.61884044550E+03  0.00000000000E+00 0.  1.
          1    1    1    2  501    0 -0.56602166751E+03  0.18497117007E+03 -0.14500289167E+04  0.15675390653E+04  0.00000000000E+00 0.  1.
<mgrwt>
<rscale>  4 0.61445395E+03</rscale>
<asrwt>0</asrwt>
<pdfrwt beam="1">  1       21 0.20671428E+00 0.61445395E+03</pdfrwt>
<pdfrwt beam="2">  1        1 0.25963338E+00 0.61445395E+03</pdfrwt>
<totfact> 0.54938733E+00</totfact>
</mgrwt>
</event>
<event>
 5    0  0.2306346E+000  0.3098575E+03  0.7546771E-02  0.1080414E+00
          2   -1    0    0  502    0 -0.00000000000E+00  0.00000000000E+00  0.13209031736E+04  0.13209031736E+04  0.00000000000E+00 0. -1.
         21   -1    0    0  503  502  0.00000000000E+00 -0.00000000000E+00 -0.82233902268E+03  0.82233902268E+03  0.00000000000E+00 0.  1.
         25    1    1    2    0    0 -0.11968264671E+03  0.16180588513E+03 -0.40839682808E+03  0.47214198031E+03  0.12500000000E+03 0.  0.
         21    1    1    2  503  501 -0.48522942757E+02  0.70133943682E+02 -0.36112043167E+03  0.37105419039E+03  0.00000000000E+00 0.  1.
          2    1    1    2  501    0  0.16820558947E+03 -0.23193982881E+03  0.12680814107E+04  0.13000460256E+04  0.00000000000E+00 0. -1.
<mgrwt>
<rscale>  4 0.30985751E+03</rscale>
<asrwt>0</asrwt>
<pdfrwt beam="1">  1       21 0.12651370E+00 0.30985751E+03</pdfrwt>
<pdfrwt beam="2">  1        2 0.20321587E+00 0.30985751E+03</pdfrwt>
<totfact> 0.92681431E+01</totfact>
</mgrwt>
</event>
<event>
 5    0  0.2306346E+000  0.2854226E+03  0.7546771E-02  0.1092764E+00
         21   -1    0    0  501  502  0.00000000000E+00  0.00000000000E+00  0.16674625363E+03  0.16674625363E+03  0.00000000000E+00 0.  1.
         -3   -1    0    0    0  501 -0.00000000000E+00 -0.00000000000E+00 -0.62067953696E+03  0.62067953696E+03  0.00000000000E+00 0. -1.
         25    1    1    2    0    0 -0.61508285888E+02  0.24964794191E+03 -0.46170041321E+02  0.28959288121E+03  0.12500000000E+03 0.  0.
         21    1    1    2  503  502 -0.26477446050E+02 -0.88358247531E+01 -0.27273061167E+02  0.39024951170E+02  0.00000000000E+00 0.  1.
         -3    1    1    2    0  503  0.87985731937E+02 -0.24081211716E+03 -0.38049018085E+03  0.45880795821E+03  0.00000000000E+00 0. -1.
<mgrwt>
<rscale>  4 0.28542264E+03</rscale>
<asrwt>0</asrwt>
<pdfrwt beam="1">  1       21 0.25653269E-01 0.28542264E+03</pdfrwt>
<pdfrwt beam="2">  1       -3 0.95489161E-01 0.28542264E+03</pdfrwt>
<totfact> 0.70856128E+02</totfact>
</mgrwt>
</event>
<event>
 5    0  0.2306346E+000  0.2977773E+03  0.7546771E-02  0.1086357E+00
         21   -1    0    0  503  502  0.00000000000E+00  0.00000000000E+00  0.18667800995E+03  0.18667800995E+03  0.00000000000E+00 0.  1.
          1   -1    0    0  502    0 -0.00000000000E+00 -0.00000000000E+00 -0.77990050729E+03  0.77990050729E+03  0.00000000000E+00 0.  1.
         25    1    1    2    0    0 -0.24225864675E+03 -0.14182965455E+03 -0.11284386583E+03  0.32735858152E+03  0.12500000000E+03 0.  0.
         21    1    1    2  503  501  0.38381213416E+01  0.21052431009E+02  0.44965679073E+02  0.49798075478E+02  0.00000000000E+00 0. -1.
          1    1    1    2  501    0  0.23842052541E+03  0.12077722354E+03 -0.52534431058E+03  0.58942186024E+03  0.00000000000E+00 0.  1.
<mgrwt>
<rscale>  4 0.29777727E+03</rscale>
<asrwt>0</asrwt>
<pdfrwt beam="1">  1       21 0.28719694E-01 0.29777727E+03</pdfrwt>
<pdfrwt beam="2">  1        1 0.11998469E+00 0.29777727E+03</pdfrwt>
<totfact> 0.29946998E+03</totfact>
</mgrwt>
</event>
<event>
 5    0  0.2306346E+000  0.2236583E+03  0.7546771E-02  0.1131185E+00
         -2   -1    0    0    0  501 -0.00000000000E+00  0.00000000000E+00  0.10880841243E+04  0.10880841243E+04  0.00000000000E+00 0.  1.
         21   -1    0    0  501  502  0.00000000000E+00 -0.00000000000E+00 -0.21661976336E+03  0.21661976336E+03  0.00000000000E+00 0. -1.
         25    1    1    2    0    0  0.15221862966E+03 -0.14472381086E+03 -0.92164308085E+02  0.26121782545E+03  0.12500000000E+03 0.  0.
         21    1    1    2  503  502 -0.20668853780E+02  0.15666491883E+02 -0.26071681037E+02  0.36774624901E+02  0.00000000000E+00 0. -1.
         -2    1    1    2    0  503 -0.13154977588E+03  0.12905731898E+03  0.98970035004E+03  0.10067114373E+04  0.00000000000E+00 0.  1.
<mgrwt>
<rscale>  4 0.22365827E+03</rscale>
<asrwt>0</asrwt>
<pdfrwt beam="1">  1       21 0.33326118E-01 0.22365827E+03</pdfrwt>
<pdfrwt beam="2">  1       -2 0.16739755E+00 0.22365827E+03</pdfrwt>
<totfact> 0.16799594E+02</totfact>
</mgrwt>
</event>
<event>
 5    0  0.2306346E+000  0.2990595E+03  0.7546771E-02  0.1085712E+00
          1   -1    0    0  502    0 -0.00000000000E+00  0.00000000000E+00  0.24099118413E+04  0.24099118413E+04  0.00000000000E+00 0. -1.
         21   -1    0    0  503  502  0.00000000000E+00 -0.00000000000E+00 -0.17990014975E+03  0.17990014975E+03  0.00000000000E+00 0.  1.
         25    1    1    2    0    0  0.19015356008E+03 -0.23490041534E+03  0.22120105170E+02  0.32779701126E+03  0.12500000000E+03 0.  0.
         21    1    1    2  503  501 -0.16063263267E+02  0.28460807904E+02 -0.46890881211E+01  0.33015656297E+02  0.00000000000E+00 0. -1.
          1    1    1    2  501    0 -0.17409029682E+03  0.20643960744E+03  0.22125806745E+04  0.22289993235E+04  0.00000000000E+00 0. -1.
<mgrwt>
<rscale>  4 0.29905954E+03</rscale>
<asrwt>0</asrwt>
<pdfrwt beam="1">  1       21 0.27676948E-01 0.29905954E+03</pdfrwt>
<pdfrwt beam="2">  1        1 0.37075564E+00 0.29905954E+03</pdfrwt>
<totfact> 0.24289631E+02</totfact>
</mgrwt>
</event>
<event>
 5    0  0.2306346E+000  0.3805178E+03  0.7546771E-02  0.1050743E+00
         21   -1    0    0  503  502  0.00000000000E+00  0.00000000000E+00  0.16423435823E+04  0.16423435823E+04  0.00000000000E+00 0.  1.
          3   -1    0    0  502    0 -0.00000000000E+00 -0.00000000000E+00 -0.19825789682E+04  0.19825789682E+04  0.00000000000E+00 0. -1.
         25    1    1    2    0    0  0.80590331041E+02  0.24418894208E+03  0.27932896034E+03  0.39971578525E+03  0.12500000000E+03 0.  0.
         21    1    1    2  503  501  0.15743907310E+03  0.33320766606E+02  0.12803553870E+04  0.12904290962E+04  0.00000000000E+00 0.  1.
          3    1    1    2  501    0 -0.23802940414E+03 -0.27750970869E+03 -0.18999197333E+04  0.19347776690E+04  0.00000000000E+00 0. -1.
<mgrwt>
<rscale>  4 0.38051776E+03</rscale>
<asrwt>0</asrwt>
<pdfrwt beam="1">  1       21 0.25266824E+00 0.38051776E+03</pdfrwt>
<pdfrwt beam="2">  1        3 0.30501215E+00 0.38051776E+03</pdfrwt>
<totfact> 0.11068360E-01</totfact>
</mgrwt>
</event>
<event>
 5    0  0.2306346E+000  0.2804713E+03  0.7546771E-02  0.1095432E+00
         -1   -1    0    0    0  501 -0.00000000000E+00  0.00000000000E+00  0.38381510821E+03  0.38381510821E+03  0.00000000000E+00 0. -1.
         21   -1    0    0  501  502  0.00000000000E+00 -0.00000000000E+00 -0.66379113119E+03  0.66379113119E+03  0.00000000000E+00 0.  1.
         25    1    1    2    0    0 -0.17706461547E+03  0.16531830263E+03 -0.56637993515E+03  0.62856443598E+03  0.12500000000E+03 0.  0.
         21    1    1    2  503  502 -0.23575290547E+02 -0.13096954088E+02 -0.11176698843E+02  0.29193203452E+02  0.00000000000E+00 0. -1.
         -1    1    1    2    0  503  0.20063990602E+03 -0.15222134854E+03  0.29758061102E+03  0.38984859996E+03  0.00000000000E+00 0. -1.
<mgrwt>
<rscale>  4 0.28047128E+03</rscale>
<asrwt>0</asrwt>
<pdfrwt beam="1">  1       21 0.10212171E+00 0.28047128E+03</pdfrwt>
<pdfrwt beam="2">  1       -1 0.59048479E-01 0.28047128E+03</pdfrwt>
<totfact> 0.20736874E+02</totfact>
</mgrwt>
</event>
<event>
 5    0  0.2306346E+000  0.3182065E+03  0.7546771E-02  0.1076478E+00
          2   -1    0    0  502    0 -0.00000000000E+00  0.00000000000E+00  0.15146666100E+04  0.15146666100E+04  0.00000000000E+00 0.  1.
         21   -1    0    0  503  502  0.00000000000E+00 -0.00000000000E+00 -0.82756129082E+02  0.82756129082E+02  0.00000000000E+00 0.  1.
         25    1    1    2    0    0  0.11906602466E+03  0.23965720610E+03  0.43508515698E+03  0.52586727269E+03  0.12500000000E+03 0.  0.
         21    1    1    2  503  501  0.36758443106E+02  0.23422968509E+02  0.19932030591E+02  0.47928117394E+02  0.00000000000E+00 0. -1.
          2    1    1    2  501    0 -0.15582446777E+03 -0.26308017461E+03  0.97689329332E+03  0.10236273490E+04  0.00000000000E+00 0.  1.
<mgrwt>
<rscale>  4 0.31820651E+03</rscale>
<asrwt>0</asrwt>
<pdfrwt beam="1">  1       21 0.12731713E-01 0.31820651E+03</pdfrwt>
<pdfrwt beam="2">  1        2 0.23302561E+00 0.31820651E+03</pdfrwt>
<totfact> 0.87499200E+03</totfact>
</mgrwt>
</event>
<event>
 5    0  0.2306346E+000  0.2667640E+03  0.7546771E-02  0.1103146E+00
         21   -1    0    0  503  502  0.00000000000E+00  0.00000000000E+00  0.18348611426E+04  0.18348611426E+04  0.00000000000E+00 0. -1.
          2   -1    0    0  502    0 -0.00000000000E+00 -0.00000000000E+00 -0.41746197292E+03  0.41746197292E+03  0.00000000000E+00 0.  1.
         25    1    1    2    0    0  0.21188804228E+03 -0.13402874960E+03  0.11971830266E+04  0.12295252935E+04  0.12500000000E+03 0.  0.
         21    1    1    2  503  501 -0.22871267131E+03  0.23837014026E+02  0.59177315901E+03  0.63488043046E+03  0.00000000000E+00 0. -1.
          2    1    1    2  501    0  0.16824629025E+02  0.11019173557E+03 -0.37155701584E+03  0.38791739166E+03  0.00000000000E+00 0.  1.
<mgrwt>
<rscale>  4 0.26676400E+03</rscale>
<asrwt>0</asrwt>
<pdfrwt beam="1">  1       21 0.28228633E+00 0.26676400E+03</pdfrwt>
<pdfrwt beam="2">  1        2 0.64224920E-01 0.26676400E+03</pdfrwt>
<totfact> 0.37905965E+01</totfact>
</mgrwt>
</event>
<event>
 5    0  0.2306346E+000  0.2470152E+03  0.7546771E-02  0.1115206E+00
         21   -1    0    0  503  502  0.00000000000E+00  0.00000000000E+00  0.63099766966E+03  0.63099766966E+03  0.00000000000E+00 0. -1.
          1   -1    0    0  502    0 -0.00000000000E+00 -0.00000000000E+00 -0.35706973611E+03  0.35706973611E+03  0.00000000000E+00 0. -1.
         25    1    1    2    0    0  0.16839733252E+03  0.15102952098E+03  0.48972734145E+03  0.55373770575E+03  0.12500000000E+03 0.  0.
         21    1    1    2  503  501  0.46757262468E+01 -0.28141626661E+02  0.71581935884E+02  0.77057038043E+02  0.00000000000E+00 0.  1.
          1    1    1    2  501    0 -0.17307305876E+03 -0.12288789432E+03 -0.28738134379E+03  0.35727266198E+03  0.00000000000E+00 0. -1.
<mgrwt>
<rscale>  4 0.24701521E+03</rscale>
<asrwt>0</asrwt>
<pdfrwt beam="1">  1       21 0.97076564E-01 0.24701521E+03</pdfrwt>
<pdfrwt beam="2">  1        1 0.54933806E-01 0.24701521E+03</pdfrwt>
<totfact> 0.65879922E+02</totfact>
</mgrwt>
</event>
<event>
 5    0  0.2306346E+000  0.2419873E+03  0.7546771E-02  0.1118476E+00
          3   -1    0    0  502    0 -0.00000000000E+00  0.00000000000E+00  0.17632464295E+04  0.17632464295E+04  0.00000000000E+00 0.  1.
         21   -1    0    0  503  502  0.00000000000E+00 -0.00000000000E+00 -0.64312422310E+02  0.64312422310E+02  0.00000000000E+00 0.  1.
         25    1    1    2    0    0  0.13780275737E+03  0.19291625992E+03  0.11941624891E+04  0.12238690018E+04  0.12500000000E+03 0.  0.
         21    1    1    2  503  501 -0.24842365321E+02 -0.56109543848E+02 -0.72616725142E+01  0.61791228449E+02  0.00000000000E+00 0.  1.
          3    1    1    2  501    0 -0.11296039205E+03 -0.13680671607E+03  0.51203319063E+03  0.54189862155E+03  0.00000000000E+00 0.  1.
<mgrwt>
<rscale>  4 0.24198728E+03</rscale>
<asrwt>0</asrwt>
<pdfrwt beam="1">  1       21 0.98942201E-02 0.24198728E+03</pdfrwt>
<pdfrwt beam="2">  1        3 0.27126865E+00 0.24198728E+03</pdfrwt>
<totfact> 0.25881981E+02</totfact>
</mgrwt>
</event>
<event>
 5    0  0.2306346E+000  0.2461989E+03  0.7546771E-02  0.1115731E+00
          1   -1    0    0  502    0 -0.00000000000E+00  0.00000000000E+00  0.94700838932E+03  0.94700838932E+03  0.00000000000E+00 0. -1.
         21   -1    0    0  503  502  0.00000000000E+00 -0.00000000000E+00 -0.66032261871E+02  0.66032261871E+02  0.00000000000E+00 0. -1.
         25    1    1    2    0    0 -0.15115149431E+03 -0.14891040714E+03  0.58737789512E+03  0.63691355399E+03  0.12500000000E+03 0.  0.
         21    1    1    2  503  501  0.16115471071E+02 -0.15418767319E+02  0.24724688739E+02  0.33298003344E+02  0.00000000000E+00 0.  1.
          1    1    1    2  501    0  0.13503602324E+03  0.16432917446E+03  0.26887354359E+03  0.34282909385E+03  0.00000000000E+00 0. -1.
<mgrwt>
<rscale>  4 0.24619894E+03</rscale>
<asrwt>0</asrwt>
<pdfrwt beam="1">  1       21 0.10158810E-01 0.24619894E+03</pdfrwt>
<pdfrwt beam="2">  1        1 0.14569359E+00 0.24619894E+03</pdfrwt>
<totfact> 0.15359623E+04</totfact>
</mgrwt>
</event>
<event>
 5    0  0.2306346E+000  0.2036805E+03  0.7546771E-02  0.1146670E+00
         21   -1    0    0  503  502  0.00000000000E+00  0.00000000000E+00  0.63963852630E+03  0.63963852630E+03  0.00000000000E+00 0. -1.
          2   -1    0    0  502    0 -0.00000000000E+00 -0.00000000000E+00 -0.26752566189E+04  0.26752566189E+04  0.00000000000E+00 0.  1.
         25    1    1    2    0    0 -0.15173910976E+02 -0.25879968090E+03  0.30224377098E+03  0.41735335089E+03  0.12500000000E+03 0.  0.
         21    1    1    2  503  501 -0.16295497852E+02  0.10176474044E+03  0.26780816790E+03  0.28695438738E+03  0.00000000000E+00 0. -1.
          2    1    1    2  501    0  0.31469408828E+02  0.15703494046E+03 -0.26056700315E+04  0.26105874070E+04  0.00000000000E+00 0.  1.
<mgrwt>
<rscale>  4 0.20368051E+03</rscale>
<asrwt>0</asrwt>
<pdfrwt beam="1">  1       21 0.98405925E-01 0.20368051E+03</pdfrwt>
<pdfrwt beam="2">  1        2 0.41157795E+00 0.20368051E+03</pdfrwt>
<totfact> 0.35389878E+01</totfact>
</mgrwt>
</event>
<event>
 5    0  0.2306346E+000  0.2425060E+03  0.7546771E-02  0.1118135E+00
          2   -1    0    0  502    0 -0.00000000000E+00  0.00000000000E+00  0.51718673359E+03  0.51718673359E+03  0.00000000000E+00 0.  1.
         21   -1    0    0  503  502  0.00000000000E+00 -0.00000000000E+00 -0.44762901419E+03  0.44762901419E+03  0.00000000000E+00 0.  1.
         25    1    1    2    0    0  0.86440863812E+01  0.25722770811E+03  0.37639082597E+03  0.47279579940E+03  0.12500000000E+03 0.  0.
         21    1    1    2  503  501  0.77799638955E+00 -0.20467083352E+03 -0.36161630058E+03  0.41552028135E+03  0.00000000000E+00 0.  1.
          2    1    1    2  501    0 -0.94220827707E+01 -0.52556874597E+02  0.54783194007E+02  0.76499667037E+02  0.00000000000E+00 0.  1.
<mgrwt>
<rscale>  4 0.24250599E+03</rscale>
<asrwt>0</asrwt>
<pdfrwt beam="1">  1       21 0.68866002E-01 0.24250599E+03</pdfrwt>
<pdfrwt beam="2">  1        2 0.79567190E-01 0.24250599E+03</pdfrwt>
<totfact> 0.14095070E+03</totfact>
</mgrwt>
</event>
<event>
 5    0  0.2306346E+000  0.2134135E+03  0.7546771E-02  0.1138891E+00
         21   -1    0    0  503  502  0.00000000000E+00  0.00000000000E+00  0.14885746282E+03  0.14885746282E+03  0.00000000000E+00 0.  1.
          2   -1    0    0  502    0 -0.00000000000E+00 -0.00000000000E+00 -0.41426623784E+03  0.41426623784E+03  0.00000000000E+00 0.  1.
         25    1    1    2    0    0 -0.18685030500E+03  0.90871125092E+02 -0.19373081951E+03  0.31036628084E+03  0.12500000000E+03 0.  0.
         21    1    1    2  503  501  0.11681651025E+03 -0.11326493345E+03 -0.22403890163E+02  0.16424669407E+03  0.00000000000E+00 0.  1.
          2    1    1    2  501    0  0.70033794747E+02  0.22393808356E+02 -0.49274065344E+02  0.88510725762E+02  0.00000000000E+00 0.  1.
<mgrwt>
<rscale>  4 0.21341353E+03</rscale>
<asrwt>0</asrwt>
<pdfrwt beam="1">  1       21 0.22901149E-01 0.21341353E+03</pdfrwt>
<pdfrwt beam="2">  1        2 0.63733266E-01 0.21341353E+03</pdfrwt>
<totfact> 0.17086502E+04</totfact>
</mgrwt>
</event>
<event>
 5    0  0.2306346E+000  0.2514238E+03  0.7546771E-02  0.1112408E+00
         21   -1    0    0  503  502  0.00000000000E+00  0.00000000000E+00  0.16553894119E+03  0.16553894119E+03  0.00000000000E+00 0. -1.
          2   -1    0    0  502    0 -0.00000000000E+00 -0.00000000000E+00 -0.17683926475E+04  0.17683926475E+04  0.00000000000E+00 0.  1.
         25    1    1    2    0    0  0.25841124601E+02 -0.28998220715E+03 -0.45721916873E+02  0.32011394513E+03  0.12500000000E+03 0.  0.
         21    1    1    2  503  501 -0.44314340410E+02  0.76494712512E+02 -0.74005187376E+02  0.11529080435E+03  0.00000000000E+00 0. -1.
          2    1    1    2  501    0  0.18473215809E+02  0.21348749464E+03 -0.14831266020E+04  0.14985268392E+04  0.00000000000E+00 0.  1.
<mgrwt>
<rscale>  4 0.25142381E+03</rscale>
<asrwt>0</asrwt>
<pdfrwt beam="1">  1       21 0.25467528E-01 0.25142381E+03</pdfrwt>
<pdfrwt beam="2">  1        2 0.27206042E+00 0.25142381E+03</pdfrwt>
<totfact> 0.17991127E+03</totfact>
</mgrwt>
</event>
<event>
 5    0  0.2306346E+000  0.2712095E+03  0.7546771E-02  0.1100589E+00
         21   -1    0    0  503  502  0.00000000000E+00  0.00000000000E+00  0.12004778412E+04  0.12004778412E+04  0.00000000000E+00 0.  1.
          1   -1    0    0  502    0 -0.00000000000E+00 -0.00000000000E+00 -0.15491638950E+03  0.15491638950E+03  0.00000000000E+00 0. -1.
         25    1    1    2    0    0 -0.22400351103E+03 -0.14369567440E+03  0.89210810027E+03  0.93931245193E+03  0.12500000000E+03 0.  0.
         21    1    1    2  503  501  0.48448412733E+02 -0.17024844796E+02  0.16990883015E+03  0.17749959042E+03  0.00000000000E+00 0. -1.
          1    1    1    2  501    0  0.17555509830E+03  0.16072051920E+03 -0.16455478689E+02  0.23858218838E+03  0.00000000000E+00 0. -1.
<mgrwt>
<rscale>  4 0.27120950E+03</rscale>
<asrwt>0</asrwt>
<pdfrwt beam="1">  1       21 0.18468889E+00 0.27120950E+03</pdfrwt>
<pdfrwt beam="2">  1        1 0.23833291E-01 0.27120950E+03</pdfrwt>
<totfact> 0.35372890E+02</totfact>
</mgrwt>
</event>
<event>
 5    0  0.2306346E+000  0.2720036E+03  0.7546771E-02  0.1100138E+00
          1   -1    0    0  502    0 -0.00000000000E+00  0.00000000000E+00  0.19923314626E+04  0.19923314626E+04  0.00000000000E+00 0.  1.
         21   -1    0    0  503  502  0.00000000000E+00 -0.00000000000E+00 -0.46719501562E+02  0.46719501562E+02  0.00000000000E+00 0.  1.
         25    1    1    2    0    0 -0.10461417195E+03 -0.21775401974E+03  0.47302392927E+03  0.54565334760E+03  0.12500000000E+03 0.  0.
         21    1    1    2  503  501  0.16538010779E+02  0.30987271897E+02  0.11654834130E+03  0.12172605588E+03  0.00000000000E+00 0. -1.
          1    1    1    2  501    0  0.88076161173E+02  0.18676674784E+03  0.13560396905E+04  0.13716715607E+04  0.00000000000E+00 0.  1.
<mgrwt>
<rscale>  4 0.27200356E+03</rscale>
<asrwt>0</asrwt>
<pdfrwt beam="1">  1       21 0.71876172E-02 0.27200356E+03</pdfrwt>
<pdfrwt beam="2">  1        1 0.30651247E+00 0.27200356E+03</pdfrwt>
<totfact> 0.54716287E+03</totfact>
</mgrwt>
</event>
<event>
 5    0  0.2306346E+000  0.3364161E+03  0.7546771E-02  0.1068333E+00
          3   -1    0    0  502    0 -0.00000000000E+00  0.00000000000E+00  0.27539713572E+03  0.27539713572E+03  0.00000000000E+00 0. -1.
         21   -1    0    0  503  502  0.00000000000E+00 -0.00000000000E+00 -0.20150700230E+04  0.20150700230E+04  0.00000000000E+00 0. -1.
         25    1    1    2    0    0 -0.20191377318E+03  0.68094963202E+02 -0.29648531919E+03  0.38592051035E+03  0.12500000000E+03 0.  0.
         21    1    1    2  503  501 -0.15656608802E+03 -0.14867097744E+03 -0.15148842668E+04  0.15301929098E+04  0.00000000000E+00 0. -1.
          3    1    1    2  501    0  0.35847986120E+03  0.80576014233E+02  0.71696698729E+02  0.37435373855E+03  0.00000000000E+00 0. -1.
<mgrwt>
<rscale>  4 0.33641607E+03</rscale>
<asrwt>0</asrwt>
<pdfrwt beam="1">  1       21 0.31001076E+00 0.33641607E+03</pdfrwt>
<pdfrwt beam="2">  1        3 0.42368791E-01 0.33641607E+03</pdfrwt>
<totfact> 0.72673793E+00</totfact>
</mgrwt>
</event>
<event>
 5    0  0.3368223E+000  0.2321074E+03  0.7546771E-02  0.1125165E+00
         21   -1    0    0  503  502  0.00000000000E+00  0.00000000000E+00  0.64314467581E+03  0.64314467581E+03  0.00000000000E+00 0. -1.
          2   -1    0    0  502    0 -0.00000000000E+00 -0.00000000000E+00 -0.21318874765E+04  0.21318874765E+04  0.00000000000E+00 0. -1.
         25    1    1    2    0    0  0.22660506004E+03  0.39097658524E+02  0.58382265237E+03  0.63980650947E+03  0.12500000000E+03 0.  0.
         21    1    1    2  503  501 -0.35880135890E+02  0.30144812595E+01  0.14663467876E+02  0.38877866954E+02  0.00000000000E+00 0.  1.
          2    1    1    2  501    0 -0.19072492415E+03 -0.42112139783E+02 -0.20872289209E+04  0.20963477758E+04  0.00000000000E+00 0. -1.
<mgrwt>
<rscale>  4 0.23210744E+03</rscale>
<asrwt>0</asrwt>
<pdfrwt beam="1">  1       21 0.98945335E-01 0.23210744E+03</pdfrwt>
<pdfrwt beam="2">  1        2 0.32798269E+00 0.23210744E+03</pdfrwt>
<totfact> 0.66571513E+01</totfact>
</mgrwt>
</event>
<event>
 5    0  0.2306346E+000  0.1867312E+03  0.7546771E-02  0.1161443E+00
         21   -1    0    0  503  502  0.00000000000E+00  0.00000000000E+00  0.20961642385E+03  0.20961642385E+03  0.00000000000E+00 0. -1.
          2   -1    0    0  502    0 -0.00000000000E+00 -0.00000000000E+00 -0.36696060313E+04  0.36696060313E+04  0.00000000000E+00 0. -1.
         25    1    1    2    0    0 -0.17079345996E+03 -0.10478494421E+03 -0.38748278105E+02  0.23932555141E+03  0.12500000000E+03 0.  0.
         21    1    1    2  503  501  0.51997626190E+02  0.34773107432E+02  0.98918391069E+02  0.11703747358E+03  0.00000000000E+00 0. -1.
          2    1    1    2  501    0  0.11879583377E+03  0.70011836781E+02 -0.35201597205E+04  0.35228594302E+04  0.00000000000E+00 0. -1.
<mgrwt>
<rscale>  4 0.18673119E+03</rscale>
<asrwt>0</asrwt>
<pdfrwt beam="1">  1       21 0.32248680E-01 0.18673119E+03</pdfrwt>
<pdfrwt beam="2">  1        2 0.56455478E+00 0.18673119E+03</pdfrwt>
<totfact> 0.96675594E+01</totfact>
</mgrwt>
</event>
<event>
 5    0  0.2306346E+000  0.2263752E+03  0.7546771E-02  0.1129217E+00
          2   -1    0    0  502    0 -0.00000000000E+00  0.00000000000E+00  0.10158932838E+04  0.10158932838E+04  0.00000000000E+00 0. -1.
         21   -1    0    0  503  502  0.00000000000E+00 -0.00000000000E+00 -0.50778901794E+03  0.50778901794E+03  0.00000000000E+00 0. -1.
         25    1    1    2    0    0  0.92628936888E+02 -0.29931219543E+03 -0.34308706009E+03  0.48114617434E+03  0.12500000000E+03 0.  0.
         21    1    1    2  503  501  0.46527547849E+01  0.14076273544E+03 -0.28243716960E+02  0.14364366803E+03  0.00000000000E+00 0. -1.
          2    1    1    2  501    0 -0.97281691672E+02  0.15854945999E+03  0.87943504295E+03  0.89889245940E+03  0.00000000000E+00 0. -1.
<mgrwt>
<rscale>  4 0.22637520E+03</rscale>
<asrwt>0</asrwt>
<pdfrwt beam="1">  1       21 0.78121388E-01 0.22637520E+03</pdfrwt>
<pdfrwt beam="2">  1        2 0.15629127E+00 0.22637520E+03</pdfrwt>
<totfact> 0.46343492E+02</totfact>
</mgrwt>
</event>
<event>
 5    0  0.2306346E+000  0.3155774E+03  0.7546771E-02  0.1077703E+00
         21   -1    0    0  503  502  0.00000000000E+00  0.00000000000E+00  0.11870146144E+03  0.11870146144E+03  0.00000000000E+00 0.  1.
          2   -1    0    0  502    0 -0.00000000000E+00 -0.00000000000E+00 -0.21412105613E+04  0.21412105613E+04  0.00000000000E+00 0.  1.
         25    1    1    2    0    0 -0.12979266287E+03 -0.20235486556E+03 -0.36153513889E+03  0.45180336830E+03  0.12500000000E+03 0.  0.
         21    1    1    2  503  501 -0.68493888626E+00  0.42357833957E+03 -0.74702731805E+03  0.85876009037E+03  0.00000000000E+00 0.  1.
          2    1    1    2  501    0  0.13047760176E+03 -0.22122347402E+03 -0.91394664291E+03  0.94934856407E+03  0.00000000000E+00 0.  1.
<mgrwt>
<rscale>  4 0.31557736E+03</rscale>
<asrwt>0</asrwt>
<pdfrwt beam="1">  1       21 0.18261764E-01 0.31557736E+03</pdfrwt>
<pdfrwt beam="2">  1        2 0.32941700E+00 0.31557736E+03</pdfrwt>
<totfact> 0.20927306E+03</totfact>
</mgrwt>
</event>
<event>
 5    0  0.2306346E+000  0.2980342E+03  0.7546771E-02  0.1086227E+00
          2   -1    0    0  502    0 -0.00000000000E+00  0.00000000000E+00  0.14017089002E+03  0.14017089002E+03  0.00000000000E+00 0. -1.
         21   -1    0    0  503  502  0.00000000000E+00 -0.00000000000E+00 -0.14090043015E+04  0.14090043015E+04  0.00000000000E+00 0. -1.
         25    1    1    2    0    0 -0.16956760286E+02 -0.28837389559E+03 -0.91329611994E+03  0.96601337365E+03  0.12500000000E+03 0.  0.
         21    1    1    2  503  501  0.18576069341E+02  0.20821033512E+02 -0.31060694879E+03  0.31185775992E+03  0.00000000000E+00 0. -1.
          2    1    1    2  501    0 -0.16193090557E+01  0.26755286208E+03 -0.44930342780E+02  0.27130405797E+03  0.00000000000E+00 0. -1.
<mgrwt>
<rscale>  4 0.29803422E+03</rscale>
<asrwt>0</asrwt>
<pdfrwt beam="1">  1       21 0.21676990E+00 0.29803422E+03</pdfrwt>
<pdfrwt beam="2">  1        2 0.21564751E-01 0.29803422E+03</pdfrwt>
<totfact> 0.30626081E+02</totfact>
</mgrwt>
</event>
<event>
 5    0  0.2306346E+000  0.3316302E+03  0.7546771E-02  0.1070418E+00
         21   -1    0    0  503  502  0.00000000000E+00  0.00000000000E+00  0.11000185582E+04  0.11000185582E+04  0.00000000000E+00 0. -1.
          1   -1    0    0  502    0 -0.00000000000E+00 -0.00000000000E+00 -0.45573292441E+03  0.45573292441E+03  0.00000000000E+00 0. -1.
         25    1    1    2    0    0  0.62268186930E+02  0.34228703748E+03  0.35159943368E+03  0.51018124710E+03  0.12500000000E+03 0.  0.
         21    1    1    2  503  501 -0.39395086756E+02 -0.41490965210E+02  0.60713133387E+03  0.60982122759E+03  0.00000000000E+00 0. -1.
          1    1    1    2  501    0 -0.22873100174E+02 -0.30079607227E+03 -0.31444513373E+03  0.43574900795E+03  0.00000000000E+00 0. -1.
<mgrwt>
<rscale>  4 0.33163020E+03</rscale>
<asrwt>0</asrwt>
<pdfrwt beam="1">  1       21 0.16923362E+00 0.33163020E+03</pdfrwt>
<pdfrwt beam="2">  1        1 0.70112758E-01 0.33163020E+03</pdfrwt>
<totfact> 0.11092828E+02</totfact>
</mgrwt>
</event>
<event>
 5    0  0.2306346E+000  0.3190467E+03  0.7546771E-02  0.1076089E+00
         21   -1    0    0  503  502  0.00000000000E+00  0.00000000000E+00  0.15167729872E+03  0.15167729872E+03  0.00000000000E+00 0. -1.
          3   -1    0    0  502    0 -0.00000000000E+00 -0.00000000000E+00 -0.12331008482E+04  0.12331008482E+04  0.00000000000E+00 0. -1.
         25    1    1    2    0    0  0.31274319793E+03  0.17535245854E+02 -0.11792587060E+03  0.35727762826E+03  0.12500000000E+03 0.  0.
         21    1    1    2  503  501 -0.23394129827E+02  0.22014190385E+01 -0.24259312994E+01  0.23622377078E+02  0.00000000000E+00 0.  1.
          3    1    1    2  501    0 -0.28934906810E+03 -0.19736664892E+02 -0.96107174759E+03  0.10038781416E+04  0.00000000000E+00 0. -1.
<mgrwt>
<rscale>  4 0.31904674E+03</rscale>
<asrwt>0</asrwt>
<pdfrwt beam="1">  1       21 0.23334969E-01 0.31904674E+03</pdfrwt>
<pdfrwt beam="2">  1        3 0.18970783E+00 0.31904674E+03</pdfrwt>
<totfact> 0.15403974E+02</totfact>
</mgrwt>
</event>
<event>
 5    0  0.2306346E+000  0.5472855E+03  0.7546771E-02  0.1002124E+00
          1   -1    0    0  502    0 -0.00000000000E+00  0.00000000000E+00  0.13401719778E+04  0.13401719778E+04  0.00000000000E+00 0. -1.
         21   -1    0    0  503  502  0.00000000000E+00 -0.00000000000E+00 -0.29693377452E+03  0.29693377452E+03  0.00000000000E+00 0. -1.
         25    1    1    2    0    0  0.19611148334E+03 -0.49730654876E+03  0.21056425184E+03  0.58799304544E+03  0.12500000000E+03 0.  0.
         21    1    1    2  503  501 -0.20330147974E+02 -0.50592936084E+01 -0.29326189063E+02  0.36040764884E+02  0.00000000000E+00 0.  1.
          1    1    1    2  501    0 -0.17578133536E+03  0.50236584237E+03  0.86200014054E+03  0.10130719420E+04  0.00000000000E+00 0. -1.
<mgrwt>
<rscale>  4 0.54728548E+03</rscale>
<asrwt>0</asrwt>
<pdfrwt beam="1">  1       21 0.45682120E-01 0.54728548E+03</pdfrwt>
<pdfrwt beam="2">  1        1 0.20618030E+00 0.54728548E+03</pdfrwt>
<totfact> 0.41361171E+02</totfact>
</mgrwt>
</event>
<event>
 5    0  0.2306346E+000  0.1925263E+03  0.7546771E-02  0.1156202E+00
          2   -1    0    0  502    0 -0.00000000000E+00  0.00000000000E+00  0.19886366956E+04  0.19886366956E+04  0.00000000000E+00 0. -1.
         21   -1    0    0  503  502  0.00000000000E+00 -0.00000000000E+00 -0.91737230387E+02  0.91737230387E+02  0.00000000000E+00 0.  1.
         25    1    1    2    0    0  0.19516128963E+03 -0.48925807675E+02  0.17224819048E+03  0.29287557554E+03  0.12500000000E+03 0.  0.
         21    1    1    2  503  501 -0.61860879553E+02 -0.49947526559E+01  0.54575433032E+01  0.62301691407E+02  0.00000000000E+00 0.  1.
          2    1    1    2  501    0 -0.13330041008E+03  0.53920560331E+02  0.17191937314E+04  0.17251966590E+04  0.00000000000E+00 0. -1.
<mgrwt>
<rscale>  4 0.19252626E+03</rscale>
<asrwt>0</asrwt>
<pdfrwt beam="1">  1       21 0.14113422E-01 0.19252626E+03</pdfrwt>
<pdfrwt beam="2">  1        2 0.30594407E+00 0.19252626E+03</pdfrwt>
<totfact> 0.42804822E+03</totfact>
</mgrwt>
</event>
<event>
 5    0  0.2306346E+000  0.3744788E+03  0.7546771E-02  0.1052994E+00
         21   -1    0    0  503  502  0.00000000000E+00  0.00000000000E+00  0.64615465821E+02  0.64615465821E+02  0.00000000000E+00 0. -1.
          1   -1    0    0  502    0 -0.00000000000E+00 -0.00000000000E+00 -0.30092459026E+04  0.30092459026E+04  0.00000000000E+00 0. -1.
         25    1    1    2    0    0 -0.20540365843E+03  0.31202517882E+03 -0.10661303420E+04  0.11365778817E+04  0.12500000000E+03 0.  0.
         21    1    1    2  503  501  0.13400220861E+02 -0.26736454597E+02 -0.24832910137E+01  0.30009509456E+02  0.00000000000E+00 0. -1.
          1    1    1    2  501    0  0.19200343757E+03 -0.28528872423E+03 -0.18760168038E+04  0.19072739773E+04  0.00000000000E+00 0. -1.
<mgrwt>
<rscale>  4 0.37447877E+03</rscale>
<asrwt>0</asrwt>
<pdfrwt beam="1">  1       21 0.99408415E-02 0.37447877E+03</pdfrwt>
<pdfrwt beam="2">  1        1 0.46296088E+00 0.37447877E+03</pdfrwt>
<totfact> 0.61659800E+02</totfact>
</mgrwt>
</event>
<event>
 5    0  0.2306346E+000  0.2510717E+03  0.7546771E-02  0.1112629E+00
          1   -1    0    0  502    0 -0.00000000000E+00  0.00000000000E+00  0.14762553192E+04  0.14762553192E+04  0.00000000000E+00 0. -1.
         21   -1    0    0  503  502  0.00000000000E+00 -0.00000000000E+00 -0.92155738251E+02  0.92155738251E+02  0.00000000000E+00 0. -1.
         25    1    1    2    0    0 -0.27459923109E+03 -0.37991514812E+02  0.41897129258E+03  0.51769685813E+03  0.12500000000E+03 0.  0.
         21    1    1    2  503  501  0.70650498702E+02  0.66275483281E+02  0.43189005456E+02  0.10606235356E+03  0.00000000000E+00 0. -1.
          1    1    1    2  501    0  0.20394873239E+03 -0.28283968469E+02  0.92193928294E+03  0.94465184578E+03  0.00000000000E+00 0. -1.
<mgrwt>
<rscale>  4 0.25107168E+03</rscale>
<asrwt>0</asrwt>
<pdfrwt beam="1">  1       21 0.14177807E-01 0.25107168E+03</pdfrwt>
<pdfrwt beam="2">  1        1 0.22711619E+00 0.25107168E+03</pdfrwt>
<totfact> 0.35733419E+03</totfact>
</mgrwt>
</event>
<event>
 5    0  0.2306346E+000  0.3214104E+03  0.7546771E-02  0.1075002E+00
          1   -1    0    0  502    0 -0.00000000000E+00  0.00000000000E+00  0.30156680171E+04  0.30156680171E+04  0.00000000000E+00 0.  1.
         21   -1    0    0  503  502  0.00000000000E+00 -0.00000000000E+00 -0.12415971968E+03  0.12415971968E+03  0.00000000000E+00 0.  1.
         25    1    1    2    0    0 -0.20187139648E+03  0.38416001385E+03  0.60053226520E+03  0.75139535433E+03  0.12500000000E+03 0.  0.
         21    1    1    2  503  501  0.10704753730E+03 -0.12064497107E+03  0.12403146231E+03  0.20346544652E+03  0.00000000000E+00 0.  1.
          1    1    1    2  501    0  0.94823859184E+02 -0.26351504278E+03  0.21669445699E+04  0.21849669359E+04  0.00000000000E+00 0.  1.
<mgrwt>
<rscale>  4 0.32141039E+03</rscale>
<asrwt>0</asrwt>
<pdfrwt beam="1">  1       21 0.19101498E-01 0.32141039E+03</pdfrwt>
<pdfrwt beam="2">  1        1 0.46394887E+00 0.32141039E+03</pdfrwt>
<totfact> 0.18870479E+02</totfact>
</mgrwt>
</event>
<event>
 5    0  0.2306346E+000  0.2534146E+03  0.7546771E-02  0.1111166E+00
          1   -1    0    0  502    0 -0.00000000000E+00  0.00000000000E+00  0.16203222395E+04  0.16203222395E+04  0.00000000000E+00 0.  1.
         21   -1    0    0  503  502  0.00000000000E+00 -0.00000000000E+00 -0.40280770934E+02  0.40280770934E+02  0.00000000000E+00 0. -1.
         25    1    1    2    0    0  0.11955257030E+03  0.18245211650E+03  0.97279187756E+03  0.10047540141E+04  0.12500000000E+03 0.  0.
         21    1    1    2  503  501 -0.16315902714E+02  0.16596924877E+02  0.48839873675E+02  0.54101754660E+02  0.00000000000E+00 0.  1.
          1    1    1    2  501    0 -0.10323666758E+03 -0.19904904137E+03  0.55840971731E+03  0.60174724162E+03  0.00000000000E+00 0.  1.
<mgrwt>
<rscale>  4 0.25341456E+03</rscale>
<asrwt>0</asrwt>
<pdfrwt beam="1">  1       21 0.61970429E-02 0.25341456E+03</pdfrwt>
<pdfrwt beam="2">  1        1 0.24928029E+00 0.25341456E+03</pdfrwt>
<totfact> 0.12427071E+04</totfact>
</mgrwt>
</event>
<event>
 5    0  0.2306346E+000  0.3041917E+03  0.7546771E-02  0.1083164E+00
          2   -1    0    0  502    0 -0.00000000000E+00  0.00000000000E+00  0.32028625945E+04  0.32028625945E+04  0.00000000000E+00 0. -1.
         21   -1    0    0  503  502  0.00000000000E+00 -0.00000000000E+00 -0.28423801009E+02  0.28423801009E+02  0.00000000000E+00 0. -1.
         25    1    1    2    0    0  0.26648981738E+03 -0.76751250713E+02  0.12737262442E+04  0.13095461513E+04  0.12500000000E+03 0.  0.
         21    1    1    2  503  501 -0.33915379018E+02 -0.69439668571E+01  0.17232731141E+03  0.17577023032E+03  0.00000000000E+00 0. -1.
          2    1    1    2  501    0 -0.23257443836E+03  0.83695217571E+02  0.17283852379E+04  0.17459700139E+04  0.00000000000E+00 0. -1.
<mgrwt>
<rscale>  4 0.30419168E+03</rscale>
<asrwt>0</asrwt>
<pdfrwt beam="1">  1       21 0.43728950E-02 0.30419168E+03</pdfrwt>
<pdfrwt beam="2">  1        2 0.49274781E+00 0.30419168E+03</pdfrwt>
<totfact> 0.66471601E+03</totfact>
</mgrwt>
</event>
<event>
 5    0  0.2306346E+000  0.2727653E+03  0.7546771E-02  0.1099707E+00
         21   -1    0    0  501  502  0.00000000000E+00  0.00000000000E+00  0.65799477183E+02  0.65799477183E+02  0.00000000000E+00 0.  1.
         -1   -1    0    0    0  501 -0.00000000000E+00 -0.00000000000E+00 -0.17164319658E+04  0.17164319658E+04  0.00000000000E+00 0.  1.
         25    1    1    2    0    0 -0.44376038481E+02 -0.28462827548E+03 -0.57752309995E+03  0.65737388065E+03  0.12500000000E+03 0.  0.
         21    1    1    2  503  502  0.12458566514E+02  0.58841938325E+02 -0.54927245008E+02  0.81453003809E+02  0.00000000000E+00 0.  1.
         -1    1    1    2    0  503  0.31917471966E+02  0.22578633716E+03 -0.10181821437E+04  0.10434045585E+04  0.00000000000E+00 0.  1.
<mgrwt>
<rscale>  4 0.27276532E+03</rscale>
<asrwt>0</asrwt>
<pdfrwt beam="1">  1       21 0.10122999E-01 0.27276532E+03</pdfrwt>
<pdfrwt beam="2">  1       -1 0.26406639E+00 0.27276532E+03</pdfrwt>
<totfact> 0.47733921E+02</totfact>
</mgrwt>
</event>
<event>
 5    0  0.2306346E+000  0.2932834E+03  0.7546771E-02  0.1088647E+00
          2   -1    0    0  502    0 -0.00000000000E+00  0.00000000000E+00  0.19226240901E+03  0.19226240901E+03  0.00000000000E+00 0. -1.
         21   -1    0    0  503  502  0.00000000000E+00 -0.00000000000E+00 -0.63014900385E+03  0.63014900385E+03  0.00000000000E+00 0.  1.
         25    1    1    2    0    0  0.59490510455E+02  0.28549504050E+03 -0.37162556163E+03  0.48864823446E+03  0.12500000000E+03 0.  0.
         21    1    1    2  503  501 -0.52658768914E+01 -0.33775000615E+02 -0.68171752489E+02  0.76261838185E+02  0.00000000000E+00 0.  1.
          2    1    1    2  501    0 -0.54224633564E+02 -0.25172003988E+03  0.19107192880E+01  0.25750134021E+03  0.00000000000E+00 0. -1.
<mgrwt>
<rscale>  4 0.29328335E+03</rscale>
<asrwt>0</asrwt>
<pdfrwt beam="1">  1       21 0.96946001E-01 0.29328335E+03</pdfrwt>
<pdfrwt beam="2">  1        2 0.29578832E-01 0.29328335E+03</pdfrwt>
<totfact> 0.18676139E+03</totfact>
</mgrwt>
</event>
<event>
 5    0  0.2306346E+000  0.2822924E+03  0.7546771E-02  0.1094443E+00
          4   -1    0    0  502    0 -0.00000000000E+00  0.00000000000E+00  0.13479874421E+04  0.13479874421E+04  0.00000000000E+00 0.  1.
         21   -1    0    0  503  502  0.00000000000E+00 -0.00000000000E+00 -0.24487768982E+03  0.24487768982E+03  0.00000000000E+00 0. -1.
         25    1    1    2    0    0 -0.20099412182E+03 -0.18523248027E+03  0.35490173832E+03  0.46506983628E+03  0.12500000000E+03 0.  0.
         21    1    1    2  503  501  0.22123940805E+02  0.14700412908E+02 -0.17248114228E+03  0.17451451326E+03  0.00000000000E+00 0. -1.
          4    1    1    2  501    0  0.17887018101E+03  0.17053206736E+03  0.92068915621E+03  0.95328078236E+03  0.00000000000E+00 0.  1.
<mgrwt>
<rscale>  4 0.28229244E+03</rscale>
<asrwt>0</asrwt>
<pdfrwt beam="1">  1       21 0.37673492E-01 0.28229244E+03</pdfrwt>
<pdfrwt beam="2">  1        4 0.20738268E+00 0.28229244E+03</pdfrwt>
<totfact> 0.36147619E+01</totfact>
</mgrwt>
</event>
<event>
 5    0  0.2306346E+000  0.3212073E+03  0.7546771E-02  0.1075095E+00
         21   -1    0    0  503  502  0.00000000000E+00  0.00000000000E+00  0.37054844915E+03  0.37054844915E+03  0.00000000000E+00 0.  1.
          1   -1    0    0  502    0 -0.00000000000E+00 -0.00000000000E+00 -0.72360871525E+03  0.72360871525E+03  0.00000000000E+00 0.  1.
         25    1    1    2    0    0 -0.86299852588E+02 -0.32192120819E+03  0.14412978124E+03  0.38403036687E+03  0.12500000000E+03 0.  0.
         21    1    1    2  503  501  0.16866682251E+01  0.43609618520E+02  0.64328043884E+02  0.77735068708E+02  0.00000000000E+00 0.  1.
          1    1    1    2  501    0  0.84613184362E+02  0.27831158967E+03 -0.56151809122E+03  0.63239172882E+03  0.00000000000E+00 0.  1.
<mgrwt>
<rscale>  4 0.32120728E+03</rscale>
<asrwt>0</asrwt>
<pdfrwt beam="1">  1       21 0.57007453E-01 0.32120728E+03</pdfrwt>
<pdfrwt beam="2">  1        1 0.11132442E+00 0.32120728E+03</pdfrwt>
<totfact> 0.81663418E+02</totfact>
</mgrwt>
</event>
<event>
 5    0  0.2306346E+000  0.1970199E+03  0.7546771E-02  0.1152278E+00
         21   -1    0    0  501  502  0.00000000000E+00  0.00000000000E+00  0.32550147639E+03  0.32550147639E+03  0.00000000000E+00 0. -1.
         -1   -1    0    0    0  501 -0.00000000000E+00 -0.00000000000E+00 -0.13526520360E+04  0.13526520360E+04  0.00000000000E+00 0. -1.
         25    1    1    2    0    0 -0.36305383401E+02  0.20169666762E+03 -0.14698424938E+03  0.28147645756E+03  0.12500000000E+03 0.  0.
         21    1    1    2  503  502 -0.16993464078E+02 -0.62864402201E+02  0.24919678995E+03  0.25756504229E+03  0.00000000000E+00 0. -1.
         -1    1    1    2    0  503  0.53298847479E+02 -0.13883226542E+03 -0.11293631002E+04  0.11391120125E+04  0.00000000000E+00 0. -1.
<mgrwt>
<rscale>  4 0.19701995E+03</rscale>
<asrwt>0</asrwt>
<pdfrwt beam="1">  1       21 0.50077150E-01 0.19701995E+03</pdfrwt>
<pdfrwt beam="2">  1       -1 0.20810031E+00 0.19701995E+03</pdfrwt>
<totfact> 0.53279009E+01</totfact>
</mgrwt>
</event>
<event>
 5    0  0.2306346E+000  0.2480159E+03  0.7546771E-02  0.1114565E+00
         21   -1    0    0  503  502  0.00000000000E+00  0.00000000000E+00  0.70657540497E+03  0.70657540497E+03  0.00000000000E+00 0.  1.
          3   -1    0    0  502    0 -0.00000000000E+00 -0.00000000000E+00 -0.19598264536E+03  0.19598264536E+03  0.00000000000E+00 0.  1.
         25    1    1    2    0    0 -0.15005905886E+03  0.17204877730E+03  0.19637708990E+03  0.32604825464E+03  0.12500000000E+03 0.  0.
         21    1    1    2  503  501  0.25286850223E+01 -0.22904443673E+02  0.36086656857E+03  0.36160155987E+03  0.00000000000E+00 0.  1.
          3    1    1    2  501    0  0.14753037384E+03 -0.14914433362E+03 -0.46650898863E+02  0.21490823582E+03  0.00000000000E+00 0.  1.
<mgrwt>
<rscale>  4 0.24801592E+03</rscale>
<asrwt>0</asrwt>
<pdfrwt beam="1">  1       21 0.10870391E+00 0.24801592E+03</pdfrwt>
<pdfrwt beam="2">  1        3 0.30151177E-01 0.24801592E+03</pdfrwt>
<totfact> 0.34734226E+02</totfact>
</mgrwt>
</event>
<event>
 5    0  0.2306346E+000  0.2440937E+03  0.7546771E-02  0.1117095E+00
         21   -1    0    0  503  502  0.00000000000E+00  0.00000000000E+00  0.81473601865E+02  0.81473601865E+02  0.00000000000E+00 0. -1.
          2   -1    0    0  502    0 -0.00000000000E+00 -0.00000000000E+00 -0.71253425694E+03  0.71253425694E+03  0.00000000000E+00 0. -1.
         25    1    1    2    0    0 -0.19221661153E+03 -0.83722858510E+02 -0.40611927843E+03  0.47382972796E+03  0.12500000000E+03 0.  0.
         21    1    1    2  503  501  0.29923775458E+02  0.43727775923E+02 -0.93773128574E+02  0.10770770802E+03  0.00000000000E+00 0. -1.
          2    1    1    2  501    0  0.16229283608E+03  0.39995082586E+02 -0.13116824807E+03  0.21247042282E+03  0.00000000000E+00 0. -1.
<mgrwt>
<rscale>  4 0.24409372E+03</rscale>
<asrwt>0</asrwt>
<pdfrwt beam="1">  1       21 0.12534400E-01 0.24409372E+03</pdfrwt>
<pdfrwt beam="2">  1        2 0.10962066E+00 0.24409372E+03</pdfrwt>
<totfact> 0.27891490E+04</totfact>
</mgrwt>
</event>
<event>
 5    0  0.2306346E+000  0.2664805E+03  0.7546771E-02  0.1103311E+00
         21   -1    0    0  501  502  0.00000000000E+00  0.00000000000E+00  0.60034674961E+03  0.60034674961E+03  0.00000000000E+00 0. -1.
         -1   -1    0    0    0  501 -0.00000000000E+00 -0.00000000000E+00 -0.12978687019E+03  0.12978687019E+03  0.00000000000E+00 0.  1.
         25    1    1    2    0    0  0.65426282061E+02 -0.21893009365E+03  0.30802421746E+03  0.40337935350E+03  0.12500000000E+03 0.  0.
         21    1    1    2  503  502 -0.27872890470E+02 -0.17719618637E+02  0.54919323037E+02  0.64085996525E+02  0.00000000000E+00 0.  1.
         -1    1    1    2    0  503 -0.37553391591E+02  0.23664971229E+03  0.10761633891E+03  0.26266826977E+03  0.00000000000E+00 0.  1.
<mgrwt>
<rscale>  4 0.26648052E+03</rscale>
<asrwt>0</asrwt>
<pdfrwt beam="1">  1       21 0.92361037E-01 0.26648052E+03</pdfrwt>
<pdfrwt beam="2">  1       -1 0.19967211E-01 0.26648052E+03</pdfrwt>
<totfact> 0.17699127E+03</totfact>
</mgrwt>
</event>
<event>
 5    0  0.2306346E+000  0.3481874E+03  0.7546771E-02  0.1063361E+00
         21   -1    0    0  503  502  0.00000000000E+00  0.00000000000E+00  0.73085959103E+03  0.73085959103E+03  0.00000000000E+00 0.  1.
          2   -1    0    0  502    0 -0.00000000000E+00 -0.00000000000E+00 -0.60096651792E+03  0.60096651792E+03  0.00000000000E+00 0.  1.
         25    1    1    2    0    0 -0.29212358448E+03  0.78620792521E+02  0.55728188840E+03  0.64630141634E+03  0.12500000000E+03 0.  0.
         21    1    1    2  503  501 -0.18095611449E+02  0.24192637183E+02  0.78015454277E+02  0.83660898594E+02  0.00000000000E+00 0. -1.
          2    1    1    2  501    0  0.31021919593E+03 -0.10281342970E+03 -0.50540426957E+03  0.60186379402E+03  0.00000000000E+00 0.  1.
<mgrwt>
<rscale>  4 0.34818737E+03</rscale>
<asrwt>0</asrwt>
<pdfrwt beam="1">  1       21 0.11243994E+00 0.34818737E+03</pdfrwt>
<pdfrwt beam="2">  1        2 0.92456388E-01 0.34818737E+03</pdfrwt>
<totfact> 0.36171311E+02</totfact>
</mgrwt>
</event>
<event>
 5    0  0.2306346E+000  0.2992816E+03  0.7546771E-02  0.1085600E+00
         21   -1    0    0  503  502  0.00000000000E+00  0.00000000000E+00  0.18414816430E+03  0.18414816430E+03  0.00000000000E+00 0.  1.
          2   -1    0    0  502    0 -0.00000000000E+00 -0.00000000000E+00 -0.10163277067E+04  0.10163277067E+04  0.00000000000E+00 0.  1.
         25    1    1    2    0    0  0.40175165645E+01  0.30238168892E+03 -0.45119700039E+02  0.33032047101E+03  0.12500000000E+03 0.  0.
         21    1    1    2  503  501 -0.95954006996E+02 -0.12575088832E+03 -0.23495200622E+03  0.28323647823E+03  0.00000000000E+00 0. -1.
          2    1    1    2  501    0  0.91936490432E+02 -0.17663080060E+03 -0.55210783617E+03  0.58691892178E+03  0.00000000000E+00 0.  1.
<mgrwt>
<rscale>  4 0.29928159E+03</rscale>
<asrwt>0</asrwt>
<pdfrwt beam="1">  1       21 0.28330487E-01 0.29928159E+03</pdfrwt>
<pdfrwt beam="2">  1        2 0.15635811E+00 0.29928159E+03</pdfrwt>
<totfact> 0.37431774E+03</totfact>
</mgrwt>
</event>
<event>
 5    0  0.2306346E+000  0.2171721E+03  0.7546771E-02  0.1136009E+00
         21   -1    0    0  503  502  0.00000000000E+00  0.00000000000E+00  0.58546924070E+03  0.58546924070E+03  0.00000000000E+00 0.  1.
          2   -1    0    0  502    0 -0.00000000000E+00 -0.00000000000E+00 -0.11070028997E+04  0.11070028997E+04  0.00000000000E+00 0. -1.
         25    1    1    2    0    0 -0.19540665023E+03 -0.81127605390E+02  0.89310118736E+02  0.26147035132E+03  0.12500000000E+03 0.  0.
         21    1    1    2  503  501  0.22054981828E+02  0.48985305217E+02  0.40066115133E+03  0.40424663330E+03  0.00000000000E+00 0.  1.
          2    1    1    2  501    0  0.17335166840E+03  0.32142300174E+02 -0.10115049291E+04  0.10267551558E+04  0.00000000000E+00 0. -1.
<mgrwt>
<rscale>  4 0.21717210E+03</rscale>
<asrwt>0</asrwt>
<pdfrwt beam="1">  1       21 0.90072191E-01 0.21717210E+03</pdfrwt>
<pdfrwt beam="2">  1        2 0.17030814E+00 0.21717210E+03</pdfrwt>
<totfact> 0.29710974E+02</totfact>
</mgrwt>
</event>
<event>
 5    0  0.2306346E+000  0.2995284E+03  0.7546771E-02  0.1085477E+00
          1   -1    0    0  502    0 -0.00000000000E+00  0.00000000000E+00  0.10525965338E+03  0.10525965338E+03  0.00000000000E+00 0. -1.
         21   -1    0    0  503  502  0.00000000000E+00 -0.00000000000E+00 -0.10115562964E+04  0.10115562964E+04  0.00000000000E+00 0. -1.
         25    1    1    2    0    0 -0.12554026048E+03 -0.22360563735E+03 -0.61599772398E+03  0.67885052405E+03  0.12500000000E+03 0.  0.
         21    1    1    2  503  501 -0.24741496569E+02 -0.11362249989E+02 -0.91466331486E+02  0.95432343431E+02  0.00000000000E+00 0.  1.
          1    1    1    2  501    0  0.15028175705E+03  0.23496788734E+03 -0.19883258754E+03  0.34253308228E+03  0.00000000000E+00 0. -1.
<mgrwt>
<rscale>  4 0.29952839E+03</rscale>
<asrwt>0</asrwt>
<pdfrwt beam="1">  1       21 0.15562405E+00 0.29952839E+03</pdfrwt>
<pdfrwt beam="2">  1        1 0.16193792E-01 0.29952839E+03</pdfrwt>
<totfact> 0.93217463E+02</totfact>
</mgrwt>
</event>
<event>
 5    0  0.2306346E+000  0.3044573E+03  0.7546771E-02  0.1083033E+00
         21   -1    0    0  503  502  0.00000000000E+00  0.00000000000E+00  0.24183501015E+03  0.24183501015E+03  0.00000000000E+00 0.  1.
          2   -1    0    0  502    0 -0.00000000000E+00 -0.00000000000E+00 -0.60556347881E+03  0.60556347881E+03  0.00000000000E+00 0.  1.
         25    1    1    2    0    0 -0.14620821575E+03  0.19248757666E+03  0.71535302658E+02  0.28137272265E+03  0.12500000000E+03 0.  0.
         21    1    1    2  503  501 -0.31890655312E+02  0.31731911685E+02  0.36882287040E-01  0.44988103713E+02  0.00000000000E+00 0.  1.
          2    1    1    2  501    0  0.17809887106E+03 -0.22421948835E+03 -0.43530065360E+03  0.52103766260E+03  0.00000000000E+00 0.  1.
<mgrwt>
<rscale>  4 0.30445735E+03</rscale>
<asrwt>0</asrwt>
<pdfrwt beam="1">  1       21 0.37205387E-01 0.30445735E+03</pdfrwt>
<pdfrwt beam="2">  1        2 0.93163611E-01 0.30445735E+03</pdfrwt>
<totfact> 0.42281421E+03</totfact>
</mgrwt>
</event>
<event>
 5    0  0.2306346E+000  0.2374733E+03  0.7546771E-02  0.1121488E+00
         21   -1    0    0  503  502  0.00000000000E+00  0.00000000000E+00  0.31306709418E+03  0.31306709418E+03  0.00000000000E+00 0.  1.
          2   -1    0    0  502    0 -0.00000000000E+00 -0.00000000000E+00 -0.56989041044E+03  0.56989041044E+03  0.00000000000E+00 0.  1.
         25    1    1    2    0    0 -0.17245587783E+03 -0.14190611783E+03  0.15160395433E+03  0.29746787229E+03  0.12500000000E+03 0.  0.
         21    1    1    2  503  501  0.15367496209E+03  0.87638072243E+02 -0.39457636875E+01  0.17695195599E+03  0.00000000000E+00 0.  1.
          2    1    1    2  501    0  0.18780915742E+02  0.54268045584E+02 -0.40448150690E+03  0.40853767634E+03  0.00000000000E+00 0.  1.
<mgrwt>
<rscale>  4 0.23747332E+03</rscale>
<asrwt>0</asrwt>
<pdfrwt beam="1">  1       21 0.48164169E-01 0.23747332E+03</pdfrwt>
<pdfrwt beam="2">  1        2 0.87675447E-01 0.23747332E+03</pdfrwt>
<totfact> 0.27232159E+03</totfact>
</mgrwt>
</event>
<event>
 5    0  0.2306346E+000  0.2516280E+03  0.7546771E-02  0.1112280E+00
          2   -1    0    0  502    0 -0.00000000000E+00  0.00000000000E+00  0.40224510480E+03  0.40224510480E+03  0.00000000000E+00 0.  1.
         21   -1    0    0  503  502  0.00000000000E+00 -0.00000000000E+00 -0.19911032790E+03  0.19911032790E+03  0.00000000000E+00 0.  1.
         25    1    1    2    0    0 -0.23754405458E+03  0.17666933800E+02 -0.24268774866E+01  0.26901707781E+03  0.12500000000E+03 0.  0.
         21    1    1    2  503  501  0.25486467866E+02 -0.12890503584E+02 -0.96696515182E+01  0.30153395951E+02  0.00000000000E+00 0.  1.
          2    1    1    2  501    0  0.21205758672E+03 -0.47764302162E+01  0.21523130590E+03  0.30218495894E+03  0.00000000000E+00 0.  1.
<mgrwt>
<rscale>  4 0.25162796E+03</rscale>
<asrwt>0</asrwt>
<pdfrwt beam="1">  1       21 0.30632358E-01 0.25162796E+03</pdfrwt>
<pdfrwt beam="2">  1        2 0.61883862E-01 0.25162796E+03</pdfrwt>
<totfact> 0.99938899E+03</totfact>
</mgrwt>
</event>
<event>
 5    0  0.2306346E+000  0.3311448E+03  0.7546771E-02  0.1070631E+00
          2   -1    0    0  502    0 -0.00000000000E+00  0.00000000000E+00  0.98765752602E+02  0.98765752602E+02  0.00000000000E+00 0.  1.
         21   -1    0    0  503  502  0.00000000000E+00 -0.00000000000E+00 -0.11197266800E+04  0.11197266800E+04  0.00000000000E+00 0.  1.
         25    1    1    2    0    0 -0.29058770999E+03 -0.52240334462E+02 -0.52200531465E+03  0.61260494470E+03  0.12500000000E+03 0.  0.
         21    1    1    2  503  501 -0.22422444744E+02 -0.10038685817E+02 -0.34717216046E+02  0.42530298979E+02  0.00000000000E+00 0.  1.
          2    1    1    2  501    0  0.31301015474E+03  0.62279020279E+02 -0.46423839667E+03  0.56335718889E+03  0.00000000000E+00 0.  1.
<mgrwt>
<rscale>  4 0.33114482E+03</rscale>
<asrwt>0</asrwt>
<pdfrwt beam="1">  1       21 0.17226563E+00 0.33114482E+03</pdfrwt>
<pdfrwt beam="2">  1        2 0.15194732E-01 0.33114482E+03</pdfrwt>
<totfact> 0.90199588E+02</totfact>
</mgrwt>
</event>
<event>
 5    0  0.2630513E+000  0.3597919E+03  0.7546771E-02  0.1058666E+00
          1   -1    0    0  502    0 -0.00000000000E+00  0.00000000000E+00  0.76464411857E+03  0.76464411857E+03  0.00000000000E+00 0.  1.
         21   -1    0    0  503  502  0.00000000000E+00 -0.00000000000E+00 -0.43806515867E+03  0.43806515867E+03  0.00000000000E+00 0. -1.
         25    1    1    2    0    0  0.32434814948E+03  0.14581152725E+03 -0.27401866804E+03  0.46601926354E+03  0.12500000000E+03 0.  0.
         21    1    1    2  503  501 -0.13051149464E+02 -0.21175605638E+02 -0.19585892807E+02  0.31659847971E+02  0.00000000000E+00 0.  1.
          1    1    1    2  501    0 -0.31129700002E+03 -0.12463592162E+03  0.62018352074E+03  0.70503016572E+03  0.00000000000E+00 0.  1.
<mgrwt>
<rscale>  4 0.35979189E+03</rscale>
<asrwt>0</asrwt>
<pdfrwt beam="1">  1       21 0.67394640E-01 0.35979189E+03</pdfrwt>
<pdfrwt beam="2">  1        1 0.11763756E+00 0.35979189E+03</pdfrwt>
<totfact> 0.51393732E+02</totfact>
</mgrwt>
</event>
<event>
 5    0  0.2306346E+000  0.2529000E+03  0.7546771E-02  0.1111486E+00
          1   -1    0    0  502    0 -0.00000000000E+00  0.00000000000E+00  0.31137333286E+03  0.31137333286E+03  0.00000000000E+00 0.  1.
         21   -1    0    0  503  502  0.00000000000E+00 -0.00000000000E+00 -0.36500781770E+03  0.36500781770E+03  0.00000000000E+00 0. -1.
         25    1    1    2    0    0  0.13245070104E+03  0.18512152297E+03 -0.19241034985E+03  0.32320258229E+03  0.12500000000E+03 0.  0.
         21    1    1    2  503  501  0.45273540090E+02 -0.55122258427E+02 -0.28333731648E+02  0.76752571002E+02  0.00000000000E+00 0. -1.
          1    1    1    2  501    0 -0.17772424113E+03 -0.12999926454E+03  0.16710959665E+03  0.27642599726E+03  0.00000000000E+00 0.  1.
<mgrwt>
<rscale>  4 0.25290001E+03</rscale>
<asrwt>0</asrwt>
<pdfrwt beam="1">  1       21 0.56155049E-01 0.25290001E+03</pdfrwt>
<pdfrwt beam="2">  1        1 0.47903590E-01 0.25290001E+03</pdfrwt>
<totfact> 0.26733707E+03</totfact>
</mgrwt>
</event>
<event>
 5    0  0.2306346E+000  0.2697469E+03  0.7546771E-02  0.1101425E+00
         21   -1    0    0  503  502  0.00000000000E+00  0.00000000000E+00  0.11366003061E+03  0.11366003061E+03  0.00000000000E+00 0.  1.
          2   -1    0    0  502    0 -0.00000000000E+00 -0.00000000000E+00 -0.23377951239E+04  0.23377951239E+04  0.00000000000E+00 0.  1.
         25    1    1    2    0    0  0.27364062295E+03 -0.44071661643E+02 -0.21036150517E+03  0.36972755475E+03  0.12500000000E+03 0.  0.
         21    1    1    2  503  501 -0.64630536470E+02 -0.67315443973E+02 -0.54248213387E+02  0.10794139103E+03  0.00000000000E+00 0.  1.
          2    1    1    2  501    0 -0.20901008648E+03  0.11138710562E+03 -0.19595253747E+04  0.19737862087E+04  0.00000000000E+00 0.  1.
<mgrwt>
<rscale>  4 0.26974687E+03</rscale>
<asrwt>0</asrwt>
<pdfrwt beam="1">  1       21 0.17486158E-01 0.26974687E+03</pdfrwt>
<pdfrwt beam="2">  1        2 0.35966079E+00 0.26974687E+03</pdfrwt>
<totfact> 0.18163039E+03</totfact>
</mgrwt>
</event>
<event>
 5    0  0.2306346E+000  0.2664449E+03  0.7546771E-02  0.1103332E+00
         21   -1    0    0  503  502  0.00000000000E+00  0.00000000000E+00  0.39794318997E+03  0.39794318997E+03  0.00000000000E+00 0. -1.
          2   -1    0    0  502    0 -0.00000000000E+00 -0.00000000000E+00 -0.55197293855E+03  0.55197293855E+03  0.00000000000E+00 0.  1.
         25    1    1    2    0    0  0.25194622622E+03  0.25991582337E+02  0.28988760012E+03  0.40473730241E+03  0.12500000000E+03 0.  0.
         21    1    1    2  503  501 -0.18292407792E+02 -0.15585060341E+02  0.16232692604E+02  0.29000113755E+02  0.00000000000E+00 0. -1.
          2    1    1    2  501    0 -0.23365381843E+03 -0.10406521996E+02 -0.46015004131E+03  0.51617871235E+03  0.00000000000E+00 0.  1.
<mgrwt>
<rscale>  4 0.26644486E+03</rscale>
<asrwt>0</asrwt>
<pdfrwt beam="1">  1       21 0.61222029E-01 0.26644486E+03</pdfrwt>
<pdfrwt beam="2">  1        2 0.84918913E-01 0.26644486E+03</pdfrwt>
<totfact> 0.16787334E+03</totfact>
</mgrwt>
</event>
<event>
 5    0  0.2306346E+000  0.2627481E+03  0.7546771E-02  0.1105503E+00
          1   -1    0    0  502    0 -0.00000000000E+00  0.00000000000E+00  0.23252683355E+04  0.23252683355E+04  0.00000000000E+00 0. -1.
         21   -1    0    0  503  502  0.00000000000E+00 -0.00000000000E+00 -0.34805698994E+02  0.34805698994E+02  0.00000000000E+00 0. -1.
         25    1    1    2    0    0  0.23825059799E+03  0.48646827091E+02  0.11199025936E+04  0.11527951598E+04  0.12500000000E+03 0.  0.
         21    1    1    2  503  501 -0.22436371147E+03 -0.98319488169E+01  0.70520022164E+03  0.74009667938E+03  0.00000000000E+00 0. -1.
          1    1    1    2  501    0 -0.13886886524E+02 -0.38814878274E+02  0.46535982130E+03  0.46718219537E+03  0.00000000000E+00 0. -1.
<mgrwt>
<rscale>  4 0.26274815E+03</rscale>
<asrwt>0</asrwt>
<pdfrwt beam="1">  1       21 0.53547248E-02 0.26274815E+03</pdfrwt>
<pdfrwt beam="2">  1        1 0.35773347E+00 0.26274815E+03</pdfrwt>
<totfact> 0.55353253E+03</totfact>
</mgrwt>
</event>
<event>
 5    0  0.2306346E+000  0.2194470E+03  0.7546771E-02  0.1134296E+00
         21   -1    0    0  503  502  0.00000000000E+00  0.00000000000E+00  0.13299058495E+03  0.13299058495E+03  0.00000000000E+00 0. -1.
          1   -1    0    0  502    0 -0.00000000000E+00 -0.00000000000E+00 -0.67498864296E+03  0.67498864296E+03  0.00000000000E+00 0. -1.
         25    1    1    2    0    0  0.17066257571E+03  0.15274459544E+03 -0.18469367903E+03  0.31967699520E+03  0.12500000000E+03 0.  0.
         21    1    1    2  503  501 -0.23135985095E+02 -0.71346062065E+02  0.17805342455E+02  0.77088031486E+02  0.00000000000E+00 0. -1.
          1    1    1    2  501    0 -0.14752659061E+03 -0.81398533374E+02 -0.37510972144E+03  0.41121420123E+03  0.00000000000E+00 0. -1.
<mgrwt>
<rscale>  4 0.21944699E+03</rscale>
<asrwt>0</asrwt>
<pdfrwt beam="1">  1       21 0.20460090E-01 0.21944699E+03</pdfrwt>
<pdfrwt beam="2">  1        1 0.10384441E+00 0.21944699E+03</pdfrwt>
<totfact> 0.72634381E+03</totfact>
</mgrwt>
</event>
<event>
 5    0  0.2306346E+000  0.2359597E+03  0.7546771E-02  0.1122514E+00
         21   -1    0    0  503  502  0.00000000000E+00  0.00000000000E+00  0.26076080917E+03  0.26076080917E+03  0.00000000000E+00 0. -1.
          2   -1    0    0  502    0 -0.00000000000E+00 -0.00000000000E+00 -0.15459565060E+04  0.15459565060E+04  0.00000000000E+00 0.  1.
         25    1    1    2    0    0 -0.57657136812E+02 -0.24054894145E+03 -0.81730582631E+03  0.86301909155E+03  0.12500000000E+03 0.  0.
         21    1    1    2  503  501  0.26993867412E+02  0.66105204533E+02  0.22108052803E+03  0.23232556212E+03  0.00000000000E+00 0. -1.
          2    1    1    2  501    0  0.30663269400E+02  0.17444373692E+03 -0.68897039858E+03  0.71137266152E+03  0.00000000000E+00 0.  1.
<mgrwt>
<rscale>  4 0.23595973E+03</rscale>
<asrwt>0</asrwt>
<pdfrwt beam="1">  1       21 0.40117048E-01 0.23595973E+03</pdfrwt>
<pdfrwt beam="2">  1        2 0.23783946E+00 0.23595973E+03</pdfrwt>
<totfact> 0.96786477E+02</totfact>
</mgrwt>
</event>
<event>
 5    0  0.2306346E+000  0.4540278E+03  0.7546771E-02  0.1026528E+00
         -2   -1    0    0    0  501 -0.00000000000E+00  0.00000000000E+00  0.89053956505E+03  0.89053956505E+03  0.00000000000E+00 0.  1.
         21   -1    0    0  501  502  0.00000000000E+00 -0.00000000000E+00 -0.71280166202E+03  0.71280166202E+03  0.00000000000E+00 0.  1.
         25    1    1    2    0    0 -0.42374935246E+03 -0.30006196502E+03 -0.41368693387E+03  0.67554613152E+03  0.12500000000E+03 0.  0.
         21    1    1    2  503  502  0.65687948902E+02  0.67161378300E+02 -0.85726897511E+02  0.12717963014E+03  0.00000000000E+00 0. -1.
         -2    1    1    2    0  503  0.35806140355E+03  0.23290058672E+03  0.67715173442E+03  0.80061546540E+03  0.00000000000E+00 0.  1.
<mgrwt>
<rscale>  4 0.45402785E+03</rscale>
<asrwt>0</asrwt>
<pdfrwt beam="1">  1       21 0.10966179E+00 0.45402785E+03</pdfrwt>
<pdfrwt beam="2">  1       -2 0.13700609E+00 0.45402785E+03</pdfrwt>
<totfact> 0.19037962E+01</totfact>
</mgrwt>
</event>
<event>
 5    0  0.2306346E+000  0.3995067E+03  0.7546771E-02  0.1043951E+00
          1   -1    0    0  502    0 -0.00000000000E+00  0.00000000000E+00  0.58826904501E+03  0.58826904501E+03  0.00000000000E+00 0.  1.
         21   -1    0    0  503  502  0.00000000000E+00 -0.00000000000E+00 -0.78775783550E+03  0.78775783550E+03  0.00000000000E+00 0.  1.
         25    1    1    2    0    0 -0.91627560188E+02 -0.36597872467E+03 -0.63435727407E+03  0.74857877866E+03  0.12500000000E+03 0.  0.
         21    1    1    2  503  501  0.21500838216E+02 -0.27708592481E+02 -0.20851735240E+01  0.35134030367E+02  0.00000000000E+00 0. -1.
          1    1    1    2  501    0  0.70126721972E+02  0.39368731715E+03  0.43695365711E+03  0.59231407149E+03  0.00000000000E+00 0.  1.
<mgrwt>
<rscale>  4 0.39950673E+03</rscale>
<asrwt>0</asrwt>
<pdfrwt beam="1">  1       21 0.12119351E+00 0.39950673E+03</pdfrwt>
<pdfrwt beam="2">  1        1 0.90502930E-01 0.39950673E+03</pdfrwt>
<totfact> 0.18536246E+02</totfact>
</mgrwt>
</event>
<event>
 5    0  0.2306346E+000  0.2767823E+03  0.7546771E-02  0.1097459E+00
         21   -1    0    0  503  502  0.00000000000E+00  0.00000000000E+00  0.10926941181E+03  0.10926941181E+03  0.00000000000E+00 0. -1.
          2   -1    0    0  502    0 -0.00000000000E+00 -0.00000000000E+00 -0.20355762253E+04  0.20355762253E+04  0.00000000000E+00 0. -1.
         25    1    1    2    0    0 -0.31144356654E+02 -0.22696078715E+03 -0.95737104665E+02  0.27797799026E+03  0.12500000000E+03 0.  0.
         21    1    1    2  503  501 -0.33138474647E+02 -0.13362955026E+02 -0.23527273546E+02  0.42781534211E+02  0.00000000000E+00 0. -1.
          2    1    1    2  501    0  0.64282831301E+02  0.24032374218E+03 -0.18070424353E+04  0.18240861126E+04  0.00000000000E+00 0. -1.
<mgrwt>
<rscale>  4 0.27678229E+03</rscale>
<asrwt>0</asrwt>
<pdfrwt beam="1">  1       21 0.16810679E-01 0.27678229E+03</pdfrwt>
<pdfrwt beam="2">  1        2 0.31316557E+00 0.27678229E+03</pdfrwt>
<totfact> 0.28211169E+03</totfact>
</mgrwt>
</event>
<event>
 5    0  0.2306346E+000  0.3842606E+03  0.7546771E-02  0.1049370E+00
          1   -1    0    0  502    0 -0.00000000000E+00  0.00000000000E+00  0.23968492051E+04  0.23968492051E+04  0.00000000000E+00 0.  1.
         21   -1    0    0  503  502  0.00000000000E+00 -0.00000000000E+00 -0.20471702909E+03  0.20471702909E+03  0.00000000000E+00 0.  1.
         25    1    1    2    0    0 -0.33789348371E+03 -0.16527148940E+03  0.46028497066E+02  0.39903670769E+03  0.12500000000E+03 0.  0.
         21    1    1    2  503  501  0.27550555413E+03  0.14719212915E+03  0.86311730531E+03  0.91789994878E+03  0.00000000000E+00 0.  1.
          1    1    1    2  501    0  0.62387929583E+02  0.18079360252E+02  0.12829863736E+04  0.12846295777E+04  0.00000000000E+00 0.  1.
<mgrwt>
<rscale>  4 0.38426059E+03</rscale>
<asrwt>0</asrwt>
<pdfrwt beam="1">  1       21 0.31494929E-01 0.38426059E+03</pdfrwt>
<pdfrwt beam="2">  1        1 0.36874601E+00 0.38426059E+03</pdfrwt>
<totfact> 0.18434201E+02</totfact>
</mgrwt>
</event>
<event>
 5    0  0.2306346E+000  0.3890174E+03  0.7546771E-02  0.1047650E+00
         21   -1    0    0  503  502  0.00000000000E+00  0.00000000000E+00  0.36312822164E+03  0.36312822164E+03  0.00000000000E+00 0.  1.
          2   -1    0    0  502    0 -0.00000000000E+00 -0.00000000000E+00 -0.11478188378E+04  0.11478188378E+04  0.00000000000E+00 0. -1.
         25    1    1    2    0    0 -0.60169327638E+02 -0.34760438016E+03  0.11161855730E+03  0.39055454859E+03  0.12500000000E+03 0.  0.
         21    1    1    2  503  501  0.15926573718E+02 -0.20311158172E+02  0.75786504031E+02  0.80061183415E+02  0.00000000000E+00 0.  1.
          2    1    1    2  501    0  0.44242753920E+02  0.36791553833E+03 -0.97209567746E+03  0.10403313274E+04  0.00000000000E+00 0. -1.
<mgrwt>
<rscale>  4 0.38901736E+03</rscale>
<asrwt>0</asrwt>
<pdfrwt beam="1">  1       21 0.55865881E-01 0.38901736E+03</pdfrwt>
<pdfrwt beam="2">  1        2 0.17658751E+00 0.38901736E+03</pdfrwt>
<totfact> 0.75528452E+02</totfact>
</mgrwt>
</event>
<event>
 5    0  0.2306346E+000  0.2212464E+03  0.7546771E-02  0.1132957E+00
         -2   -1    0    0    0  501 -0.00000000000E+00  0.00000000000E+00  0.13640868769E+04  0.13640868769E+04  0.00000000000E+00 0. -1.
         21   -1    0    0  501  502  0.00000000000E+00 -0.00000000000E+00 -0.31833916507E+03  0.31833916507E+03  0.00000000000E+00 0. -1.
         25    1    1    2    0    0  0.25002693479E+03 -0.14438595407E+03 -0.13909646886E+03  0.34399651088E+03  0.12500000000E+03 0.  0.
         21    1    1    2  503  502 -0.15167108222E+03 -0.68164868588E+01  0.12552819920E+02  0.15234222975E+03  0.00000000000E+00 0. -1.
         -2    1    1    2    0  503 -0.98355852564E+02  0.15120244093E+03  0.11722913607E+04  0.11860873013E+04  0.00000000000E+00 0. -1.
<mgrwt>
<rscale>  4 0.22124638E+03</rscale>
<asrwt>0</asrwt>
<pdfrwt beam="1">  1       21 0.48975257E-01 0.22124638E+03</pdfrwt>
<pdfrwt beam="2">  1       -2 0.20985952E+00 0.22124638E+03</pdfrwt>
<totfact> 0.40675383E+01</totfact>
</mgrwt>
</event>
<event>
 5    0  0.6128330E+000  0.2834660E+03  0.7546771E-02  0.1093811E+00
         21   -1    0    0  503  502  0.00000000000E+00  0.00000000000E+00  0.55113985799E+03  0.55113985799E+03  0.00000000000E+00 0.  1.
          2   -1    0    0  502    0 -0.00000000000E+00 -0.00000000000E+00 -0.10092924923E+04  0.10092924923E+04  0.00000000000E+00 0. -1.
         25    1    1    2    0    0 -0.13032218755E+03 -0.21910775864E+03  0.48640774341E+03  0.56321361429E+03  0.12500000000E+03 0.  0.
         21    1    1    2  503  501  0.30130046363E+02 -0.23334882522E+01 -0.10404330134E+02  0.31961147457E+02  0.00000000000E+00 0. -1.
          2    1    1    2  501    0  0.10019214119E+03  0.22144124689E+03 -0.93415604756E+03  0.96525758851E+03  0.00000000000E+00 0. -1.
<mgrwt>
<rscale>  4 0.28346603E+03</rscale>
<asrwt>0</asrwt>
<pdfrwt beam="1">  1       21 0.84790748E-01 0.28346603E+03</pdfrwt>
<pdfrwt beam="2">  1        2 0.15527577E+00 0.28346603E+03</pdfrwt>
<totfact> 0.37587741E+02</totfact>
</mgrwt>
</event>
<event>
 5    0  0.2306346E+000  0.1695202E+03  0.7546771E-02  0.1178349E+00
         21   -1    0    0  503  502  0.00000000000E+00  0.00000000000E+00  0.68266867037E+03  0.68266867037E+03  0.00000000000E+00 0. -1.
          3   -1    0    0  502    0 -0.00000000000E+00 -0.00000000000E+00 -0.29475184186E+03  0.29475184186E+03  0.00000000000E+00 0. -1.
         25    1    1    2    0    0  0.10410745673E+03  0.17299669016E+03  0.46349040109E+03  0.52078265069E+03  0.12500000000E+03 0.  0.
         21    1    1    2  503  501 -0.32192717400E+02 -0.86666894460E+02  0.16611427073E+03  0.19010910706E+03  0.00000000000E+00 0. -1.
          3    1    1    2  501    0 -0.71914739331E+02 -0.86329795704E+02 -0.24168784330E+03  0.26652875447E+03  0.00000000000E+00 0. -1.
<mgrwt>
<rscale>  4 0.16952016E+03</rscale>
<asrwt>0</asrwt>
<pdfrwt beam="1">  1       21 0.10502595E+00 0.16952016E+03</pdfrwt>
<pdfrwt beam="2">  1        3 0.45346437E-01 0.16952016E+03</pdfrwt>
<totfact> 0.17648667E+02</totfact>
</mgrwt>
</event>
<event>
 5    0  0.2306346E+000  0.2671013E+03  0.7546771E-02  0.1102950E+00
          2   -1    0    0  502    0 -0.00000000000E+00  0.00000000000E+00  0.20026035413E+04  0.20026035413E+04  0.00000000000E+00 0.  1.
         21   -1    0    0  503  502  0.00000000000E+00 -0.00000000000E+00 -0.10654212290E+03  0.10654212290E+03  0.00000000000E+00 0. -1.
         25    1    1    2    0    0  0.18955277614E+01 -0.26103091046E+03  0.18121549826E+03  0.34147442957E+03  0.12500000000E+03 0.  0.
         21    1    1    2  503  501  0.30345477944E+02  0.29499371084E+02  0.58052618365E+01  0.42717232951E+02  0.00000000000E+00 0. -1.
          2    1    1    2  501    0 -0.32241005706E+02  0.23153153938E+03  0.17090406583E+04  0.17249540017E+04  0.00000000000E+00 0.  1.
<mgrwt>
<rscale>  4 0.26710128E+03</rscale>
<asrwt>0</asrwt>
<pdfrwt beam="1">  1       21 0.16391097E-01 0.26710128E+03</pdfrwt>
<pdfrwt beam="2">  1        2 0.30809282E+00 0.26710128E+03</pdfrwt>
<totfact> 0.30893792E+03</totfact>
</mgrwt>
</event>
<event>
 5    0  0.2306346E+000  0.4666597E+03  0.7546771E-02  0.1022867E+00
          2   -1    0    0  502    0 -0.00000000000E+00  0.00000000000E+00  0.29672271818E+04  0.29672271818E+04  0.00000000000E+00 0.  1.
         21   -1    0    0  503  502  0.00000000000E+00 -0.00000000000E+00 -0.21909674175E+03  0.21909674175E+03  0.00000000000E+00 0.  1.
         25    1    1    2    0    0  0.13257317135E+03 -0.34058450111E+03  0.24112865770E+03  0.45534764491E+03  0.12500000000E+03 0.  0.
         21    1    1    2  503  501  0.89464633776E+02 -0.69845982880E+02 -0.55492384780E+02  0.12633996513E+03  0.00000000000E+00 0.  1.
          2    1    1    2  501    0 -0.22203780512E+03  0.41043048399E+03  0.25624941672E+04  0.26046363136E+04  0.00000000000E+00 0.  1.
<mgrwt>
<rscale>  4 0.46665974E+03</rscale>
<asrwt>0</asrwt>
<pdfrwt beam="1">  1       21 0.33707193E-01 0.46665974E+03</pdfrwt>
<pdfrwt beam="2">  1        2 0.45649646E+00 0.46665974E+03</pdfrwt>
<totfact> 0.20652264E+02</totfact>
</mgrwt>
</event>
<event>
 5    0  0.2306346E+000  0.2453958E+03  0.7546771E-02  0.1116250E+00
         21   -1    0    0  503  502  0.00000000000E+00  0.00000000000E+00  0.61136019263E+02  0.61136019263E+02  0.00000000000E+00 0. -1.
          2   -1    0    0  502    0 -0.00000000000E+00 -0.00000000000E+00 -0.20464217032E+04  0.20464217032E+04  0.00000000000E+00 0. -1.
         25    1    1    2    0    0 -0.14486665707E+03  0.13884952460E+03 -0.52412116336E+03  0.57497263647E+03  0.12500000000E+03 0.  0.
         21    1    1    2  503  501  0.31227975377E+01  0.22184866977E+02  0.23519289803E+02  0.32481951605E+02  0.00000000000E+00 0. -1.
          2    1    1    2  501    0  0.14174385953E+03 -0.16103439158E+03 -0.14846838104E+04  0.15001031344E+04  0.00000000000E+00 0. -1.
<mgrwt>
<rscale>  4 0.24539580E+03</rscale>
<asrwt>0</asrwt>
<pdfrwt beam="1">  1       21 0.94055432E-02 0.24539580E+03</pdfrwt>
<pdfrwt beam="2">  1        2 0.31483405E+00 0.24539580E+03</pdfrwt>
<totfact> 0.80607259E+03</totfact>
</mgrwt>
</event>
<event>
 5    0  0.2306346E+000  0.2534780E+03  0.7546771E-02  0.1111126E+00
          3   -1    0    0  502    0 -0.00000000000E+00  0.00000000000E+00  0.88041789748E+03  0.88041789748E+03  0.00000000000E+00 0.  1.
         21   -1    0    0  503  502  0.00000000000E+00 -0.00000000000E+00 -0.15225282182E+03  0.15225282182E+03  0.00000000000E+00 0. -1.
         25    1    1    2    0    0  0.17457566918E+03 -0.15472083358E+03  0.39744119851E+03  0.47749314852E+03  0.12500000000E+03 0.  0.
         21    1    1    2  503  501 -0.22335897997E+02  0.65238078858E+01 -0.85098208575E+02  0.88222205319E+02  0.00000000000E+00 0. -1.
          3    1    1    2  501    0 -0.15223977119E+03  0.14819702569E+03  0.41582208573E+03  0.46695536546E+03  0.00000000000E+00 0.  1.
<mgrwt>
<rscale>  4 0.25347795E+03</rscale>
<asrwt>0</asrwt>
<pdfrwt beam="1">  1       21 0.23423512E-01 0.25347795E+03</pdfrwt>
<pdfrwt beam="2">  1        3 0.13544890E+00 0.25347795E+03</pdfrwt>
<totfact> 0.37128576E+02</totfact>
</mgrwt>
</event>
<event>
 5    0  0.2306346E+000  0.2262363E+03  0.7546771E-02  0.1129317E+00
         21   -1    0    0  503  502  0.00000000000E+00  0.00000000000E+00  0.15423027065E+03  0.15423027065E+03  0.00000000000E+00 0. -1.
          1   -1    0    0  502    0 -0.00000000000E+00 -0.00000000000E+00 -0.10715254162E+04  0.10715254162E+04  0.00000000000E+00 0. -1.
         25    1    1    2    0    0 -0.46047167684E+02 -0.22532020297E+03 -0.86406630569E+03  0.90284279703E+03  0.12500000000E+03 0.  0.
         21    1    1    2  503  501 -0.17820225961E+02  0.10822131193E+03  0.78943056297E+02  0.13513481767E+03  0.00000000000E+00 0. -1.
          1    1    1    2  501    0  0.63867393644E+02  0.11709889104E+03 -0.13217189619E+03  0.18777807219E+03  0.00000000000E+00 0. -1.
<mgrwt>
<rscale>  4 0.22623634E+03</rscale>
<asrwt>0</asrwt>
<pdfrwt beam="1">  1       21 0.23727734E-01 0.22623634E+03</pdfrwt>
<pdfrwt beam="2">  1        1 0.16485006E+00 0.22623634E+03</pdfrwt>
<totfact> 0.26267048E+03</totfact>
</mgrwt>
</event>
<event>
 5    0  0.2306346E+000  0.2635456E+03  0.7546771E-02  0.1105031E+00
          1   -1    0    0  502    0 -0.00000000000E+00  0.00000000000E+00  0.21688659863E+04  0.21688659863E+04  0.00000000000E+00 0. -1.
         21   -1    0    0  503  502  0.00000000000E+00 -0.00000000000E+00 -0.44105845988E+02  0.44105845988E+02  0.00000000000E+00 0.  1.
         25    1    1    2    0    0  0.42302368592E+02 -0.21929659240E+03  0.49881062797E+03  0.56064028432E+03  0.12500000000E+03 0.  0.
         21    1    1    2  503  501  0.17290620410E+02 -0.30450686114E+02  0.13689829255E+03  0.14130588219E+03  0.00000000000E+00 0.  1.
          1    1    1    2  501    0 -0.59592989002E+02  0.24974727852E+03  0.14890512197E+04  0.15110256657E+04  0.00000000000E+00 0. -1.
<mgrwt>
<rscale>  4 0.26354558E+03</rscale>
<asrwt>0</asrwt>
<pdfrwt beam="1">  1       21 0.67855164E-02 0.26354558E+03</pdfrwt>
<pdfrwt beam="2">  1        1 0.33367161E+00 0.26354558E+03</pdfrwt>
<totfact> 0.46562023E+03</totfact>
</mgrwt>
</event>
<event>
 5    0  0.2306346E+000  0.2290602E+03  0.7546771E-02  0.1127303E+00
         21   -1    0    0  503  502  0.00000000000E+00  0.00000000000E+00  0.15397210647E+03  0.15397210647E+03  0.00000000000E+00 0. -1.
          2   -1    0    0  502    0 -0.00000000000E+00 -0.00000000000E+00 -0.12245916491E+04  0.12245916491E+04  0.00000000000E+00 0. -1.
         25    1    1    2    0    0  0.19652338844E+03  0.45582612418E+02  0.29710228817E+02  0.23917966982E+03  0.12500000000E+03 0.  0.
         21    1    1    2  503  501 -0.51578188602E+01 -0.37491444303E+02 -0.21179755881E+02  0.43368116751E+02  0.00000000000E+00 0. -1.
          2    1    1    2  501    0 -0.19136556958E+03 -0.80911681151E+01 -0.10791500156E+04  0.10960159690E+04  0.00000000000E+00 0. -1.
<mgrwt>
<rscale>  4 0.22906017E+03</rscale>
<asrwt>0</asrwt>
<pdfrwt beam="1">  1       21 0.23688018E-01 0.22906017E+03</pdfrwt>
<pdfrwt beam="2">  1        2 0.18839871E+00 0.22906017E+03</pdfrwt>
<totfact> 0.40888636E+03</totfact>
</mgrwt>
</event>
<event>
 5    0  0.2306346E+000  0.3365884E+03  0.7546771E-02  0.1068258E+00
         21   -1    0    0  503  502  0.00000000000E+00  0.00000000000E+00  0.34253205801E+03  0.34253205801E+03  0.00000000000E+00 0. -1.
          2   -1    0    0  502    0 -0.00000000000E+00 -0.00000000000E+00 -0.71690660053E+03  0.71690660053E+03  0.00000000000E+00 0. -1.
         25    1    1    2    0    0 -0.51103318795E+02 -0.25037748057E+03  0.12381829593E+03  0.31025215934E+03  0.12500000000E+03 0.  0.
         21    1    1    2  503  501 -0.16091948670E+02 -0.66381401505E+02  0.68354429244E+02  0.96632133761E+02  0.00000000000E+00 0. -1.
          2    1    1    2  501    0  0.67195267465E+02  0.31675888207E+03 -0.56654726769E+03  0.65255436545E+03  0.00000000000E+00 0. -1.
<mgrwt>
<rscale>  4 0.33658841E+03</rscale>
<asrwt>0</asrwt>
<pdfrwt beam="1">  1       21 0.52697241E-01 0.33658841E+03</pdfrwt>
<pdfrwt beam="2">  1        2 0.11029332E+00 0.33658841E+03</pdfrwt>
<totfact> 0.16610434E+03</totfact>
</mgrwt>
</event>
<event>
 5    0  0.2306346E+000  0.2709119E+03  0.7546771E-02  0.1100759E+00
         21   -1    0    0  503  502  0.00000000000E+00  0.00000000000E+00  0.15173334378E+03  0.15173334378E+03  0.00000000000E+00 0. -1.
          2   -1    0    0  502    0 -0.00000000000E+00 -0.00000000000E+00 -0.31576813795E+04  0.31576813795E+04  0.00000000000E+00 0. -1.
         25    1    1    2    0    0 -0.11299312841E+03  0.21808351019E+03 -0.13923561348E+03  0.30877082205E+03  0.12500000000E+03 0.  0.
         21    1    1    2  503  501 -0.12201705674E+03 -0.27363839736E+03 -0.30488096786E+03  0.42745589153E+03  0.00000000000E+00 0. -1.
          2    1    1    2  501    0  0.23501018514E+03  0.55554887166E+02 -0.25618314544E+04  0.25731880097E+04  0.00000000000E+00 0. -1.
<mgrwt>
<rscale>  4 0.27091195E+03</rscale>
<asrwt>0</asrwt>
<pdfrwt beam="1">  1       21 0.23343591E-01 0.27091195E+03</pdfrwt>
<pdfrwt beam="2">  1        2 0.48579714E+00 0.27091195E+03</pdfrwt>
<totfact> 0.35904640E+02</totfact>
</mgrwt>
</event>
<event>
 5    0  0.2306346E+000  0.2689460E+03  0.7546771E-02  0.1101884E+00
          2   -1    0    0  502    0 -0.00000000000E+00  0.00000000000E+00  0.19011293702E+04  0.19011293702E+04  0.00000000000E+00 0.  1.
         21   -1    0    0  503  502  0.00000000000E+00 -0.00000000000E+00 -0.47428176598E+02  0.47428176598E+02  0.00000000000E+00 0. -1.
         25    1    1    2    0    0 -0.20898045431E+03 -0.92383199681E+02  0.10989310292E+04  0.11293723446E+04  0.12500000000E+03 0.  0.
         21    1    1    2  503  501 -0.78990894243E+01 -0.37045236113E+02  0.21316061007E+02  0.43464003374E+02  0.00000000000E+00 0.  1.
          2    1    1    2  501    0  0.21687954373E+03  0.12942843579E+03  0.73345410338E+03  0.77572119879E+03  0.00000000000E+00 0.  1.
<mgrwt>
<rscale>  4 0.26894604E+03</rscale>
<asrwt>0</asrwt>
<pdfrwt beam="1">  1       21 0.72966440E-02 0.26894604E+03</pdfrwt>
<pdfrwt beam="2">  1        2 0.29248138E+00 0.26894604E+03</pdfrwt>
<totfact> 0.14893102E+04</totfact>
</mgrwt>
</event>
<event>
 5    0  0.2306346E+000  0.3035548E+03  0.7546771E-02  0.1083477E+00
         21   -1    0    0  503  502  0.00000000000E+00  0.00000000000E+00  0.32358851302E+02  0.32358851302E+02  0.00000000000E+00 0. -1.
          2   -1    0    0  502    0 -0.00000000000E+00 -0.00000000000E+00 -0.48098710980E+04  0.48098710980E+04  0.00000000000E+00 0.  1.
         25    1    1    2    0    0  0.19116372120E+03 -0.21434061211E+03 -0.12427649239E+04  0.12816298695E+04  0.12500000000E+03 0.  0.
         21    1    1    2  503  501  0.89803200942E+01  0.27247413267E+02 -0.19491972786E+02  0.34684357884E+02  0.00000000000E+00 0.  1.
          2    1    1    2  501    0 -0.20014404129E+03  0.18709319885E+03 -0.35152553501E+04  0.35259157220E+04  0.00000000000E+00 0.  1.
<mgrwt>
<rscale>  4 0.30355475E+03</rscale>
<asrwt>0</asrwt>
<pdfrwt beam="1">  1       21 0.49782873E-02 0.30355475E+03</pdfrwt>
<pdfrwt beam="2">  1        2 0.73997981E+00 0.30355475E+03</pdfrwt>
<totfact> 0.28002104E+02</totfact>
</mgrwt>
</event>
<event>
 5    0  0.2306346E+000  0.2253480E+03  0.7546771E-02  0.1129958E+00
          3   -1    0    0  502    0 -0.00000000000E+00  0.00000000000E+00  0.78805446230E+03  0.78805446230E+03  0.00000000000E+00 0.  1.
         21   -1    0    0  503  502  0.00000000000E+00 -0.00000000000E+00 -0.12043896203E+03  0.12043896203E+03  0.00000000000E+00 0. -1.
         25    1    1    2    0    0 -0.20984719965E+03 -0.44154403684E+02  0.92418969497E+02  0.26486170824E+03  0.12500000000E+03 0.  0.
         21    1    1    2  503  501  0.28301118417E+02  0.19789449846E+02 -0.52845071442E+01  0.34935678677E+02  0.00000000000E+00 0.  1.
          3    1    1    2  501    0  0.18154608123E+03  0.24364953838E+02  0.58048103792E+03  0.60869603742E+03  0.00000000000E+00 0.  1.
<mgrwt>
<rscale>  4 0.22534802E+03</rscale>
<asrwt>0</asrwt>
<pdfrwt beam="1">  1       21 0.18529072E-01 0.22534802E+03</pdfrwt>
<pdfrwt beam="2">  1        3 0.12123914E+00 0.22534802E+03</pdfrwt>
<totfact> 0.75845106E+02</totfact>
</mgrwt>
</event>
<event>
 5    0  0.2306346E+000  0.2927504E+03  0.7546771E-02  0.1088922E+00
          1   -1    0    0  502    0 -0.00000000000E+00  0.00000000000E+00  0.21940228106E+04  0.21940228106E+04  0.00000000000E+00 0. -1.
         21   -1    0    0  503  502  0.00000000000E+00 -0.00000000000E+00 -0.38455404858E+02  0.38455404858E+02  0.00000000000E+00 0. -1.
         25    1    1    2    0    0  0.25424321768E+03  0.73744127717E+02  0.85275266945E+03  0.90160408459E+03  0.12500000000E+03 0.  0.
         21    1    1    2  503  501 -0.25480046123E+02 -0.23042196696E+02  0.10913469403E+03  0.11441397214E+03  0.00000000000E+00 0. -1.
          1    1    1    2  501    0 -0.22876317156E+03 -0.50701931021E+02  0.11936800423E+04  0.12164601588E+04  0.00000000000E+00 0. -1.
<mgrwt>
<rscale>  4 0.29275042E+03</rscale>
<asrwt>0</asrwt>
<pdfrwt beam="1">  1       21 0.59162178E-02 0.29275042E+03</pdfrwt>
<pdfrwt beam="2">  1        1 0.33754187E+00 0.29275042E+03</pdfrwt>
<totfact> 0.56278391E+03</totfact>
</mgrwt>
</event>
<event>
 5    0  0.2306346E+000  0.2658606E+03  0.7546771E-02  0.1103672E+00
          2   -1    0    0  502    0 -0.00000000000E+00  0.00000000000E+00  0.15121405930E+04  0.15121405930E+04  0.00000000000E+00 0.  1.
         21   -1    0    0  503  502  0.00000000000E+00 -0.00000000000E+00 -0.44115465054E+02  0.44115465054E+02  0.00000000000E+00 0.  1.
         25    1    1    2    0    0  0.17728927448E+03 -0.15370546271E+03  0.60726821299E+03  0.66291518207E+03  0.12500000000E+03 0.  0.
         21    1    1    2  503  501 -0.28597120366E+02  0.61849008763E+01  0.90411716130E+02  0.95028031157E+02  0.00000000000E+00 0. -1.
          2    1    1    2  501    0 -0.14869215411E+03  0.14752056183E+03  0.77034519880E+03  0.79831284479E+03  0.00000000000E+00 0.  1.
<mgrwt>
<rscale>  4 0.26586060E+03</rscale>
<asrwt>0</asrwt>
<pdfrwt beam="1">  1       21 0.67869958E-02 0.26586060E+03</pdfrwt>
<pdfrwt beam="2">  1        2 0.23263698E+00 0.26586060E+03</pdfrwt>
<totfact> 0.27129062E+04</totfact>
</mgrwt>
</event>
<event>
 5    0  0.2306346E+000  0.3011100E+03  0.7546771E-02  0.1084687E+00
          2   -1    0    0  502    0 -0.00000000000E+00  0.00000000000E+00  0.11785043040E+04  0.11785043040E+04  0.00000000000E+00 0.  1.
         21   -1    0    0  503  502  0.00000000000E+00 -0.00000000000E+00 -0.53315839569E+03  0.53315839569E+03  0.00000000000E+00 0.  1.
         25    1    1    2    0    0  0.90350023172E+00  0.34084104489E+03  0.75387201337E+03  0.83673260170E+03  0.12500000000E+03 0.  0.
         21    1    1    2  503  501 -0.21283644400E+03 -0.17669876838E+03 -0.39523591698E+03  0.48242433263E+03  0.00000000000E+00 0.  1.
          2    1    1    2  501    0  0.21193294377E+03 -0.16414227652E+03  0.28670981189E+03  0.39250576535E+03  0.00000000000E+00 0.  1.
<mgrwt>
<rscale>  4 0.30110995E+03</rscale>
<asrwt>0</asrwt>
<pdfrwt beam="1">  1       21 0.82024369E-01 0.30110995E+03</pdfrwt>
<pdfrwt beam="2">  1        2 0.18130835E+00 0.30110995E+03</pdfrwt>
<totfact> 0.31923226E+02</totfact>
</mgrwt>
</event>
<event>
 5    0  0.2306346E+000  0.3188734E+03  0.7546771E-02  0.1076169E+00
         21   -1    0    0  503  502  0.00000000000E+00  0.00000000000E+00  0.37650231838E+03  0.37650231838E+03  0.00000000000E+00 0. -1.
          1   -1    0    0  502    0 -0.00000000000E+00 -0.00000000000E+00 -0.64491374455E+03  0.64491374455E+03  0.00000000000E+00 0. -1.
         25    1    1    2    0    0 -0.22850267505E+03 -0.22051884134E+03  0.18792955803E+03  0.38959536787E+03  0.12500000000E+03 0.  0.
         21    1    1    2  503  501  0.44641961545E+02 -0.41377241043E+01  0.37848249784E+02  0.58672953761E+02  0.00000000000E+00 0.  1.
          1    1    1    2  501    0  0.18386071350E+03  0.22465656544E+03 -0.49418923399E+03  0.57314774129E+03  0.00000000000E+00 0. -1.
<mgrwt>
<rscale>  4 0.31887335E+03</rscale>
<asrwt>0</asrwt>
<pdfrwt beam="1">  1       21 0.57923434E-01 0.31887335E+03</pdfrwt>
<pdfrwt beam="2">  1        1 0.99217498E-01 0.31887335E+03</pdfrwt>
<totfact> 0.93432854E+02</totfact>
</mgrwt>
</event>
<event>
 5    0  0.2306346E+000  0.3160093E+03  0.7546771E-02  0.1077501E+00
         21   -1    0    0  503  502  0.00000000000E+00  0.00000000000E+00  0.50306267688E+03  0.50306267688E+03  0.00000000000E+00 0.  1.
          3   -1    0    0  502    0 -0.00000000000E+00 -0.00000000000E+00 -0.25068438481E+03  0.25068438481E+03  0.00000000000E+00 0.  1.
         25    1    1    2    0    0 -0.14655038873E+03  0.27431984046E+03  0.15287707402E+03  0.36840845683E+03  0.12500000000E+03 0.  0.
         21    1    1    2  503  501  0.19003847025E+03 -0.19607921510E+03  0.35632628406E+02  0.27537494980E+03  0.00000000000E+00 0.  1.
          3    1    1    2  501    0 -0.43488081523E+02 -0.78240625353E+02  0.63868589652E+02  0.10996365506E+03  0.00000000000E+00 0.  1.
<mgrwt>
<rscale>  4 0.31600933E+03</rscale>
<asrwt>0</asrwt>
<pdfrwt beam="1">  1       21 0.77394258E-01 0.31600933E+03</pdfrwt>
<pdfrwt beam="2">  1        3 0.38566829E-01 0.31600933E+03</pdfrwt>
<totfact> 0.47622893E+02</totfact>
</mgrwt>
</event>
<event>
 5    0  0.2306346E+000  0.3101877E+03  0.7546771E-02  0.1080256E+00
          2   -1    0    0  502    0 -0.00000000000E+00  0.00000000000E+00  0.10534734950E+04  0.10534734950E+04  0.00000000000E+00 0. -1.
         21   -1    0    0  503  502  0.00000000000E+00 -0.00000000000E+00 -0.32783443348E+03  0.32783443348E+03  0.00000000000E+00 0. -1.
         25    1    1    2    0    0 -0.25545482836E+03  0.15358877541E+03 -0.16564232920E+03  0.36319287230E+03  0.12500000000E+03 0.  0.
         21    1    1    2  503  501  0.28442897834E+02  0.15157725085E+02 -0.36194830740E+02  0.48464634934E+02  0.00000000000E+00 0. -1.
          2    1    1    2  501    0  0.22701193053E+03 -0.16874650050E+03  0.92747622143E+03  0.96965042121E+03  0.00000000000E+00 0. -1.
<mgrwt>
<rscale>  4 0.31018773E+03</rscale>
<asrwt>0</asrwt>
<pdfrwt beam="1">  1       21 0.50436067E-01 0.31018773E+03</pdfrwt>
<pdfrwt beam="2">  1        2 0.16207284E+00 0.31018773E+03</pdfrwt>
<totfact> 0.10983955E+03</totfact>
</mgrwt>
</event>
<event>
 5    0  0.2306346E+000  0.2592384E+03  0.7546771E-02  0.1107602E+00
         -4   -1    0    0    0  501 -0.00000000000E+00  0.00000000000E+00  0.16043944757E+04  0.16043944757E+04  0.00000000000E+00 0.  1.
         21   -1    0    0  501  502  0.00000000000E+00 -0.00000000000E+00 -0.12580085538E+03  0.12580085538E+03  0.00000000000E+00 0.  1.
         25    1    1    2    0    0 -0.15194101847E+02  0.21775000375E+03  0.10142453762E+04  0.10449711039E+04  0.12500000000E+03 0.  0.
         21    1    1    2  503  502  0.32009306540E+02  0.25142875785E+02 -0.79527113170E+02  0.89338242858E+02  0.00000000000E+00 0.  1.
         -4    1    1    2    0  503 -0.16815204693E+02 -0.24289287953E+03  0.54387535726E+03  0.59588598429E+03  0.00000000000E+00 0.  1.
<mgrwt>
<rscale>  4 0.25923845E+03</rscale>
<asrwt>0</asrwt>
<pdfrwt beam="1">  1       21 0.19353979E-01 0.25923845E+03</pdfrwt>
<pdfrwt beam="2">  1       -4 0.24682991E+00 0.25923845E+03</pdfrwt>
<totfact> 0.76496885E+01</totfact>
</mgrwt>
</event>
<event>
 5    0  0.2306346E+000  0.3499322E+03  0.7546771E-02  0.1062643E+00
         21   -1    0    0  503  502  0.00000000000E+00  0.00000000000E+00  0.49318207922E+03  0.49318207922E+03  0.00000000000E+00 0. -1.
          1   -1    0    0  502    0 -0.00000000000E+00 -0.00000000000E+00 -0.18186033204E+04  0.18186033204E+04  0.00000000000E+00 0. -1.
         25    1    1    2    0    0 -0.83192854522E+02 -0.44992166505E+03  0.23801094076E+03  0.53068329882E+03  0.12500000000E+03 0.  0.
         21    1    1    2  503  501 -0.49047824651E+02  0.15647944157E+03  0.20079136306E+02  0.16521100585E+03  0.00000000000E+00 0. -1.
          1    1    1    2  501    0  0.13224067917E+03  0.29344222348E+03 -0.15835113182E+04  0.16158910949E+04  0.00000000000E+00 0. -1.
<mgrwt>
<rscale>  4 0.34993221E+03</rscale>
<asrwt>0</asrwt>
<pdfrwt beam="1">  1       21 0.75874167E-01 0.34993221E+03</pdfrwt>
<pdfrwt beam="2">  1        1 0.27978512E+00 0.34993221E+03</pdfrwt>
<totfact> 0.69936718E+01</totfact>
</mgrwt>
</event>
<event>
 5    0  0.2306346E+000  0.3014401E+03  0.7546771E-02  0.1084523E+00
         -2   -1    0    0    0  501 -0.00000000000E+00  0.00000000000E+00  0.81520951629E+03  0.81520951629E+03  0.00000000000E+00 0. -1.
         21   -1    0    0  501  502  0.00000000000E+00 -0.00000000000E+00 -0.66522155308E+03  0.66522155308E+03  0.00000000000E+00 0. -1.
         25    1    1    2    0    0 -0.27436162774E+03  0.21733115905E+03 -0.28119621481E+03  0.46605090569E+03  0.12500000000E+03 0.  0.
         21    1    1    2  503  502  0.18204847664E+03 -0.14844318119E+03 -0.23856478264E+03  0.33479871774E+03  0.00000000000E+00 0. -1.
         -2    1    1    2    0  503  0.92313151105E+02 -0.68887977855E+02  0.66974896066E+03  0.67958144594E+03  0.00000000000E+00 0. -1.
<mgrwt>
<rscale>  4 0.30144011E+03</rscale>
<asrwt>0</asrwt>
<pdfrwt beam="1">  1       21 0.10234178E+00 0.30144011E+03</pdfrwt>
<pdfrwt beam="2">  1       -2 0.12541685E+00 0.30144011E+03</pdfrwt>
<totfact> 0.29894768E+01</totfact>
</mgrwt>
</event>
<event>
 5    0  0.2306346E+000  0.2636332E+03  0.7546771E-02  0.1104980E+00
         21   -1    0    0  503  502  0.00000000000E+00  0.00000000000E+00  0.32086415723E+03  0.32086415723E+03  0.00000000000E+00 0. -1.
          4   -1    0    0  502    0 -0.00000000000E+00 -0.00000000000E+00 -0.32505644144E+03  0.32505644144E+03  0.00000000000E+00 0. -1.
         25    1    1    2    0    0 -0.14727284410E+03 -0.20913144271E+03  0.40122672307E+02  0.28750666039E+03  0.12500000000E+03 0.  0.
         21    1    1    2  503  501 -0.15060789669E+02  0.54703278196E+02  0.83131721400E+02  0.10064869166E+03  0.00000000000E+00 0. -1.
          4    1    1    2  501    0  0.16233363377E+03  0.15442816451E+03 -0.12744667792E+03  0.25776524661E+03  0.00000000000E+00 0. -1.
<mgrwt>
<rscale>  4 0.26363315E+03</rscale>
<asrwt>0</asrwt>
<pdfrwt beam="1">  1       21 0.49363716E-01 0.26363315E+03</pdfrwt>
<pdfrwt beam="2">  1        4 0.50008684E-01 0.26363315E+03</pdfrwt>
<totfact> 0.63556708E+02</totfact>
</mgrwt>
</event>
<event>
 5    0  0.2306346E+000  0.2959315E+03  0.7546771E-02  0.1087292E+00
         21   -1    0    0  503  502  0.00000000000E+00  0.00000000000E+00  0.11444182399E+04  0.11444182399E+04  0.00000000000E+00 0.  1.
          2   -1    0    0  502    0 -0.00000000000E+00 -0.00000000000E+00 -0.13845230237E+04  0.13845230237E+04  0.00000000000E+00 0. -1.
         25    1    1    2    0    0  0.21293694457E+03  0.65944249594E+02 -0.75663331045E+02  0.26653466207E+03  0.12500000000E+03 0.  0.
         21    1    1    2  503  501  0.52920497445E+02  0.70405205835E+01  0.10326245021E+04  0.10340036317E+04  0.00000000000E+00 0.  1.
          2    1    1    2  501    0 -0.26585744202E+03 -0.72984770177E+02 -0.11970659548E+04  0.12284029699E+04  0.00000000000E+00 0. -1.
<mgrwt>
<rscale>  4 0.29593149E+03</rscale>
<asrwt>0</asrwt>
<pdfrwt beam="1">  1       21 0.17606434E+00 0.29593149E+03</pdfrwt>
<pdfrwt beam="2">  1        2 0.21300354E+00 0.29593149E+03</pdfrwt>
<totfact> 0.35554963E+01</totfact>
</mgrwt>
</event>
<event>
 5    0  0.2306346E+000  0.2788076E+03  0.7546771E-02  0.1096342E+00
         21   -1    0    0  501  502  0.00000000000E+00  0.00000000000E+00  0.46989623942E+03  0.46989623942E+03  0.00000000000E+00 0. -1.
         -2   -1    0    0    0  501 -0.00000000000E+00 -0.00000000000E+00 -0.42317630503E+03  0.42317630503E+03  0.00000000000E+00 0.  1.
         25    1    1    2    0    0  0.10805531771E+03  0.24524546630E+03  0.34916397714E+03  0.45756067724E+03  0.12500000000E+03 0.  0.
         21    1    1    2  503  502 -0.18959342003E+01 -0.21921823853E+02  0.19613992964E+02  0.29476594911E+02  0.00000000000E+00 0.  1.
         -2    1    1    2    0  503 -0.10615938351E+03 -0.22332364244E+03 -0.32205803571E+03  0.40603527230E+03  0.00000000000E+00 0.  1.
<mgrwt>
<rscale>  4 0.27880758E+03</rscale>
<asrwt>0</asrwt>
<pdfrwt beam="1">  1       21 0.72291729E-01 0.27880758E+03</pdfrwt>
<pdfrwt beam="2">  1       -2 0.65104047E-01 0.27880758E+03</pdfrwt>
<totfact> 0.30202452E+02</totfact>
</mgrwt>
</event>
<event>
 5    0  0.2306346E+000  0.3668456E+03  0.7546771E-02  0.1055906E+00
          2   -1    0    0  502    0 -0.00000000000E+00  0.00000000000E+00  0.27101498786E+04  0.27101498786E+04  0.00000000000E+00 0.  1.
         21   -1    0    0  503  502  0.00000000000E+00 -0.00000000000E+00 -0.29434237979E+03  0.29434237979E+03  0.00000000000E+00 0. -1.
         25    1    1    2    0    0 -0.10342455037E+03 -0.34619062917E+03  0.56527539427E+02  0.38647762168E+03  0.12500000000E+03 0.  0.
         21    1    1    2  503  501 -0.11898018261E+02  0.22369830508E+02 -0.11612499468E+03  0.11885700040E+03  0.00000000000E+00 0.  1.
          2    1    1    2  501    0  0.11532256863E+03  0.32382079866E+03  0.24754049541E+04  0.24991576363E+04  0.00000000000E+00 0.  1.
<mgrwt>
<rscale>  4 0.36684564E+03</rscale>
<asrwt>0</asrwt>
<pdfrwt beam="1">  1       21 0.45283445E-01 0.36684564E+03</pdfrwt>
<pdfrwt beam="2">  1        2 0.41694612E+00 0.36684564E+03</pdfrwt>
<totfact> 0.16648542E+02</totfact>
</mgrwt>
</event>
<event>
 5    0  0.2306346E+000  0.3383226E+03  0.7546771E-02  0.1067513E+00
         21   -1    0    0  503  502  0.00000000000E+00  0.00000000000E+00  0.95853396772E+03  0.95853396772E+03  0.00000000000E+00 0. -1.
          2   -1    0    0  502    0 -0.00000000000E+00 -0.00000000000E+00 -0.28211044794E+03  0.28211044794E+03  0.00000000000E+00 0.  1.
         25    1    1    2    0    0 -0.26912797666E+03  0.67574211086E+02  0.64673906685E+03  0.71476748836E+03  0.12500000000E+03 0.  0.
         21    1    1    2  503  501 -0.40151037450E+02  0.14728352452E+02  0.17082292796E+03  0.17609515295E+03  0.00000000000E+00 0. -1.
          2    1    1    2  501    0  0.30927901411E+03 -0.82302563538E+02 -0.14113847503E+03  0.34978177435E+03  0.00000000000E+00 0.  1.
<mgrwt>
<rscale>  4 0.33832257E+03</rscale>
<asrwt>0</asrwt>
<pdfrwt beam="1">  1       21 0.14746676E+00 0.33832257E+03</pdfrwt>
<pdfrwt beam="2">  1        2 0.43401608E-01 0.33832257E+03</pdfrwt>
<totfact> 0.42019846E+02</totfact>
</mgrwt>
</event>
<event>
 5    0  0.2306346E+000  0.2545427E+03  0.7546771E-02  0.1110467E+00
          3   -1    0    0  502    0 -0.00000000000E+00  0.00000000000E+00  0.18706170784E+03  0.18706170784E+03  0.00000000000E+00 0. -1.
         21   -1    0    0  503  502  0.00000000000E+00 -0.00000000000E+00 -0.10732323387E+04  0.10732323387E+04  0.00000000000E+00 0. -1.
         25    1    1    2    0    0 -0.16619595313E+03  0.14455785190E+03  0.44618348319E+02  0.25716505282E+03  0.12500000000E+03 0.  0.
         21    1    1    2  503  501  0.14744536337E+02  0.26173366827E+02 -0.60281022829E+03  0.60355829695E+03  0.00000000000E+00 0. -1.
          3    1    1    2  501    0  0.15145141679E+03 -0.17073121873E+03 -0.32797875092E+03  0.39957069681E+03  0.00000000000E+00 0. -1.
<mgrwt>
<rscale>  4 0.25454271E+03</rscale>
<asrwt>0</asrwt>
<pdfrwt beam="1">  1       21 0.16511267E+00 0.25454271E+03</pdfrwt>
<pdfrwt beam="2">  1        3 0.28778724E-01 0.25454271E+03</pdfrwt>
<totfact> 0.12873359E+02</totfact>
</mgrwt>
</event>
<event>
 5    0  0.2306346E+000  0.2559592E+03  0.7546771E-02  0.1109596E+00
         21   -1    0    0  503  502  0.00000000000E+00  0.00000000000E+00  0.32898907582E+03  0.32898907582E+03  0.00000000000E+00 0.  1.
          2   -1    0    0  502    0 -0.00000000000E+00 -0.00000000000E+00 -0.12316127283E+04  0.12316127283E+04  0.00000000000E+00 0.  1.
         25    1    1    2    0    0  0.56516161615E+02  0.26968384891E+03  0.10111656240E+03  0.31901883029E+03  0.12500000000E+03 0.  0.
         21    1    1    2  503  501  0.45402205003E+01 -0.57613319033E+02  0.10026981734E+03  0.11573220987E+03  0.00000000000E+00 0.  1.
          2    1    1    2  501    0 -0.61056382116E+02 -0.21207052988E+03 -0.11040100323E+04  0.11258507640E+04  0.00000000000E+00 0.  1.
<mgrwt>
<rscale>  4 0.25595916E+03</rscale>
<asrwt>0</asrwt>
<pdfrwt beam="1">  1       21 0.50613704E-01 0.25595916E+03</pdfrwt>
<pdfrwt beam="2">  1        2 0.18947888E+00 0.25595916E+03</pdfrwt>
<totfact> 0.87874849E+02</totfact>
</mgrwt>
</event>
<event>
 5    0  0.2306346E+000  0.2477369E+03  0.7546771E-02  0.1114743E+00
         -4   -1    0    0    0  501 -0.00000000000E+00  0.00000000000E+00  0.20304971901E+03  0.20304971901E+03  0.00000000000E+00 0. -1.
         21   -1    0    0  501  502  0.00000000000E+00 -0.00000000000E+00 -0.36399610842E+03  0.36399610842E+03  0.00000000000E+00 0.  1.
         25    1    1    2    0    0  0.81990349316E+02  0.22138063531E+03 -0.37949143819E+02  0.26980908173E+03  0.12500000000E+03 0.  0.
         21    1    1    2  503  502 -0.20592125858E+02 -0.34129079425E+02 -0.88658324862E+02  0.97206626714E+02  0.00000000000E+00 0. -1.
         -4    1    1    2    0  503 -0.61398223458E+02 -0.18725155588E+03 -0.34338920731E+02  0.20003011898E+03  0.00000000000E+00 0. -1.
<mgrwt>
<rscale>  4 0.24773694E+03</rscale>
<asrwt>0</asrwt>
<pdfrwt beam="1">  1       21 0.55999400E-01 0.24773694E+03</pdfrwt>
<pdfrwt beam="2">  1       -4 0.31238419E-01 0.24773694E+03</pdfrwt>
<totfact> 0.12425158E+03</totfact>
</mgrwt>
</event>
<event>
 5    0  0.2306346E+000  0.4595099E+03  0.7546771E-02  0.1024923E+00
          1   -1    0    0  502    0 -0.00000000000E+00  0.00000000000E+00  0.16750445395E+04  0.16750445395E+04  0.00000000000E+00 0. -1.
         21   -1    0    0  503  502  0.00000000000E+00 -0.00000000000E+00 -0.28219237927E+03  0.28219237927E+03  0.00000000000E+00 0. -1.
         25    1    1    2    0    0 -0.45414865238E+03 -0.20480947224E+03  0.37358557178E+03  0.63512919774E+03  0.12500000000E+03 0.  0.
         21    1    1    2  503  501  0.38489965354E+02  0.10649956120E+03 -0.82722369589E+02  0.14023774242E+03  0.00000000000E+00 0. -1.
          1    1    1    2  501    0  0.41565868702E+03  0.98309911043E+02  0.11019889580E+04  0.11818699786E+04  0.00000000000E+00 0. -1.
<mgrwt>
<rscale>  4 0.45950990E+03</rscale>
<asrwt>0</asrwt>
<pdfrwt beam="1">  1       21 0.43414213E-01 0.45950990E+03</pdfrwt>
<pdfrwt beam="2">  1        1 0.25769915E+00 0.45950990E+03</pdfrwt>
<totfact> 0.27968319E+02</totfact>
</mgrwt>
</event>
<event>
 5    0  0.2306346E+000  0.1912518E+03  0.7546771E-02  0.1157337E+00
         21   -1    0    0  503  502  0.00000000000E+00  0.00000000000E+00  0.23990689323E+03  0.23990689323E+03  0.00000000000E+00 0. -1.
          2   -1    0    0  502    0 -0.00000000000E+00 -0.00000000000E+00 -0.13106758969E+04  0.13106758969E+04  0.00000000000E+00 0. -1.
         25    1    1    2    0    0  0.77578201891E+02  0.23974312781E+03 -0.22966226395E+03  0.36313206995E+03  0.12500000000E+03 0.  0.
         21    1    1    2  503  501 -0.51802723722E+02 -0.12475663185E+03  0.14276677658E+03  0.19654539392E+03  0.00000000000E+00 0. -1.
          2    1    1    2  501    0 -0.25775478168E+02 -0.11498649596E+03 -0.98387351633E+03  0.99090532629E+03  0.00000000000E+00 0. -1.
<mgrwt>
<rscale>  4 0.19125183E+03</rscale>
<asrwt>0</asrwt>
<pdfrwt beam="1">  1       21 0.36908753E-01 0.19125183E+03</pdfrwt>
<pdfrwt beam="2">  1        2 0.20164245E+00 0.19125183E+03</pdfrwt>
<totfact> 0.15713500E+03</totfact>
</mgrwt>
</event>
<event>
 5    0  0.2306346E+000  0.2406003E+03  0.7546771E-02  0.1119394E+00
         21   -1    0    0  503  502  0.00000000000E+00  0.00000000000E+00  0.64907340147E+02  0.64907340147E+02  0.00000000000E+00 0. -1.
          1   -1    0    0  502    0 -0.00000000000E+00 -0.00000000000E+00 -0.12667487154E+04  0.12667487154E+04  0.00000000000E+00 0. -1.
         25    1    1    2    0    0  0.84713656269E+02  0.22064846346E+03 -0.61498715422E+03  0.67059402610E+03  0.12500000000E+03 0.  0.
         21    1    1    2  503  501 -0.22898145877E+02 -0.37656172333E+02 -0.36185415948E+03  0.36452811295E+03  0.00000000000E+00 0.  1.
          1    1    1    2  501    0 -0.61815510393E+02 -0.18299229113E+03 -0.22500006160E+03  0.29653391654E+03  0.00000000000E+00 0. -1.
<mgrwt>
<rscale>  4 0.24060026E+03</rscale>
<asrwt>0</asrwt>
<pdfrwt beam="1">  1       21 0.99857450E-02 0.24060026E+03</pdfrwt>
<pdfrwt beam="2">  1        1 0.19488441E+00 0.24060026E+03</pdfrwt>
<totfact> 0.93253013E+03</totfact>
</mgrwt>
</event>
<event>
 5    0  0.2306346E+000  0.3280177E+03  0.7546771E-02  0.1072017E+00
         -3   -1    0    0    0  501 -0.00000000000E+00  0.00000000000E+00  0.10556647828E+04  0.10556647828E+04  0.00000000000E+00 0. -1.
         21   -1    0    0  501  502  0.00000000000E+00 -0.00000000000E+00 -0.26077313174E+03  0.26077313174E+03  0.00000000000E+00 0. -1.
         25    1    1    2    0    0  0.28596363929E+03  0.27974863566E+03  0.37499053253E+02  0.42079173132E+03  0.12500000000E+03 0.  0.
         21    1    1    2  503  502 -0.12347510445E+03 -0.17610562489E+03  0.16037143358E+03  0.26828769865E+03  0.00000000000E+00 0. -1.
         -3    1    1    2    0  503 -0.16248853484E+03 -0.10364301077E+03  0.59702116418E+03  0.62735848453E+03  0.00000000000E+00 0. -1.
<mgrwt>
<rscale>  4 0.32801773E+03</rscale>
<asrwt>0</asrwt>
<pdfrwt beam="1">  1       21 0.40118944E-01 0.32801773E+03</pdfrwt>
<pdfrwt beam="2">  1       -3 0.16240996E+00 0.32801773E+03</pdfrwt>
<totfact> 0.79423022E+01</totfact>
</mgrwt>
</event>
<event>
 5    0  0.2306346E+000  0.2487145E+03  0.7546771E-02  0.1114120E+00
         21   -1    0    0  503  502  0.00000000000E+00  0.00000000000E+00  0.12775235734E+03  0.12775235734E+03  0.00000000000E+00 0.  1.
          1   -1    0    0  502    0 -0.00000000000E+00 -0.00000000000E+00 -0.22644812045E+04  0.22644812045E+04  0.00000000000E+00 0.  1.
         25    1    1    2    0    0  0.17771489692E+02  0.21714790953E+03 -0.22484709145E+02  0.25218961637E+03  0.12500000000E+03 0.  0.
         21    1    1    2  503  501 -0.61789218086E+02 -0.39427012403E+02 -0.14662459544E+03  0.16392427754E+03  0.00000000000E+00 0.  1.
          1    1    1    2  501    0  0.44017728394E+02 -0.17772089713E+03 -0.19676195426E+04  0.19761196679E+04  0.00000000000E+00 0.  1.
<mgrwt>
<rscale>  4 0.24871447E+03</rscale>
<asrwt>0</asrwt>
<pdfrwt beam="1">  1       21 0.19654210E-01 0.24871447E+03</pdfrwt>
<pdfrwt beam="2">  1        1 0.34838171E+00 0.24871447E+03</pdfrwt>
<totfact> 0.59927251E+02</totfact>
</mgrwt>
</event>
<event>
 5    0  0.2306346E+000  0.1780368E+03  0.7546771E-02  0.1169717E+00
          2   -1    0    0  502    0 -0.00000000000E+00  0.00000000000E+00  0.98190766751E+03  0.98190766751E+03  0.00000000000E+00 0.  1.
         21   -1    0    0  503  502  0.00000000000E+00 -0.00000000000E+00 -0.25678396082E+03  0.25678396082E+03  0.00000000000E+00 0. -1.
         25    1    1    2    0    0 -0.19538203574E+03  0.13405445957E+03  0.19324581290E+03  0.33032360228E+03  0.12500000000E+03 0.  0.
         21    1    1    2  503  501  0.96736231592E+02 -0.68033968040E+02 -0.16413621281E+03  0.20230475937E+03  0.00000000000E+00 0. -1.
          2    1    1    2  501    0  0.98645804145E+02 -0.66020491530E+02  0.69601410660E+03  0.70606326668E+03  0.00000000000E+00 0.  1.
<mgrwt>
<rscale>  4 0.17803681E+03</rscale>
<asrwt>0</asrwt>
<pdfrwt beam="1">  1       21 0.39505225E-01 0.17803681E+03</pdfrwt>
<pdfrwt beam="2">  1        2 0.15106272E+00 0.17803681E+03</pdfrwt>
<totfact> 0.21313505E+03</totfact>
</mgrwt>
</event>
<event>
 5    0  0.2306346E+000  0.1959548E+03  0.7546771E-02  0.1153198E+00
         -3   -1    0    0    0  501 -0.00000000000E+00  0.00000000000E+00  0.31398458820E+03  0.31398458820E+03  0.00000000000E+00 0.  1.
         21   -1    0    0  501  502  0.00000000000E+00 -0.00000000000E+00 -0.28808558290E+03  0.28808558290E+03  0.00000000000E+00 0.  1.
         25    1    1    2    0    0 -0.20820108761E+03 -0.14268715307E+02 -0.21879469495E+02  0.24424373135E+03  0.12500000000E+03 0.  0.
         21    1    1    2  503  502  0.13468166322E+03 -0.11182218193E+02 -0.11497366614E+03  0.17743487909E+03  0.00000000000E+00 0.  1.
         -3    1    1    2    0  503  0.73519424391E+02  0.25450933500E+02  0.16275214093E+03  0.18039156066E+03  0.00000000000E+00 0.  1.
<mgrwt>
<rscale>  4 0.19595479E+03</rscale>
<asrwt>0</asrwt>
<pdfrwt beam="1">  1       21 0.44320859E-01 0.19595479E+03</pdfrwt>
<pdfrwt beam="2">  1       -3 0.48305322E-01 0.19595479E+03</pdfrwt>
<totfact> 0.10328421E+03</totfact>
</mgrwt>
</event>
<event>
 5    0  0.2306346E+000  0.2874293E+03  0.7546771E-02  0.1091699E+00
         21   -1    0    0  503  502  0.00000000000E+00  0.00000000000E+00  0.45415695209E+03  0.45415695209E+03  0.00000000000E+00 0. -1.
          4   -1    0    0  502    0 -0.00000000000E+00 -0.00000000000E+00 -0.44926690331E+03  0.44926690331E+03  0.00000000000E+00 0. -1.
         25    1    1    2    0    0  0.24355117881E+03  0.12704315025E+03  0.24847758044E+03  0.39092613971E+03  0.12500000000E+03 0.  0.
         21    1    1    2  503  501 -0.89717956292E+02  0.82773721086E+02  0.39226940182E+02  0.12821682191E+03  0.00000000000E+00 0. -1.
          4    1    1    2  501    0 -0.15383322252E+03 -0.20981687134E+03 -0.28281447184E+03  0.38428089379E+03  0.00000000000E+00 0. -1.
<mgrwt>
<rscale>  4 0.28742926E+03</rscale>
<asrwt>0</asrwt>
<pdfrwt beam="1">  1       21 0.69870300E-01 0.28742926E+03</pdfrwt>
<pdfrwt beam="2">  1        4 0.69117985E-01 0.28742926E+03</pdfrwt>
<totfact> 0.15055045E+02</totfact>
</mgrwt>
</event>
<event>
 5    0  0.2306346E+000  0.3107489E+03  0.7546771E-02  0.1079987E+00
         21   -1    0    0  501  502  0.00000000000E+00  0.00000000000E+00  0.32232278951E+03  0.32232278951E+03  0.00000000000E+00 0.  1.
         -4   -1    0    0    0  501 -0.00000000000E+00 -0.00000000000E+00 -0.10336350060E+04  0.10336350060E+04  0.00000000000E+00 0.  1.
         25    1    1    2    0    0 -0.26115940749E+03 -0.80228446643E+02 -0.39454820799E+02  0.30302231379E+03  0.12500000000E+03 0.  0.
         21    1    1    2  503  502 -0.21700924783E+01 -0.33399638125E+02  0.16496739523E+03  0.16832850804E+03  0.00000000000E+00 0.  1.
         -4    1    1    2    0  503  0.26332949997E+03  0.11362808477E+03 -0.83682479096E+03  0.88460697373E+03  0.00000000000E+00 0.  1.
<mgrwt>
<rscale>  4 0.31074892E+03</rscale>
<asrwt>0</asrwt>
<pdfrwt beam="1">  1       21 0.49588120E-01 0.31074892E+03</pdfrwt>
<pdfrwt beam="2">  1       -4 0.15902077E+00 0.31074892E+03</pdfrwt>
<totfact> 0.42934141E+01</totfact>
</mgrwt>
</event>
<event>
 5    0  0.2306346E+000  0.4246804E+03  0.7546771E-02  0.1035554E+00
         21   -1    0    0  503  502  0.00000000000E+00  0.00000000000E+00  0.10313371753E+04  0.10313371753E+04  0.00000000000E+00 0.  1.
          2   -1    0    0  502    0 -0.00000000000E+00 -0.00000000000E+00 -0.23646324200E+04  0.23646324200E+04  0.00000000000E+00 0. -1.
         25    1    1    2    0    0 -0.19896009909E+03  0.25144830223E+03  0.23327626984E+03  0.41575736649E+03  0.12500000000E+03 0.  0.
         21    1    1    2  503  501 -0.12520920707E+03  0.16374014450E+01  0.68247763840E+03  0.69387012729E+03  0.00000000000E+00 0.  1.
          2    1    1    2  501    0  0.32416930616E+03 -0.25308570367E+03 -0.22490491530E+04  0.22863421015E+04  0.00000000000E+00 0. -1.
<mgrwt>
<rscale>  4 0.42468035E+03</rscale>
<asrwt>0</asrwt>
<pdfrwt beam="1">  1       21 0.15866726E+00 0.42468035E+03</pdfrwt>
<pdfrwt beam="2">  1        2 0.36378960E+00 0.42468035E+03</pdfrwt>
<totfact> 0.13036464E+01</totfact>
</mgrwt>
</event>
<event>
 5    0  0.2306346E+000  0.2828534E+03  0.7546771E-02  0.1094141E+00
          2   -1    0    0  502    0 -0.00000000000E+00  0.00000000000E+00  0.11014721187E+04  0.11014721187E+04  0.00000000000E+00 0.  1.
         21   -1    0    0  503  502  0.00000000000E+00 -0.00000000000E+00 -0.27119310094E+03  0.27119310094E+03  0.00000000000E+00 0. -1.
         25    1    1    2    0    0  0.93888026475E+02  0.18361037142E+03 -0.13964378615E+03  0.27866308873E+03  0.12500000000E+03 0.  0.
         21    1    1    2  503  501  0.27407109412E+01  0.55073467662E+02 -0.29084584589E+02  0.62341891193E+02  0.00000000000E+00 0.  1.
          2    1    1    2  501    0 -0.96628737416E+02 -0.23868383908E+03  0.99900738845E+03  0.10316602397E+04  0.00000000000E+00 0.  1.
<mgrwt>
<rscale>  4 0.28285343E+03</rscale>
<asrwt>0</asrwt>
<pdfrwt beam="1">  1       21 0.41722016E-01 0.28285343E+03</pdfrwt>
<pdfrwt beam="2">  1        2 0.16945725E+00 0.28285343E+03</pdfrwt>
<totfact> 0.15417221E+03</totfact>
</mgrwt>
</event>
<event>
 5    0  0.2306346E+000  0.2227303E+03  0.7546771E-02  0.1131864E+00
         -1   -1    0    0    0  501 -0.00000000000E+00  0.00000000000E+00  0.46369004962E+03  0.46369004962E+03  0.00000000000E+00 0. -1.
         21   -1    0    0  501  502  0.00000000000E+00 -0.00000000000E+00 -0.38290622448E+03  0.38290622448E+03  0.00000000000E+00 0.  1.
         25    1    1    2    0    0 -0.86504603518E+02 -0.21987706913E+03 -0.14598802616E+03  0.30457589488E+03  0.12500000000E+03 0.  0.
         21    1    1    2  503  502 -0.21065738527E+02  0.75494624767E+02 -0.12460137153E+03  0.14720293984E+03  0.00000000000E+00 0.  1.
         -1    1    1    2    0  503  0.10757034205E+03  0.14438244436E+03  0.35137322283E+03  0.39481743939E+03  0.00000000000E+00 0. -1.
<mgrwt>
<rscale>  4 0.22273028E+03</rscale>
<asrwt>0</asrwt>
<pdfrwt beam="1">  1       21 0.58908650E-01 0.22273028E+03</pdfrwt>
<pdfrwt beam="2">  1       -1 0.71336931E-01 0.22273028E+03</pdfrwt>
<totfact> 0.51102057E+02</totfact>
</mgrwt>
</event>
<event>
 5    0  0.2306346E+000  0.2980427E+03  0.7546771E-02  0.1086223E+00
         21   -1    0    0  503  502  0.00000000000E+00  0.00000000000E+00  0.54843523144E+02  0.54843523144E+02  0.00000000000E+00 0. -1.
          2   -1    0    0  502    0 -0.00000000000E+00 -0.00000000000E+00 -0.22471664026E+04  0.22471664026E+04  0.00000000000E+00 0. -1.
         25    1    1    2    0    0 -0.27063753763E+03 -0.43288368379E+02 -0.66790324328E+03  0.73269250166E+03  0.12500000000E+03 0.  0.
         21    1    1    2  503  501  0.21214708719E+01  0.20504304824E+02  0.64806646727E+00  0.20623945915E+02  0.00000000000E+00 0. -1.
          2    1    1    2  501    0  0.26851606676E+03  0.22784063555E+02 -0.15250677026E+04  0.15486934781E+04  0.00000000000E+00 0. -1.
<mgrwt>
<rscale>  4 0.29804268E+03</rscale>
<asrwt>0</asrwt>
<pdfrwt beam="1">  1       21 0.84374658E-02 0.29804268E+03</pdfrwt>
<pdfrwt beam="2">  1        2 0.34571788E+00 0.29804268E+03</pdfrwt>
<totfact> 0.75036794E+03</totfact>
</mgrwt>
</event>
<event>
 5    0  0.2306346E+000  0.2851278E+03  0.7546771E-02  0.1092921E+00
         21   -1    0    0  503  502  0.00000000000E+00  0.00000000000E+00  0.49323178305E+03  0.49323178305E+03  0.00000000000E+00 0.  1.
          2   -1    0    0  502    0 -0.00000000000E+00 -0.00000000000E+00 -0.35685640864E+03  0.35685640864E+03  0.00000000000E+00 0. -1.
         25    1    1    2    0    0 -0.16723239459E+03  0.17540769597E+03  0.18493083718E+03  0.32948284955E+03  0.12500000000E+03 0.  0.
         21    1    1    2  503  501 -0.22251434963E+02  0.19694831213E+01  0.17599093225E+03  0.17740296913E+03  0.00000000000E+00 0.  1.
          2    1    1    2  501    0  0.18948382956E+03 -0.17737717909E+03 -0.22454639502E+03  0.34320237302E+03  0.00000000000E+00 0. -1.
<mgrwt>
<rscale>  4 0.28512777E+03</rscale>
<asrwt>0</asrwt>
<pdfrwt beam="1">  1       21 0.75881813E-01 0.28512777E+03</pdfrwt>
<pdfrwt beam="2">  1        2 0.54900986E-01 0.28512777E+03</pdfrwt>
<totfact> 0.16826136E+03</totfact>
</mgrwt>
</event>
<event>
 5    0  0.2306346E+000  0.3022847E+03  0.7546771E-02  0.1084104E+00
         21   -1    0    0  501  502  0.00000000000E+00  0.00000000000E+00  0.50767103454E+03  0.50767103454E+03  0.00000000000E+00 0.  1.
         -1   -1    0    0    0  501 -0.00000000000E+00 -0.00000000000E+00 -0.41176169547E+03  0.41176169547E+03  0.00000000000E+00 0.  1.
         25    1    1    2    0    0 -0.29868451768E+03 -0.34493896998E+02  0.20579059293E+03  0.38519740156E+03  0.12500000000E+03 0.  0.
         21    1    1    2  503  502  0.28067546829E+02  0.45420599120E+02  0.14979265949E+03  0.15902408260E+03  0.00000000000E+00 0.  1.
         -1    1    1    2    0  503  0.27061697085E+03 -0.10926702122E+02 -0.25967391335E+03  0.37521124584E+03  0.00000000000E+00 0.  1.
<mgrwt>
<rscale>  4 0.30228470E+03</rscale>
<asrwt>0</asrwt>
<pdfrwt beam="1">  1       21 0.78103236E-01 0.30228470E+03</pdfrwt>
<pdfrwt beam="2">  1       -1 0.63347953E-01 0.30228470E+03</pdfrwt>
<totfact> 0.33586135E+02</totfact>
</mgrwt>
</event>
<event>
 5    0  0.2306346E+000  0.2303722E+03  0.7546771E-02  0.1126378E+00
         21   -1    0    0  501  502  0.00000000000E+00  0.00000000000E+00  0.51951956273E+03  0.51951956273E+03  0.00000000000E+00 0. -1.
         -3   -1    0    0    0  501 -0.00000000000E+00 -0.00000000000E+00 -0.47670763330E+03  0.47670763330E+03  0.00000000000E+00 0. -1.
         25    1    1    2    0    0 -0.66425062629E+02 -0.20343282601E+03  0.34386291702E+03  0.42386779701E+03  0.12500000000E+03 0.  0.
         21    1    1    2  503  502  0.14147132659E+02  0.18286312194E+02  0.11324102853E+03  0.11557707869E+03  0.00000000000E+00 0. -1.
         -3    1    1    2    0  503  0.52277929969E+02  0.18514651382E+03 -0.41429201612E+03  0.45678232032E+03  0.00000000000E+00 0. -1.
<mgrwt>
<rscale>  4 0.23037222E+03</rscale>
<asrwt>0</asrwt>
<pdfrwt beam="1">  1       21 0.79926086E-01 0.23037222E+03</pdfrwt>
<pdfrwt beam="2">  1       -3 0.73339636E-01 0.23037222E+03</pdfrwt>
<totfact> 0.12099634E+02</totfact>
</mgrwt>
</event>
<event>
 5    0  0.2306346E+000  0.1763383E+03  0.7546771E-02  0.1171395E+00
         21   -1    0    0  503  502  0.00000000000E+00  0.00000000000E+00  0.81427013955E+02  0.81427013955E+02  0.00000000000E+00 0. -1.
          2   -1    0    0  502    0 -0.00000000000E+00 -0.00000000000E+00 -0.14123905894E+04  0.14123905894E+04  0.00000000000E+00 0. -1.
         25    1    1    2    0    0  0.16893354197E+03  0.12203765016E+03 -0.16833835020E+03  0.29562565824E+03  0.12500000000E+03 0.  0.
         21    1    1    2  503  501 -0.65046114329E+02 -0.62236549003E+02 -0.12710258382E+03  0.15575446008E+03  0.00000000000E+00 0. -1.
          2    1    1    2  501    0 -0.10388742764E+03 -0.59801101155E+02 -0.10355226414E+04  0.10424374850E+04  0.00000000000E+00 0. -1.
<mgrwt>
<rscale>  4 0.17633828E+03</rscale>
<asrwt>0</asrwt>
<pdfrwt beam="1">  1       21 0.12527233E-01 0.17633828E+03</pdfrwt>
<pdfrwt beam="2">  1        2 0.21729087E+00 0.17633828E+03</pdfrwt>
<totfact> 0.10677169E+04</totfact>
</mgrwt>
</event>
<event>
 5    0  0.2419376E+000  0.2436074E+03  0.7546771E-02  0.1117413E+00
         21   -1    0    0  503  502  0.00000000000E+00  0.00000000000E+00  0.12616367732E+04  0.12616367732E+04  0.00000000000E+00 0. -1.
          2   -1    0    0  502    0 -0.00000000000E+00 -0.00000000000E+00 -0.12987808043E+04  0.12987808043E+04  0.00000000000E+00 0. -1.
         25    1    1    2    0    0  0.12005273417E+03 -0.22027340330E+03  0.12002829349E+04  0.12325733872E+04  0.12500000000E+03 0.  0.
         21    1    1    2  503  501 -0.30316064405E+02  0.31740179561E+02  0.23472029545E+02  0.49773877993E+02  0.00000000000E+00 0. -1.
          2    1    1    2  501    0 -0.89736669762E+02  0.18853322374E+03 -0.12608989955E+04  0.12780703123E+04  0.00000000000E+00 0. -1.
<mgrwt>
<rscale>  4 0.24360738E+03</rscale>
<asrwt>0</asrwt>
<pdfrwt beam="1">  1       21 0.19409797E+00 0.24360738E+03</pdfrwt>
<pdfrwt beam="2">  1        2 0.19981243E+00 0.24360738E+03</pdfrwt>
<totfact> 0.31236506E+01</totfact>
</mgrwt>
</event>
<event>
 5    0  0.2306346E+000  0.2611817E+03  0.7546771E-02  0.1106435E+00
         21   -1    0    0  503  502  0.00000000000E+00  0.00000000000E+00  0.16006559830E+03  0.16006559830E+03  0.00000000000E+00 0.  1.
          2   -1    0    0  502    0 -0.00000000000E+00 -0.00000000000E+00 -0.23442758768E+04  0.23442758768E+04  0.00000000000E+00 0. -1.
         25    1    1    2    0    0  0.20813612255E+03 -0.15831792288E+03 -0.15811628238E+04  0.16075092801E+04  0.12500000000E+03 0.  0.
         21    1    1    2  503  501 -0.22031035875E+03  0.60625192027E+02  0.52071246502E+02  0.23435759598E+03  0.00000000000E+00 0.  1.
          2    1    1    2  501    0  0.12174236198E+02  0.97692730851E+02 -0.65511870128E+03  0.66247459910E+03  0.00000000000E+00 0. -1.
<mgrwt>
<rscale>  4 0.26118169E+03</rscale>
<asrwt>0</asrwt>
<pdfrwt beam="1">  1       21 0.24625478E-01 0.26118169E+03</pdfrwt>
<pdfrwt beam="2">  1        2 0.36065780E+00 0.26118169E+03</pdfrwt>
<totfact> 0.94799720E+02</totfact>
</mgrwt>
</event>
<event>
 5    0  0.2306346E+000  0.2402822E+03  0.7546771E-02  0.1119605E+00
          1   -1    0    0  502    0 -0.00000000000E+00  0.00000000000E+00  0.68995086672E+03  0.68995086672E+03  0.00000000000E+00 0.  1.
         21   -1    0    0  503  502  0.00000000000E+00 -0.00000000000E+00 -0.17426692969E+03  0.17426692969E+03  0.00000000000E+00 0.  1.
         25    1    1    2    0    0  0.18174655407E+03 -0.14728329957E+03  0.10451903241E+03  0.28508491434E+03  0.12500000000E+03 0.  0.
         21    1    1    2  503  501 -0.24986407615E+02  0.25016750121E+02 -0.58933186727E+02  0.68726114759E+02  0.00000000000E+00 0.  1.
          1    1    1    2  501    0 -0.15676014645E+03  0.12226654945E+03  0.47009809135E+03  0.51040676732E+03  0.00000000000E+00 0.  1.
<mgrwt>
<rscale>  4 0.24028216E+03</rscale>
<asrwt>0</asrwt>
<pdfrwt beam="1">  1       21 0.26810297E-01 0.24028216E+03</pdfrwt>
<pdfrwt beam="2">  1        1 0.10614629E+00 0.24028216E+03</pdfrwt>
<totfact> 0.41797204E+03</totfact>
</mgrwt>
</event>
<event>
 5    0  0.2306346E+000  0.2424023E+03  0.7546771E-02  0.1118203E+00
         21   -1    0    0  503  502  0.00000000000E+00  0.00000000000E+00  0.27775955878E+03  0.27775955878E+03  0.00000000000E+00 0. -1.
          1   -1    0    0  502    0 -0.00000000000E+00 -0.00000000000E+00 -0.33029164171E+03  0.33029164171E+03  0.00000000000E+00 0. -1.
         25    1    1    2    0    0  0.21010091224E+03  0.71754216298E+02 -0.73110190188E+02  0.26506821912E+03  0.12500000000E+03 0.  0.
         21    1    1    2  503  501 -0.22232664957E+02 -0.76660424900E+01  0.11908551303E+03  0.12138541516E+03  0.00000000000E+00 0. -1.
          1    1    1    2  501    0 -0.18786824728E+03 -0.64088173808E+02 -0.98507405770E+02  0.22159756621E+03  0.00000000000E+00 0. -1.
<mgrwt>
<rscale>  4 0.24240232E+03</rscale>
<asrwt>0</asrwt>
<pdfrwt beam="1">  1       21 0.42732240E-01 0.24240232E+03</pdfrwt>
<pdfrwt beam="2">  1        1 0.50814098E-01 0.24240232E+03</pdfrwt>
<totfact> 0.44074769E+03</totfact>
</mgrwt>
</event>
<event>
 5    0  0.2306346E+000  0.3273237E+03  0.7546771E-02  0.1072327E+00
          3   -1    0    0  502    0 -0.00000000000E+00  0.00000000000E+00  0.31050493597E+03  0.31050493597E+03  0.00000000000E+00 0. -1.
         21   -1    0    0  503  502  0.00000000000E+00 -0.00000000000E+00 -0.59865884586E+03  0.59865884586E+03  0.00000000000E+00 0. -1.
         25    1    1    2    0    0  0.25763139003E+03 -0.20269555734E+02 -0.17568259535E+03  0.33656227110E+03  0.12500000000E+03 0.  0.
         21    1    1    2  503  501  0.12721113849E+03 -0.94752708503E+02 -0.48535900958E+02  0.16588093081E+03  0.00000000000E+00 0. -1.
          3    1    1    2  501    0 -0.38484252851E+03  0.11502226424E+03 -0.63935413583E+02  0.40672057992E+03  0.00000000000E+00 0. -1.
<mgrwt>
<rscale>  4 0.32732367E+03</rscale>
<asrwt>0</asrwt>
<pdfrwt beam="1">  1       21 0.92101360E-01 0.32732367E+03</pdfrwt>
<pdfrwt beam="2">  1        3 0.47769991E-01 0.32732367E+03</pdfrwt>
<totfact> 0.20783984E+02</totfact>
</mgrwt>
</event>
<event>
 5    0  0.2306346E+000  0.4111037E+03  0.7546771E-02  0.1040001E+00
          2   -1    0    0  502    0 -0.00000000000E+00  0.00000000000E+00  0.82940714085E+03  0.82940714085E+03  0.00000000000E+00 0. -1.
         21   -1    0    0  503  502  0.00000000000E+00 -0.00000000000E+00 -0.46816843526E+03  0.46816843526E+03  0.00000000000E+00 0.  1.
         25    1    1    2    0    0 -0.45767196269E+03  0.46250689278E+02 -0.13598115093E+03  0.49570013627E+03  0.12500000000E+03 0.  0.
         21    1    1    2  503  501  0.87392330328E+02  0.37731694855E+02 -0.70807125725E+02  0.11863704839E+03  0.00000000000E+00 0.  1.
          2    1    1    2  501    0  0.37027963237E+03 -0.83982384133E+02  0.56802698224E+03  0.68323839145E+03  0.00000000000E+00 0. -1.
<mgrwt>
<rscale>  4 0.41110371E+03</rscale>
<asrwt>0</asrwt>
<pdfrwt beam="1">  1       21 0.72025913E-01 0.41110371E+03</pdfrwt>
<pdfrwt beam="2">  1        2 0.12760110E+00 0.41110371E+03</pdfrwt>
<totfact> 0.68017507E+02</totfact>
</mgrwt>
</event>
<event>
 5    0  0.2306346E+000  0.2206719E+03  0.7546771E-02  0.1133383E+00
         21   -1    0    0  503  502  0.00000000000E+00  0.00000000000E+00  0.49937082142E+03  0.49937082142E+03  0.00000000000E+00 0. -1.
          2   -1    0    0  502    0 -0.00000000000E+00 -0.00000000000E+00 -0.28097914446E+03  0.28097914446E+03  0.00000000000E+00 0. -1.
         25    1    1    2    0    0  0.21621684657E+03 -0.40962755406E+02  0.32179270140E+03  0.40939371606E+03  0.12500000000E+03 0.  0.
         21    1    1    2  503  501 -0.59639420262E+02 -0.45930198046E+02  0.83290265785E+02  0.11226625457E+03  0.00000000000E+00 0.  1.
          2    1    1    2  501    0 -0.15657742631E+03  0.86892953452E+02 -0.18669129023E+03  0.25868999524E+03  0.00000000000E+00 0. -1.
<mgrwt>
<rscale>  4 0.22067185E+03</rscale>
<asrwt>0</asrwt>
<pdfrwt beam="1">  1       21 0.76826280E-01 0.22067185E+03</pdfrwt>
<pdfrwt beam="2">  1        2 0.43227561E-01 0.22067185E+03</pdfrwt>
<totfact> 0.21669691E+03</totfact>
</mgrwt>
</event>
<event>
 5    0  0.2306346E+000  0.4751455E+03  0.7546771E-02  0.1020478E+00
         21   -1    0    0  503  502  0.00000000000E+00  0.00000000000E+00  0.57028114392E+03  0.57028114392E+03  0.00000000000E+00 0.  1.
          2   -1    0    0  502    0 -0.00000000000E+00 -0.00000000000E+00 -0.64054385228E+03  0.64054385228E+03  0.00000000000E+00 0.  1.
         25    1    1    2    0    0  0.16559202946E+03 -0.47024607452E+03  0.19912399120E+03  0.55120545597E+03  0.12500000000E+03 0.  0.
         21    1    1    2  503  501  0.20923229177E+02  0.63991045862E+02  0.70930800132E+02  0.97794753832E+02  0.00000000000E+00 0. -1.
          2    1    1    2  501    0 -0.18651525864E+03  0.40625502866E+03 -0.34031749969E+03  0.56182478640E+03  0.00000000000E+00 0.  1.
<mgrwt>
<rscale>  4 0.47514551E+03</rscale>
<asrwt>0</asrwt>
<pdfrwt beam="1">  1       21 0.87735561E-01 0.47514551E+03</pdfrwt>
<pdfrwt beam="2">  1        2 0.98545208E-01 0.47514551E+03</pdfrwt>
<totfact> 0.58736342E+02</totfact>
</mgrwt>
</event>
<event>
 5    0  0.2306346E+000  0.2522068E+03  0.7546771E-02  0.1111918E+00
         21   -1    0    0  503  502  0.00000000000E+00  0.00000000000E+00  0.80625604242E+03  0.80625604242E+03  0.00000000000E+00 0.  1.
          4   -1    0    0  502    0 -0.00000000000E+00 -0.00000000000E+00 -0.14558710998E+03  0.14558710998E+03  0.00000000000E+00 0.  1.
         25    1    1    2    0    0  0.24073692838E+03 -0.61128401121E+02  0.71693640028E+02  0.28715140280E+03  0.12500000000E+03 0.  0.
         21    1    1    2  503  501 -0.19400808969E+03  0.91209382229E+02  0.56474465412E+03  0.60406524038E+03  0.00000000000E+00 0.  1.
          4    1    1    2  501    0 -0.46728838685E+02 -0.30080981108E+02  0.24230638281E+02  0.60626509225E+02  0.00000000000E+00 0.  1.
<mgrwt>
<rscale>  4 0.25220679E+03</rscale>
<asrwt>0</asrwt>
<pdfrwt beam="1">  1       21 0.12403939E+00 0.25220679E+03</pdfrwt>
<pdfrwt beam="2">  1        4 0.22398017E-01 0.25220679E+03</pdfrwt>
<totfact> 0.37131016E+02</totfact>
</mgrwt>
</event>
<event>
 5    0  0.2306346E+000  0.2464236E+03  0.7546771E-02  0.1115586E+00
         21   -1    0    0  501  502  0.00000000000E+00  0.00000000000E+00  0.39296307609E+02  0.39296307609E+02  0.00000000000E+00 0. -1.
         -1   -1    0    0    0  501 -0.00000000000E+00 -0.00000000000E+00 -0.21529611870E+04  0.21529611870E+04  0.00000000000E+00 0. -1.
         25    1    1    2    0    0 -0.14406680417E+03 -0.15602681135E+03 -0.17197308583E+04  0.17372964154E+04  0.12500000000E+03 0.  0.
         21    1    1    2  503  502  0.35040755964E+02  0.20796880773E+02 -0.26698708862E+02  0.48715355724E+02  0.00000000000E+00 0. -1.
         -1    1    1    2    0  503  0.10902604821E+03  0.13522993058E+03 -0.36723531220E+03  0.40624572347E+03  0.00000000000E+00 0. -1.
<mgrwt>
<rscale>  4 0.24642364E+03</rscale>
<asrwt>0</asrwt>
<pdfrwt beam="1">  1       21 0.60455865E-02 0.24642364E+03</pdfrwt>
<pdfrwt beam="2">  1       -1 0.33122476E+00 0.24642364E+03</pdfrwt>
<totfact> 0.45169948E+02</totfact>
</mgrwt>
</event>
<event>
 5    0  0.2306346E+000  0.2688359E+03  0.7546771E-02  0.1101948E+00
         21   -1    0    0  501  502  0.00000000000E+00  0.00000000000E+00  0.47170834404E+03  0.47170834404E+03  0.00000000000E+00 0. -1.
         -1   -1    0    0    0  501 -0.00000000000E+00 -0.00000000000E+00 -0.14694274717E+04  0.14694274717E+04  0.00000000000E+00 0. -1.
         25    1    1    2    0    0  0.25773539403E+03 -0.23553729967E+03  0.20711285455E+03  0.42476592071E+03  0.12500000000E+03 0.  0.
         21    1    1    2  503  502 -0.12664085761E+03  0.13065396733E+03  0.95327334156E+02  0.20541583832E+03  0.00000000000E+00 0. -1.
         -1    1    1    2    0  503 -0.13109453642E+03  0.10488333234E+03 -0.13001593164E+04  0.13109540568E+04  0.00000000000E+00 0. -1.
<mgrwt>
<rscale>  4 0.26883592E+03</rscale>
<asrwt>0</asrwt>
<pdfrwt beam="1">  1       21 0.72570516E-01 0.26883592E+03</pdfrwt>
<pdfrwt beam="2">  1       -1 0.22606576E+00 0.26883592E+03</pdfrwt>
<totfact> 0.17382698E+01</totfact>
</mgrwt>
</event>
<event>
 5    0  0.2306346E+000  0.1885070E+03  0.7546771E-02  0.1159815E+00
         21   -1    0    0  503  502  0.00000000000E+00  0.00000000000E+00  0.10964183632E+03  0.10964183632E+03  0.00000000000E+00 0.  1.
          2   -1    0    0  502    0 -0.00000000000E+00 -0.00000000000E+00 -0.11444730822E+04  0.11444730822E+04  0.00000000000E+00 0.  1.
         25    1    1    2    0    0 -0.19206990881E+03 -0.65056666734E+02 -0.70407917349E+03  0.74328709278E+03  0.12500000000E+03 0.  0.
         21    1    1    2  503  501  0.12451131225E+03  0.56158329624E+02  0.33187446846E+02  0.14056397651E+03  0.00000000000E+00 0.  1.
          2    1    1    2  501    0  0.67558596559E+02  0.88983371108E+01 -0.36393951922E+03  0.37026384919E+03  0.00000000000E+00 0.  1.
<mgrwt>
<rscale>  4 0.18850703E+03</rscale>
<asrwt>0</asrwt>
<pdfrwt beam="1">  1       21 0.16867975E-01 0.18850703E+03</pdfrwt>
<pdfrwt beam="2">  1        2 0.17607278E+00 0.18850703E+03</pdfrwt>
<totfact> 0.87017113E+03</totfact>
</mgrwt>
</event>
<event>
 5    0  0.2306346E+000  0.2589650E+03  0.7546771E-02  0.1107767E+00
          2   -1    0    0  502    0 -0.00000000000E+00  0.00000000000E+00  0.17919316718E+04  0.17919316718E+04  0.00000000000E+00 0.  1.
         21   -1    0    0  503  502  0.00000000000E+00 -0.00000000000E+00 -0.29930863580E+03  0.29930863580E+03  0.00000000000E+00 0. -1.
         25    1    1    2    0    0 -0.21136741275E+03  0.15982089158E+03  0.14418309644E+03  0.32654657532E+03  0.12500000000E+03 0.  0.
         21    1    1    2  503  501  0.81069520418E+02  0.22843339830E+02 -0.19112702816E+03  0.20886269702E+03  0.00000000000E+00 0. -1.
          2    1    1    2  501    0  0.13029789233E+03 -0.18266423141E+03  0.15395669677E+04  0.15558310353E+04  0.00000000000E+00 0.  1.
<mgrwt>
<rscale>  4 0.25896499E+03</rscale>
<asrwt>0</asrwt>
<pdfrwt beam="1">  1       21 0.46047483E-01 0.25896499E+03</pdfrwt>
<pdfrwt beam="2">  1        2 0.27568179E+00 0.25896499E+03</pdfrwt>
<totfact> 0.53417400E+02</totfact>
</mgrwt>
</event>
<event>
 5    0  0.2306346E+000  0.2545869E+03  0.7546771E-02  0.1110440E+00
          1   -1    0    0  502    0 -0.00000000000E+00  0.00000000000E+00  0.25781520867E+04  0.25781520867E+04  0.00000000000E+00 0.  1.
         21   -1    0    0  503  502  0.00000000000E+00 -0.00000000000E+00 -0.10814158347E+03  0.10814158347E+03  0.00000000000E+00 0. -1.
         25    1    1    2    0    0 -0.13413904134E+02 -0.23778582403E+03  0.14300908624E+03  0.30462867508E+03  0.12500000000E+03 0.  0.
         21    1    1    2  503  501  0.17161629946E+02  0.17043971667E+02 -0.15536120996E+02  0.28746992333E+02  0.00000000000E+00 0.  1.
          1    1    1    2  501    0 -0.37477258119E+01  0.22074185237E+03  0.23425375379E+04  0.23529180027E+04  0.00000000000E+00 0.  1.
<mgrwt>
<rscale>  4 0.25458692E+03</rscale>
<asrwt>0</asrwt>
<pdfrwt beam="1">  1       21 0.16637169E-01 0.25458692E+03</pdfrwt>
<pdfrwt beam="2">  1        1 0.39663874E+00 0.25458692E+03</pdfrwt>
<totfact> 0.50548711E+02</totfact>
</mgrwt>
</event>
<event>
 5    0  0.2306346E+000  0.3164980E+03  0.7546771E-02  0.1077272E+00
         21   -1    0    0  501  502  0.00000000000E+00  0.00000000000E+00  0.63587066273E+03  0.63587066273E+03  0.00000000000E+00 0.  1.
         -3   -1    0    0    0  501 -0.00000000000E+00 -0.00000000000E+00 -0.28354135410E+03  0.28354135410E+03  0.00000000000E+00 0.  1.
         25    1    1    2    0    0 -0.28272125117E+03  0.76806502989E+02  0.47956880041E+03  0.57570980458E+03  0.12500000000E+03 0.  0.
         21    1    1    2  503  502  0.20366688451E+02  0.27219297542E+02  0.29938188867E+00  0.33996790828E+02  0.00000000000E+00 0.  1.
         -3    1    1    2    0  503  0.26235456272E+03 -0.10402580053E+03 -0.12753887367E+03  0.30970542142E+03  0.00000000000E+00 0.  1.
<mgrwt>
<rscale>  4 0.31649801E+03</rscale>
<asrwt>0</asrwt>
<pdfrwt beam="1">  1       21 0.97826256E-01 0.31649801E+03</pdfrwt>
<pdfrwt beam="2">  1       -3 0.43621747E-01 0.31649801E+03</pdfrwt>
<totfact> 0.21642394E+02</totfact>
</mgrwt>
</event>
<event>
 5    0  0.2306346E+000  0.2541289E+03  0.7546771E-02  0.1110723E+00
         -2   -1    0    0    0  501 -0.00000000000E+00  0.00000000000E+00  0.75278241732E+03  0.75278241732E+03  0.00000000000E+00 0.  1.
         21   -1    0    0  501  502  0.00000000000E+00 -0.00000000000E+00 -0.92117508187E+03  0.92117508187E+03  0.00000000000E+00 0.  1.
         25    1    1    2    0    0 -0.16478844018E+03  0.13897837933E+03 -0.59219436211E+03  0.64248687337E+03  0.12500000000E+03 0.  0.
         21    1    1    2  503  502 -0.23131863606E+02 -0.21772394846E+02 -0.28608197684E+03  0.28784026432E+03  0.00000000000E+00 0.  1.
         -2    1    1    2    0  503  0.18792030379E+03 -0.11720598448E+03  0.70988367440E+03  0.74363036151E+03  0.00000000000E+00 0.  1.
<mgrwt>
<rscale>  4 0.25412887E+03</rscale>
<asrwt>0</asrwt>
<pdfrwt beam="1">  1       21 0.14171924E+00 0.25412887E+03</pdfrwt>
<pdfrwt beam="2">  1       -2 0.11581268E+00 0.25412887E+03</pdfrwt>
<totfact> 0.16483136E+01</totfact>
</mgrwt>
</event>
<event>
 5    0  0.2306346E+000  0.3606447E+03  0.7546771E-02  0.1058329E+00
         21   -1    0    0  503  502  0.00000000000E+00  0.00000000000E+00  0.85748663830E+03  0.85748663830E+03  0.00000000000E+00 0. -1.
          1   -1    0    0  502    0 -0.00000000000E+00 -0.00000000000E+00 -0.20301336286E+03  0.20301336286E+03  0.00000000000E+00 0. -1.
         25    1    1    2    0    0 -0.11158238704E+02  0.33683609406E+03  0.57821126333E+03  0.68083502084E+03  0.12500000000E+03 0.  0.
         21    1    1    2  503  501  0.27792657968E+02  0.54134364686E+01  0.13266657150E+02  0.31268855484E+02  0.00000000000E+00 0. -1.
          1    1    1    2  501    0 -0.16634419264E+02 -0.34224953053E+03  0.62995354957E+02  0.34839612484E+03  0.00000000000E+00 0. -1.
<mgrwt>
<rscale>  4 0.36064473E+03</rscale>
<asrwt>0</asrwt>
<pdfrwt beam="1">  1       21 0.13192102E+00 0.36064473E+03</pdfrwt>
<pdfrwt beam="2">  1        1 0.31232826E-01 0.36064473E+03</pdfrwt>
<totfact> 0.60452802E+02</totfact>
</mgrwt>
</event>
<event>
 5    0  0.2306346E+000  0.2375834E+03  0.7546771E-02  0.1121413E+00
          2   -1    0    0  502    0 -0.00000000000E+00  0.00000000000E+00  0.96343708282E+03  0.96343708282E+03  0.00000000000E+00 0.  1.
         21   -1    0    0  503  502  0.00000000000E+00 -0.00000000000E+00 -0.13141195107E+03  0.13141195107E+03  0.00000000000E+00 0. -1.
         25    1    1    2    0    0 -0.25934404405E+03 -0.82486883734E+02  0.15885742074E+03  0.33900457120E+03  0.12500000000E+03 0.  0.
         21    1    1    2  503  501  0.10037204042E+03 -0.24919210704E+02  0.75245335181E+02  0.12789595000E+03  0.00000000000E+00 0. -1.
          2    1    1    2  501    0  0.15897200363E+03  0.10740609444E+03  0.59792237583E+03  0.62794851268E+03  0.00000000000E+00 0.  1.
<mgrwt>
<rscale>  4 0.23758343E+03</rscale>
<asrwt>0</asrwt>
<pdfrwt beam="1">  1       21 0.20217224E-01 0.23758343E+03</pdfrwt>
<pdfrwt beam="2">  1        2 0.14822109E+00 0.23758343E+03</pdfrwt>
<totfact> 0.78412257E+03</totfact>
</mgrwt>
</event>
<event>
 5    0  0.2306346E+000  0.1988297E+03  0.7546771E-02  0.1150730E+00
         21   -1    0    0  503  502  0.00000000000E+00  0.00000000000E+00  0.12222549585E+04  0.12222549585E+04  0.00000000000E+00 0.  1.
          1   -1    0    0  502    0 -0.00000000000E+00 -0.00000000000E+00 -0.73878147360E+03  0.73878147360E+03  0.00000000000E+00 0.  1.
         25    1    1    2    0    0  0.12371698074E+03  0.16009688912E+03  0.10536296198E+02  0.23806074596E+03  0.12500000000E+03 0.  0.
         21    1    1    2  503  501 -0.29192628674E+02 -0.42193533257E+02  0.10882090117E+04  0.10894178982E+04  0.00000000000E+00 0.  1.
          1    1    1    2  501    0 -0.94524352063E+02 -0.11790335586E+03 -0.61527182300E+03  0.63355778792E+03  0.00000000000E+00 0.  1.
<mgrwt>
<rscale>  4 0.19882971E+03</rscale>
<asrwt>0</asrwt>
<pdfrwt beam="1">  1       21 0.18803922E+00 0.19882971E+03</pdfrwt>
<pdfrwt beam="2">  1        1 0.11365869E+00 0.19882971E+03</pdfrwt>
<totfact> 0.46330336E+01</totfact>
</mgrwt>
</event>
<event>
 5    0  0.2306346E+000  0.2438217E+03  0.7546771E-02  0.1117273E+00
         21   -1    0    0  503  502  0.00000000000E+00  0.00000000000E+00  0.13952231888E+03  0.13952231888E+03  0.00000000000E+00 0.  1.
          1   -1    0    0  502    0 -0.00000000000E+00 -0.00000000000E+00 -0.35312943193E+04  0.35312943193E+04  0.00000000000E+00 0.  1.
         25    1    1    2    0    0  0.86577904723E+02  0.24816555258E+03 -0.13244331440E+03  0.31976257849E+03  0.12500000000E+03 0.  0.
         21    1    1    2  503  501 -0.57201586259E+02 -0.42626295037E+02  0.12687550101E+02  0.72456859073E+02  0.00000000000E+00 0.  1.
          1    1    1    2  501    0 -0.29376318463E+02 -0.20553925754E+03 -0.32720162361E+04  0.32785972006E+04  0.00000000000E+00 0.  1.
<mgrwt>
<rscale>  4 0.24382166E+03</rscale>
<asrwt>0</asrwt>
<pdfrwt beam="1">  1       21 0.21464976E-01 0.24382166E+03</pdfrwt>
<pdfrwt beam="2">  1        1 0.54327596E+00 0.24382166E+03</pdfrwt>
<totfact> 0.67046506E+01</totfact>
</mgrwt>
</event>
<event>
 5    0  0.2306346E+000  0.3157870E+03  0.7546771E-02  0.1077605E+00
          2   -1    0    0  502    0 -0.00000000000E+00  0.00000000000E+00  0.98013862137E+03  0.98013862137E+03  0.00000000000E+00 0.  1.
         21   -1    0    0  503  502  0.00000000000E+00 -0.00000000000E+00 -0.18159447764E+03  0.18159447764E+03  0.00000000000E+00 0.  1.
         25    1    1    2    0    0  0.95056148195E+02  0.27145418712E+03  0.26446847251E+02  0.31471810044E+03  0.12500000000E+03 0.  0.
         21    1    1    2  503  501 -0.31151618526E+02  0.24118894735E+02  0.46635256339E+02  0.61049091343E+02  0.00000000000E+00 0.  1.
          2    1    1    2  501    0 -0.63904529669E+02 -0.29557308186E+03  0.72546204014E+03  0.78596590722E+03  0.00000000000E+00 0.  1.
<mgrwt>
<rscale>  4 0.31578704E+03</rscale>
<asrwt>0</asrwt>
<pdfrwt beam="1">  1       21 0.27937612E-01 0.31578704E+03</pdfrwt>
<pdfrwt beam="2">  1        2 0.15079055E+00 0.31578704E+03</pdfrwt>
<totfact> 0.40319491E+03</totfact>
</mgrwt>
</event>
<event>
 5    0  0.2306346E+000  0.2754736E+03  0.7546771E-02  0.1098187E+00
          2   -1    0    0  502    0 -0.00000000000E+00  0.00000000000E+00  0.64649014581E+03  0.64649014581E+03  0.00000000000E+00 0.  1.
         21   -1    0    0  503  502  0.00000000000E+00 -0.00000000000E+00 -0.28723711195E+03  0.28723711195E+03  0.00000000000E+00 0. -1.
         25    1    1    2    0    0  0.25084597440E+03 -0.18995116092E+03  0.17558437303E+03  0.38139221080E+03  0.12500000000E+03 0.  0.
         21    1    1    2  503  501 -0.70209930854E+02  0.60778911666E+02 -0.13504075404E+03  0.16388872977E+03  0.00000000000E+00 0. -1.
          2    1    1    2  501    0 -0.18063604355E+03  0.12917224926E+03  0.31870941488E+03  0.38844631719E+03  0.00000000000E+00 0.  1.
<mgrwt>
<rscale>  4 0.27547359E+03</rscale>
<asrwt>0</asrwt>
<pdfrwt beam="1">  1       21 0.44190325E-01 0.27547359E+03</pdfrwt>
<pdfrwt beam="2">  1        2 0.99460022E-01 0.27547359E+03</pdfrwt>
<totfact> 0.27748148E+03</totfact>
</mgrwt>
</event>
<event>
 5    0  0.2306346E+000  0.2890247E+03  0.7546771E-02  0.1090859E+00
         21   -1    0    0  503  502  0.00000000000E+00  0.00000000000E+00  0.17720287083E+03  0.17720287083E+03  0.00000000000E+00 0.  1.
          3   -1    0    0  502    0 -0.00000000000E+00 -0.00000000000E+00 -0.16943398079E+04  0.16943398079E+04  0.00000000000E+00 0.  1.
         25    1    1    2    0    0  0.11545716200E+03 -0.21740425174E+03 -0.26274980664E+03  0.38112652206E+03  0.12500000000E+03 0.  0.
         21    1    1    2  503  501 -0.26578148345E+01 -0.20992064183E+02  0.10427147113E+03  0.10639675949E+03  0.00000000000E+00 0.  1.
          3    1    1    2  501    0 -0.11279934717E+03  0.23839631592E+03 -0.13586586016E+04  0.13840193972E+04  0.00000000000E+00 0.  1.
<mgrwt>
<rscale>  4 0.28902471E+03</rscale>
<asrwt>0</asrwt>
<pdfrwt beam="1">  1       21 0.27261982E-01 0.28902471E+03</pdfrwt>
<pdfrwt beam="2">  1        3 0.26066765E+00 0.28902471E+03</pdfrwt>
<totfact> 0.44532213E+01</totfact>
</mgrwt>
</event>
<event>
 5    0  0.2306346E+000  0.2582445E+03  0.7546771E-02  0.1108203E+00
          1   -1    0    0  502    0 -0.00000000000E+00  0.00000000000E+00  0.11885618958E+04  0.11885618958E+04  0.00000000000E+00 0.  1.
         21   -1    0    0  503  502  0.00000000000E+00 -0.00000000000E+00 -0.34696544632E+03  0.34696544632E+03  0.00000000000E+00 0. -1.
         25    1    1    2    0    0 -0.84378514523E+02 -0.19757249438E+03 -0.24351469842E+03  0.34796412545E+03  0.12500000000E+03 0.  0.
         21    1    1    2  503  501 -0.59064310340E+02  0.21985260027E+02 -0.14624967624E+02  0.64698022322E+02  0.00000000000E+00 0. -1.
          1    1    1    2  501    0  0.14344282486E+03  0.17558723435E+03  0.10997361156E+04  0.11228651944E+04  0.00000000000E+00 0.  1.
<mgrwt>
<rscale>  4 0.25824451E+03</rscale>
<asrwt>0</asrwt>
<pdfrwt beam="1">  1       21 0.53379300E-01 0.25824451E+03</pdfrwt>
<pdfrwt beam="2">  1        1 0.18285567E+00 0.25824451E+03</pdfrwt>
<totfact> 0.42015278E+02</totfact>
</mgrwt>
</event>
<event>
 5    0  0.2306346E+000  0.2598924E+03  0.7546771E-02  0.1107208E+00
         21   -1    0    0  501  502  0.00000000000E+00  0.00000000000E+00  0.61822592554E+02  0.61822592554E+02  0.00000000000E+00 0.  1.
         -3   -1    0    0    0  501 -0.00000000000E+00 -0.00000000000E+00 -0.15584197597E+04  0.15584197597E+04  0.00000000000E+00 0.  1.
         25    1    1    2    0    0  0.77828184615E+02  0.21136475059E+03 -0.11917029301E+04  0.12192264587E+04  0.12500000000E+03 0.  0.
         21    1    1    2  503  502  0.23291213381E+02  0.29087871414E+01 -0.30392160301E+02  0.38400847272E+02  0.00000000000E+00 0.  1.
         -3    1    1    2    0  503 -0.10111939800E+03 -0.21427353773E+03 -0.27450207680E+03  0.36261504628E+03  0.00000000000E+00 0.  1.
<mgrwt>
<rscale>  4 0.25989245E+03</rscale>
<asrwt>0</asrwt>
<pdfrwt beam="1">  1       21 0.95111687E-02 0.25989245E+03</pdfrwt>
<pdfrwt beam="2">  1       -3 0.23975687E+00 0.25989245E+03</pdfrwt>
<totfact> 0.40749377E+02</totfact>
</mgrwt>
</event>
<event>
 5    0  0.2306346E+000  0.2724550E+03  0.7546771E-02  0.1099883E+00
         21   -1    0    0  503  502  0.00000000000E+00  0.00000000000E+00  0.16661177186E+03  0.16661177186E+03  0.00000000000E+00 0. -1.
          2   -1    0    0  502    0 -0.00000000000E+00 -0.00000000000E+00 -0.17523758284E+04  0.17523758284E+04  0.00000000000E+00 0. -1.
         25    1    1    2    0    0 -0.59703554771E+02 -0.20856900428E+03  0.39632199927E+02  0.25349803800E+03  0.12500000000E+03 0.  0.
         21    1    1    2  503  501 -0.34148867129E+02 -0.16394987201E+02 -0.22279063429E+02  0.43946528859E+02  0.00000000000E+00 0. -1.
          2    1    1    2  501    0  0.93852421900E+02  0.22496399148E+03 -0.16031171930E+04  0.16215430334E+04  0.00000000000E+00 0. -1.
<mgrwt>
<rscale>  4 0.27245503E+03</rscale>
<asrwt>0</asrwt>
<pdfrwt beam="1">  1       21 0.25632580E-01 0.27245503E+03</pdfrwt>
<pdfrwt beam="2">  1        2 0.26959629E+00 0.27245503E+03</pdfrwt>
<totfact> 0.17942813E+03</totfact>
</mgrwt>
</event>
<event>
 5    0  0.2306346E+000  0.2541853E+03  0.7546771E-02  0.1110688E+00
          4   -1    0    0  502    0 -0.00000000000E+00  0.00000000000E+00  0.10701672155E+04  0.10701672155E+04  0.00000000000E+00 0.  1.
         21   -1    0    0  503  502  0.00000000000E+00 -0.00000000000E+00 -0.27883583963E+03  0.27883583963E+03  0.00000000000E+00 0.  1.
         25    1    1    2    0    0  0.24048337926E+03 -0.83309637967E+02 -0.15577993207E+03  0.32351992012E+03  0.12500000000E+03 0.  0.
         21    1    1    2  503  501 -0.34874283589E+02  0.61306446551E+01 -0.15123961637E+02  0.38503696905E+02  0.00000000000E+00 0.  1.
          4    1    1    2  501    0 -0.20560909567E+03  0.77178993312E+02  0.96223526961E+03  0.98697943814E+03  0.00000000000E+00 0.  1.
<mgrwt>
<rscale>  4 0.25418535E+03</rscale>
<asrwt>0</asrwt>
<pdfrwt beam="1">  1       21 0.42897822E-01 0.25418535E+03</pdfrwt>
<pdfrwt beam="2">  1        4 0.16464111E+00 0.25418535E+03</pdfrwt>
<totfact> 0.53678959E+01</totfact>
</mgrwt>
</event>
<event>
 5    0  0.2306346E+000  0.2033689E+03  0.7546771E-02  0.1146927E+00
          2   -1    0    0  502    0 -0.00000000000E+00  0.00000000000E+00  0.16429309308E+04  0.16429309308E+04  0.00000000000E+00 0.  1.
         21   -1    0    0  503  502  0.00000000000E+00 -0.00000000000E+00 -0.33208987330E+03  0.33208987330E+03  0.00000000000E+00 0. -1.
         25    1    1    2    0    0 -0.31009369254E+03 -0.65095462824E+01  0.10026773207E+04  0.10569708046E+04  0.12500000000E+03 0.  0.
         21    1    1    2  503  501  0.15703671364E+03  0.10275167134E+02 -0.27406132301E+03  0.31603119666E+03  0.00000000000E+00 0. -1.
          2    1    1    2  501    0  0.15305697890E+03 -0.37656208516E+01  0.58222505983E+03  0.60201880285E+03  0.00000000000E+00 0.  1.
<mgrwt>
<rscale>  4 0.20336889E+03</rscale>
<asrwt>0</asrwt>
<pdfrwt beam="1">  1       21 0.51090751E-01 0.20336889E+03</pdfrwt>
<pdfrwt beam="2">  1        2 0.25275860E+00 0.20336889E+03</pdfrwt>
<totfact> 0.53357171E+02</totfact>
</mgrwt>
</event>
<event>
 5    0  0.2306346E+000  0.2652247E+03  0.7546771E-02  0.1104044E+00
         21   -1    0    0  503  502  0.00000000000E+00  0.00000000000E+00  0.11100678647E+03  0.11100678647E+03  0.00000000000E+00 0. -1.
          2   -1    0    0  502    0 -0.00000000000E+00 -0.00000000000E+00 -0.99964698350E+03  0.99964698350E+03  0.00000000000E+00 0. -1.
         25    1    1    2    0    0  0.22995186223E+03  0.42910452184E+02 -0.10228907922E+03  0.28426611050E+03  0.12500000000E+03 0.  0.
         21    1    1    2  503  501 -0.78676691730E+02 -0.41242344669E+02 -0.17080706312E+03  0.19252533762E+03  0.00000000000E+00 0. -1.
          2    1    1    2  501    0 -0.15127517050E+03 -0.16681075148E+01 -0.61554405470E+03  0.63386232185E+03  0.00000000000E+00 0. -1.
<mgrwt>
<rscale>  4 0.26522475E+03</rscale>
<asrwt>0</asrwt>
<pdfrwt beam="1">  1       21 0.17077968E-01 0.26522475E+03</pdfrwt>
<pdfrwt beam="2">  1        2 0.15379184E+00 0.26522475E+03</pdfrwt>
<totfact> 0.10130351E+04</totfact>
</mgrwt>
</event>
<event>
 5    0  0.2306346E+000  0.3718749E+03  0.7546771E-02  0.1053978E+00
         21   -1    0    0  503  502  0.00000000000E+00  0.00000000000E+00  0.69482637613E+03  0.69482637613E+03  0.00000000000E+00 0. -1.
          1   -1    0    0  502    0 -0.00000000000E+00 -0.00000000000E+00 -0.93426644146E+03  0.93426644146E+03  0.00000000000E+00 0.  1.
         25    1    1    2    0    0  0.22288186658E+03  0.92929518393E+02 -0.28585899736E+03  0.39452831104E+03  0.12500000000E+03 0.  0.
         21    1    1    2  503  501 -0.35701455291E+03 -0.88149272498E+02  0.57868172160E+03  0.68564000769E+03  0.00000000000E+00 0. -1.
          1    1    1    2  501    0  0.13413268633E+03 -0.47802458950E+01 -0.53226278956E+03  0.54892449886E+03  0.00000000000E+00 0.  1.
<mgrwt>
<rscale>  4 0.37187491E+03</rscale>
<asrwt>0</asrwt>
<pdfrwt beam="1">  1       21 0.10689637E+00 0.37187491E+03</pdfrwt>
<pdfrwt beam="2">  1        1 0.14373330E+00 0.37187491E+03</pdfrwt>
<totfact> 0.12657908E+02</totfact>
</mgrwt>
</event>
<event>
 5    0  0.2306346E+000  0.2354311E+03  0.7546771E-02  0.1122874E+00
         21   -1    0    0  503  502  0.00000000000E+00  0.00000000000E+00  0.35440209570E+03  0.35440209570E+03  0.00000000000E+00 0. -1.
          2   -1    0    0  502    0 -0.00000000000E+00 -0.00000000000E+00 -0.40202481031E+03  0.40202481031E+03  0.00000000000E+00 0. -1.
         25    1    1    2    0    0  0.18674092322E+03 -0.12338639276E+03 -0.79339633357E+01  0.25648454553E+03  0.12500000000E+03 0.  0.
         21    1    1    2  503  501 -0.22821588290E+02  0.21964052917E+02  0.19425240775E+03  0.19681778993E+03  0.00000000000E+00 0. -1.
          2    1    1    2  501    0 -0.16391933493E+03  0.10142233985E+03 -0.23394115903E+03  0.30312457055E+03  0.00000000000E+00 0. -1.
<mgrwt>
<rscale>  4 0.23543107E+03</rscale>
<asrwt>0</asrwt>
<pdfrwt beam="1">  1       21 0.54523400E-01 0.23543107E+03</pdfrwt>
<pdfrwt beam="2">  1        2 0.61849970E-01 0.23543107E+03</pdfrwt>
<totfact> 0.30973830E+03</totfact>
</mgrwt>
</event>
<event>
 5    0  0.2306346E+000  0.2434566E+03  0.7546771E-02  0.1117511E+00
         21   -1    0    0  501  502  0.00000000000E+00  0.00000000000E+00  0.11403034003E+03  0.11403034003E+03  0.00000000000E+00 0. -1.
         -1   -1    0    0    0  501 -0.00000000000E+00 -0.00000000000E+00 -0.10193401232E+04  0.10193401232E+04  0.00000000000E+00 0. -1.
         25    1    1    2    0    0 -0.22821108070E+03  0.11236493401E+02 -0.24327183528E+03  0.35638847060E+03  0.12500000000E+03 0.  0.
         21    1    1    2  503  502  0.24267568627E+02 -0.15945718280E+02  0.38000944915E+02  0.47825230088E+02  0.00000000000E+00 0. -1.
         -1    1    1    2    0  503  0.20394351207E+03  0.47092248789E+01 -0.70003889280E+03  0.72915676253E+03  0.00000000000E+00 0. -1.
<mgrwt>
<rscale>  4 0.24345658E+03</rscale>
<asrwt>0</asrwt>
<pdfrwt beam="1">  1       21 0.17543129E-01 0.24345658E+03</pdfrwt>
<pdfrwt beam="2">  1       -1 0.15682156E+00 0.24345658E+03</pdfrwt>
<totfact> 0.91954216E+02</totfact>
</mgrwt>
</event>
<event>
 5    0  0.2306346E+000  0.3505812E+03  0.7546771E-02  0.1062377E+00
          4   -1    0    0  502    0 -0.00000000000E+00  0.00000000000E+00  0.46783104748E+03  0.46783104748E+03  0.00000000000E+00 0. -1.
         21   -1    0    0  503  502  0.00000000000E+00 -0.00000000000E+00 -0.74040643120E+03  0.74040643120E+03  0.00000000000E+00 0. -1.
         25    1    1    2    0    0 -0.22795317636E+03 -0.39462594870E+03 -0.34631926504E+02  0.47383189037E+03  0.12500000000E+03 0.  0.
         21    1    1    2  503  501  0.94351039265E+02  0.14462005683E+03 -0.37995857427E+03  0.41735548110E+03  0.00000000000E+00 0. -1.
          4    1    1    2  501    0  0.13360213710E+03  0.25000589187E+03  0.14201511705E+03  0.31705010720E+03  0.00000000000E+00 0. -1.
<mgrwt>
<rscale>  4 0.35058119E+03</rscale>
<asrwt>0</asrwt>
<pdfrwt beam="1">  1       21 0.11390868E+00 0.35058119E+03</pdfrwt>
<pdfrwt beam="2">  1        4 0.71974007E-01 0.35058119E+03</pdfrwt>
<totfact> 0.43143921E+01</totfact>
</mgrwt>
</event>
<event>
 5    0  0.2306346E+000  0.4220864E+03  0.7546771E-02  0.1036389E+00
          2   -1    0    0  502    0 -0.00000000000E+00  0.00000000000E+00  0.40168202144E+04  0.40168202144E+04  0.00000000000E+00 0.  1.
         21   -1    0    0  503  502  0.00000000000E+00 -0.00000000000E+00 -0.83312336828E+02  0.83312336828E+02  0.00000000000E+00 0.  1.
         25    1    1    2    0    0 -0.37415305889E+03 -0.14305842652E+03  0.57733870990E+03  0.71372348344E+03  0.12500000000E+03 0.  0.
         21    1    1    2  503  501  0.57061050993E+01 -0.21956581794E+02  0.41943398100E+02  0.47685425065E+02  0.00000000000E+00 0. -1.
          2    1    1    2  501    0  0.36844695379E+03  0.16501500831E+03  0.33142257696E+04  0.33387236427E+04  0.00000000000E+00 0.  1.
<mgrwt>
<rscale>  4 0.42208637E+03</rscale>
<asrwt>0</asrwt>
<pdfrwt beam="1">  1       21 0.12817286E-01 0.42208637E+03</pdfrwt>
<pdfrwt beam="2">  1        2 0.61797219E+00 0.42208637E+03</pdfrwt>
<totfact> 0.26055110E+02</totfact>
</mgrwt>
</event>
<event>
 5    0  0.2306346E+000  0.2599975E+03  0.7546771E-02  0.1107145E+00
         21   -1    0    0  503  502  0.00000000000E+00  0.00000000000E+00  0.21897262230E+03  0.21897262230E+03  0.00000000000E+00 0. -1.
          2   -1    0    0  502    0 -0.00000000000E+00 -0.00000000000E+00 -0.17099188858E+04  0.17099188858E+04  0.00000000000E+00 0. -1.
         25    1    1    2    0    0  0.22619062697E+03  0.32753495886E+02  0.67118748195E+02  0.26900728165E+03  0.12500000000E+03 0.  0.
         21    1    1    2  503  501 -0.33201706202E+02  0.90366209934E+02 -0.12062104876E+02  0.97025252211E+02  0.00000000000E+00 0.  1.
          2    1    1    2  501    0 -0.19298892076E+03 -0.12311970582E+03 -0.15460029069E+04  0.15628589743E+04  0.00000000000E+00 0. -1.
<mgrwt>
<rscale>  4 0.25999748E+03</rscale>
<asrwt>0</asrwt>
<pdfrwt beam="1">  1       21 0.33688095E-01 0.25999748E+03</pdfrwt>
<pdfrwt beam="2">  1        2 0.26306445E+00 0.25999748E+03</pdfrwt>
<totfact> 0.11122817E+03</totfact>
</mgrwt>
</event>
<event>
 5    0  0.2306346E+000  0.2666372E+03  0.7546771E-02  0.1103220E+00
         21   -1    0    0  503  502  0.00000000000E+00  0.00000000000E+00  0.13159885045E+03  0.13159885045E+03  0.00000000000E+00 0.  1.
          2   -1    0    0  502    0 -0.00000000000E+00 -0.00000000000E+00 -0.62914726376E+03  0.62914726376E+03  0.00000000000E+00 0.  1.
         25    1    1    2    0    0 -0.23002952715E+03 -0.50565168169E+02 -0.76917672194E+02  0.27750990593E+03  0.12500000000E+03 0.  0.
         21    1    1    2  503  501  0.19308898030E+02  0.98891934050E+01 -0.24639589277E+02  0.32828936155E+02  0.00000000000E+00 0.  1.
          2    1    1    2  501    0  0.21072062912E+03  0.40675974764E+02 -0.39599115184E+03  0.45040727213E+03  0.00000000000E+00 0.  1.
<mgrwt>
<rscale>  4 0.26663724E+03</rscale>
<asrwt>0</asrwt>
<pdfrwt beam="1">  1       21 0.20245977E-01 0.26663724E+03</pdfrwt>
<pdfrwt beam="2">  1        2 0.96791888E-01 0.26663724E+03</pdfrwt>
<totfact> 0.13339082E+04</totfact>
</mgrwt>
</event>
<event>
 5    0  0.2306346E+000  0.2571237E+03  0.7546771E-02  0.1108884E+00
         21   -1    0    0  503  502  0.00000000000E+00  0.00000000000E+00  0.15582880267E+04  0.15582880267E+04  0.00000000000E+00 0. -1.
          2   -1    0    0  502    0 -0.00000000000E+00 -0.00000000000E+00 -0.62293116655E+02  0.62293116655E+02  0.00000000000E+00 0. -1.
         25    1    1    2    0    0 -0.17880935201E+03 -0.19304554690E+03  0.80025663999E+03  0.85163082224E+03  0.12500000000E+03 0.  0.
         21    1    1    2  503  501  0.34948333764E+02  0.40063785272E+02  0.41483621520E+03  0.41822909794E+03  0.00000000000E+00 0. -1.
          2    1    1    2  501    0  0.14386101825E+03  0.15298176162E+03  0.28090205484E+03  0.35072122316E+03  0.00000000000E+00 0. -1.
<mgrwt>
<rscale>  4 0.25712372E+03</rscale>
<asrwt>0</asrwt>
<pdfrwt beam="1">  1       21 0.23973659E+00 0.25712372E+03</pdfrwt>
<pdfrwt beam="2">  1        2 0.95835576E-02 0.25712372E+03</pdfrwt>
<totfact> 0.59815857E+02</totfact>
</mgrwt>
</event>
<event>
 5    0  0.2306346E+000  0.4359905E+03  0.7546771E-02  0.1031984E+00
         21   -1    0    0  503  502  0.00000000000E+00  0.00000000000E+00  0.10590464431E+04  0.10590464431E+04  0.00000000000E+00 0. -1.
          2   -1    0    0  502    0 -0.00000000000E+00 -0.00000000000E+00 -0.90756576754E+03  0.90756576754E+03  0.00000000000E+00 0.  1.
         25    1    1    2    0    0  0.34286517335E+03 -0.42479823359E+03  0.74401624081E+03  0.93123317861E+03  0.12500000000E+03 0.  0.
         21    1    1    2  503  501 -0.20497874935E+03  0.19252350732E+03  0.94885755928E+02  0.29679099588E+03  0.00000000000E+00 0. -1.
          2    1    1    2  501    0 -0.13788642399E+03  0.23227472627E+03 -0.68742132116E+03  0.73858803617E+03  0.00000000000E+00 0.  1.
<mgrwt>
<rscale>  4 0.43599053E+03</rscale>
<asrwt>0</asrwt>
<pdfrwt beam="1">  1       21 0.16293022E+00 0.43599053E+03</pdfrwt>
<pdfrwt beam="2">  1        2 0.13962550E+00 0.43599053E+03</pdfrwt>
<totfact> 0.78382139E+01</totfact>
</mgrwt>
</event>
<event>
 5    0  0.2306346E+000  0.2877660E+03  0.7546771E-02  0.1091521E+00
          1   -1    0    0  502    0 -0.00000000000E+00  0.00000000000E+00  0.66544831164E+03  0.66544831164E+03  0.00000000000E+00 0. -1.
         21   -1    0    0  503  502  0.00000000000E+00 -0.00000000000E+00 -0.14842830272E+03  0.14842830272E+03  0.00000000000E+00 0. -1.
         25    1    1    2    0    0 -0.26443833328E+03  0.96644107670E+01  0.20098302103E+03  0.35502141863E+03  0.12500000000E+03 0.  0.
         21    1    1    2  503  501  0.13349969583E+02 -0.72251409101E+02  0.79726128987E+02  0.10841929463E+03  0.00000000000E+00 0.  1.
          1    1    1    2  501    0  0.25108836369E+03  0.62586998334E+02  0.23631085891E+03  0.35043590110E+03  0.00000000000E+00 0. -1.
<mgrwt>
<rscale>  4 0.28776598E+03</rscale>
<asrwt>0</asrwt>
<pdfrwt beam="1">  1       21 0.22835124E-01 0.28776598E+03</pdfrwt>
<pdfrwt beam="2">  1        1 0.10237666E+00 0.28776598E+03</pdfrwt>
<totfact> 0.59205307E+03</totfact>
</mgrwt>
</event>
<event>
 5    0  0.2306346E+000  0.1926567E+03  0.7546771E-02  0.1156087E+00
         21   -1    0    0  503  502  0.00000000000E+00  0.00000000000E+00  0.51671021098E+03  0.51671021098E+03  0.00000000000E+00 0.  1.
          1   -1    0    0  502    0 -0.00000000000E+00 -0.00000000000E+00 -0.15389858800E+04  0.15389858800E+04  0.00000000000E+00 0. -1.
         25    1    1    2    0    0 -0.25116381964E+03  0.62214365435E+02 -0.48813831555E+02  0.29148187201E+03  0.12500000000E+03 0.  0.
         21    1    1    2  503  501  0.13741541992E+03  0.25653417590E+02  0.37909213938E+03  0.40404448469E+03  0.00000000000E+00 0.  1.
          1    1    1    2  501    0  0.11374839972E+03 -0.87867783025E+02 -0.13525539769E+04  0.13601697343E+04  0.00000000000E+00 0. -1.
<mgrwt>
<rscale>  4 0.19265670E+03</rscale>
<asrwt>0</asrwt>
<pdfrwt beam="1">  1       21 0.79493879E-01 0.19265670E+03</pdfrwt>
<pdfrwt beam="2">  1        1 0.23676706E+00 0.19265670E+03</pdfrwt>
<totfact> 0.10693905E+02</totfact>
</mgrwt>
</event>
<event>
 5    0  0.2306346E+000  0.4332346E+03  0.7546771E-02  0.1032843E+00
         21   -1    0    0  503  502  0.00000000000E+00  0.00000000000E+00  0.58133929611E+03  0.58133929611E+03  0.00000000000E+00 0.  1.
          2   -1    0    0  502    0 -0.00000000000E+00 -0.00000000000E+00 -0.47379477711E+03  0.47379477711E+03  0.00000000000E+00 0.  1.
         25    1    1    2    0    0 -0.41984152346E+03 -0.15946919896E+02  0.32622909887E+03  0.54641708797E+03  0.12500000000E+03 0.  0.
         21    1    1    2  503  501  0.89117179540E+01 -0.30863472103E+02  0.13002996288E+02  0.34656176068E+02  0.00000000000E+00 0. -1.
          2    1    1    2  501    0  0.41092980551E+03  0.46810392000E+02 -0.23168757616E+03  0.47406080918E+03  0.00000000000E+00 0.  1.
<mgrwt>
<rscale>  4 0.43323465E+03</rscale>
<asrwt>0</asrwt>
<pdfrwt beam="1">  1       21 0.89436815E-01 0.43323465E+03</pdfrwt>
<pdfrwt beam="2">  1        2 0.72891504E-01 0.43323465E+03</pdfrwt>
<totfact> 0.80661664E+02</totfact>
</mgrwt>
</event>
<event>
 5    0  0.2306346E+000  0.2153239E+03  0.7546771E-02  0.1137418E+00
          2   -1    0    0  502    0 -0.00000000000E+00  0.00000000000E+00  0.16502342080E+04  0.16502342080E+04  0.00000000000E+00 0.  1.
         21   -1    0    0  503  502  0.00000000000E+00 -0.00000000000E+00 -0.94949159672E+02  0.94949159672E+02  0.00000000000E+00 0.  1.
         25    1    1    2    0    0  0.25641444191E+03 -0.12955870602E+03  0.31350592735E+03  0.44322092777E+03  0.12500000000E+03 0.  0.
         21    1    1    2  503  501 -0.10122897114E+03  0.73764015608E+02  0.13976290213E+03  0.18767552693E+03  0.00000000000E+00 0.  1.
          2    1    1    2  501    0 -0.15518547077E+03  0.55794690416E+02  0.11020162188E+04  0.11142869129E+04  0.00000000000E+00 0.  1.
<mgrwt>
<rscale>  4 0.21532387E+03</rscale>
<asrwt>0</asrwt>
<pdfrwt beam="1">  1       21 0.14607564E-01 0.21532387E+03</pdfrwt>
<pdfrwt beam="2">  1        2 0.25388217E+00 0.21532387E+03</pdfrwt>
<totfact> 0.59656234E+03</totfact>
</mgrwt>
</event>
<event>
 5    0  0.2306346E+000  0.2363039E+03  0.7546771E-02  0.1122280E+00
         21   -1    0    0  503  502  0.00000000000E+00  0.00000000000E+00  0.53249169237E+02  0.53249169237E+02  0.00000000000E+00 0. -1.
          2   -1    0    0  502    0 -0.00000000000E+00 -0.00000000000E+00 -0.20943680218E+04  0.20943680218E+04  0.00000000000E+00 0. -1.
         25    1    1    2    0    0 -0.22186514488E+03  0.15216387465E+03 -0.89620494674E+03  0.94402663831E+03  0.12500000000E+03 0.  0.
         21    1    1    2  503  501  0.45714371827E+02 -0.10960098020E+03 -0.14516606383E+03  0.18755096572E+03  0.00000000000E+00 0. -1.
          2    1    1    2  501    0  0.17615077305E+03 -0.42562894459E+02 -0.99974784196E+03  0.10160395870E+04  0.00000000000E+00 0. -1.
<mgrwt>
<rscale>  4 0.23630395E+03</rscale>
<asrwt>0</asrwt>
<pdfrwt beam="1">  1       21 0.81921826E-02 0.23630395E+03</pdfrwt>
<pdfrwt beam="2">  1        2 0.32221036E+00 0.23630395E+03</pdfrwt>
<totfact> 0.97321649E+03</totfact>
</mgrwt>
</event>
<event>
 5    0  0.2306346E+000  0.3581642E+03  0.7546771E-02  0.1059313E+00
         21   -1    0    0  501  502  0.00000000000E+00  0.00000000000E+00  0.10568223156E+04  0.10568223156E+04  0.00000000000E+00 0. -1.
         -2   -1    0    0    0  501 -0.00000000000E+00 -0.00000000000E+00 -0.12479326590E+03  0.12479326590E+03  0.00000000000E+00 0. -1.
         25    1    1    2    0    0  0.21184941784E+03 -0.24117064151E+03  0.42714719024E+03  0.54874691461E+03  0.12500000000E+03 0.  0.
         21    1    1    2  503  502  0.20077618939E+02 -0.22574086608E+02  0.45331520774E+02  0.54476113519E+02  0.00000000000E+00 0. -1.
         -2    1    1    2    0  503 -0.23192703677E+03  0.26374472812E+03  0.45955033865E+03  0.57839255333E+03  0.00000000000E+00 0. -1.
<mgrwt>
<rscale>  4 0.35816425E+03</rscale>
<asrwt>0</asrwt>
<pdfrwt beam="1">  1       21 0.16258804E+00 0.35816425E+03</pdfrwt>
<pdfrwt beam="2">  1       -2 0.19198965E-01 0.35816425E+03</pdfrwt>
<totfact> 0.40156605E+02</totfact>
</mgrwt>
</event>
<event>
 5    0  0.2306346E+000  0.2354765E+03  0.7546771E-02  0.1122843E+00
          1   -1    0    0  502    0 -0.00000000000E+00  0.00000000000E+00  0.18907951566E+04  0.18907951566E+04  0.00000000000E+00 0.  1.
         21   -1    0    0  503  502  0.00000000000E+00 -0.00000000000E+00 -0.59280144990E+03  0.59280144990E+03  0.00000000000E+00 0.  1.
         25    1    1    2    0    0  0.96840815508E+02  0.19533618752E+03 -0.80934799135E+02  0.26402615669E+03  0.12500000000E+03 0.  0.
         21    1    1    2  503  501 -0.19010731689E+02 -0.12206521762E+02 -0.41451096260E+03  0.41512617986E+03  0.00000000000E+00 0.  1.
          1    1    1    2  501    0 -0.77830083819E+02 -0.18312966576E+03  0.17934394684E+04  0.18044442700E+04  0.00000000000E+00 0.  1.
<mgrwt>
<rscale>  4 0.23547650E+03</rscale>
<asrwt>0</asrwt>
<pdfrwt beam="1">  1       21 0.91200224E-01 0.23547650E+03</pdfrwt>
<pdfrwt beam="2">  1        1 0.29089156E+00 0.23547650E+03</pdfrwt>
<totfact> 0.44373621E+01</totfact>
</mgrwt>
</event>
<event>
 5    0  0.2306346E+000  0.2370441E+03  0.7546771E-02  0.1121778E+00
         21   -1    0    0  503  502  0.00000000000E+00  0.00000000000E+00  0.40472173368E+03  0.40472173368E+03  0.00000000000E+00 0. -1.
          2   -1    0    0  502    0 -0.00000000000E+00 -0.00000000000E+00 -0.19392850825E+04  0.19392850825E+04  0.00000000000E+00 0.  1.
         25    1    1    2    0    0  0.25065819265E+03 -0.14656830525E+03  0.23246822707E+03  0.39240065526E+03  0.12500000000E+03 0.  0.
         21    1    1    2  503  501 -0.84183051453E+02  0.35967861346E+02  0.62720934824E+02  0.11097021613E+03  0.00000000000E+00 0. -1.
          2    1    1    2  501    0 -0.16647514120E+03  0.11060044390E+03 -0.18297525107E+04  0.18406359448E+04  0.00000000000E+00 0.  1.
<mgrwt>
<rscale>  4 0.23704411E+03</rscale>
<asrwt>0</asrwt>
<pdfrwt beam="1">  1       21 0.62264882E-01 0.23704411E+03</pdfrwt>
<pdfrwt beam="2">  1        2 0.29835155E+00 0.23704411E+03</pdfrwt>
<totfact> 0.23913850E+02</totfact>
</mgrwt>
</event>
<event>
 5    0  0.2306346E+000  0.2954110E+03  0.7546771E-02  0.1087557E+00
         21   -1    0    0  503  502  0.00000000000E+00  0.00000000000E+00  0.71186288301E+03  0.71186288301E+03  0.00000000000E+00 0.  1.
          2   -1    0    0  502    0 -0.00000000000E+00 -0.00000000000E+00 -0.64537747739E+03  0.64537747739E+03  0.00000000000E+00 0.  1.
         25    1    1    2    0    0 -0.21179671939E+03 -0.11932293154E+03  0.10177125826E+03  0.29168167811E+03  0.12500000000E+03 0.  0.
         21    1    1    2  503  501 -0.29932456838E+02 -0.51254207508E+01  0.48105399025E+03  0.48201158019E+03  0.00000000000E+00 0.  1.
          2    1    1    2  501    0  0.24172917623E+03  0.12444835229E+03 -0.51633984289E+03  0.58354710211E+03  0.00000000000E+00 0.  1.
<mgrwt>
<rscale>  4 0.29541101E+03</rscale>
<asrwt>0</asrwt>
<pdfrwt beam="1">  1       21 0.10951737E+00 0.29541101E+03</pdfrwt>
<pdfrwt beam="2">  1        2 0.99288842E-01 0.29541101E+03</pdfrwt>
<totfact> 0.36260532E+02</totfact>
</mgrwt>
</event>
<event>
 5    0  0.2306346E+000  0.2615754E+03  0.7546771E-02  0.1106200E+00
          2   -1    0    0  502    0 -0.00000000000E+00  0.00000000000E+00  0.15285064746E+04  0.15285064746E+04  0.00000000000E+00 0.  1.
         21   -1    0    0  503  502  0.00000000000E+00 -0.00000000000E+00 -0.52230578386E+02  0.52230578386E+02  0.00000000000E+00 0.  1.
         25    1    1    2    0    0 -0.22550015252E+03  0.91910774023E+02  0.94630712146E+03  0.98509901903E+03  0.12500000000E+03 0.  0.
         21    1    1    2  503  501  0.26628091330E+02 -0.10760954886E+02  0.59823025682E+01  0.29336689349E+02  0.00000000000E+00 0. -1.
          2    1    1    2  501    0  0.19887206119E+03 -0.81149819137E+02  0.52398647217E+03  0.56630134459E+03  0.00000000000E+00 0.  1.
<mgrwt>
<rscale>  4 0.26157540E+03</rscale>
<asrwt>0</asrwt>
<pdfrwt beam="1">  1       21 0.80354747E-02 0.26157540E+03</pdfrwt>
<pdfrwt beam="2">  1        2 0.23515481E+00 0.26157540E+03</pdfrwt>
<totfact> 0.19821961E+04</totfact>
</mgrwt>
</event>
<event>
 5    0  0.2306346E+000  0.2397849E+03  0.7546771E-02  0.1119936E+00
         21   -1    0    0  503  502  0.00000000000E+00  0.00000000000E+00  0.61373182897E+03  0.61373182897E+03  0.00000000000E+00 0.  1.
          1   -1    0    0  502    0 -0.00000000000E+00 -0.00000000000E+00 -0.19905774875E+04  0.19905774875E+04  0.00000000000E+00 0. -1.
         25    1    1    2    0    0 -0.43534970685E+02 -0.30954023703E+03  0.10498283469E+03  0.35264266276E+03  0.12500000000E+03 0.  0.
         21    1    1    2  503  501 -0.39188515691E+01  0.11312289283E+03  0.37098415707E+03  0.38786774947E+03  0.00000000000E+00 0.  1.
          1    1    1    2  501    0  0.47453822254E+02  0.19641734420E+03 -0.18528126503E+04  0.18637989043E+04  0.00000000000E+00 0. -1.
<mgrwt>
<rscale>  4 0.23978488E+03</rscale>
<asrwt>0</asrwt>
<pdfrwt beam="1">  1       21 0.94420283E-01 0.23978488E+03</pdfrwt>
<pdfrwt beam="2">  1        1 0.30624269E+00 0.23978488E+03</pdfrwt>
<totfact> 0.35125869E+01</totfact>
</mgrwt>
</event>
<event>
 5    0  0.2306346E+000  0.2253766E+03  0.7546771E-02  0.1129937E+00
          1   -1    0    0  502    0 -0.00000000000E+00  0.00000000000E+00  0.72311186725E+03  0.72311186725E+03  0.00000000000E+00 0.  1.
         21   -1    0    0  503  502  0.00000000000E+00 -0.00000000000E+00 -0.65567881170E+03  0.65567881170E+03  0.00000000000E+00 0.  1.
         25    1    1    2    0    0  0.20850408838E+03 -0.17755698635E+02 -0.56982841412E+03  0.61977305624E+03  0.12500000000E+03 0.  0.
         21    1    1    2  503  501 -0.21428092735E+02  0.15698321604E+02 -0.44624404181E+02  0.51932050873E+02  0.00000000000E+00 0.  1.
          1    1    1    2  501    0 -0.18707599565E+03  0.20573770313E+01  0.68188587384E+03  0.70708557183E+03  0.00000000000E+00 0.  1.
<mgrwt>
<rscale>  4 0.22537661E+03</rscale>
<asrwt>0</asrwt>
<pdfrwt beam="1">  1       21 0.10087366E+00 0.22537661E+03</pdfrwt>
<pdfrwt beam="2">  1        1 0.11124798E+00 0.22537661E+03</pdfrwt>
<totfact> 0.23532500E+02</totfact>
</mgrwt>
</event>
<event>
 5    0  0.2306346E+000  0.2488507E+03  0.7546771E-02  0.1114033E+00
          1   -1    0    0  502    0 -0.00000000000E+00  0.00000000000E+00  0.98480691256E+03  0.98480691256E+03  0.00000000000E+00 0.  1.
         21   -1    0    0  503  502  0.00000000000E+00 -0.00000000000E+00 -0.70446908292E+02  0.70446908292E+02  0.00000000000E+00 0.  1.
         25    1    1    2    0    0  0.37766655370E+01 -0.21514506788E+03  0.24800462123E+03  0.35133026568E+03  0.12500000000E+03 0.  0.
         21    1    1    2  503  501  0.82148106548E+01  0.29852063137E+02  0.39747814087E+02  0.50383702844E+02  0.00000000000E+00 0. -1.
          1    1    1    2  501    0 -0.11991476192E+02  0.18529300474E+03  0.62660756895E+03  0.65353985232E+03  0.00000000000E+00 0.  1.
<mgrwt>
<rscale>  4 0.24885069E+03</rscale>
<asrwt>0</asrwt>
<pdfrwt beam="1">  1       21 0.10837987E-01 0.24885069E+03</pdfrwt>
<pdfrwt beam="2">  1        1 0.15150875E+00 0.24885069E+03</pdfrwt>
<totfact> 0.12803152E+04</totfact>
</mgrwt>
</event>
<event>
 5    0  0.2306346E+000  0.3403774E+03  0.7546771E-02  0.1066635E+00
         21   -1    0    0  501  502  0.00000000000E+00  0.00000000000E+00  0.32967987307E+03  0.32967987307E+03  0.00000000000E+00 0. -1.
         -1   -1    0    0    0  501 -0.00000000000E+00 -0.00000000000E+00 -0.58789177529E+03  0.58789177529E+03  0.00000000000E+00 0.  1.
         25    1    1    2    0    0  0.81895105724E+02 -0.36285573274E+03 -0.53780544666E+02  0.39609145169E+03  0.12500000000E+03 0.  0.
         21    1    1    2  503  502 -0.11417046679E+03  0.65557446938E+02  0.37429026120E+02  0.13687076508E+03  0.00000000000E+00 0. -1.
         -1    1    1    2    0  503  0.32275361067E+02  0.29729828580E+03 -0.24186038368E+03  0.38460943158E+03  0.00000000000E+00 0.  1.
<mgrwt>
<rscale>  4 0.34037743E+03</rscale>
<asrwt>0</asrwt>
<pdfrwt beam="1">  1       21 0.50719981E-01 0.34037743E+03</pdfrwt>
<pdfrwt beam="2">  1       -1 0.90444888E-01 0.34037743E+03</pdfrwt>
<totfact> 0.41096525E+02</totfact>
</mgrwt>
</event>
<event>
 5    0  0.2306346E+000  0.2645536E+03  0.7546771E-02  0.1104438E+00
          1   -1    0    0  502    0 -0.00000000000E+00  0.00000000000E+00  0.29495726741E+03  0.29495726741E+03  0.00000000000E+00 0. -1.
         21   -1    0    0  503  502  0.00000000000E+00 -0.00000000000E+00 -0.25735492316E+03  0.25735492316E+03  0.00000000000E+00 0. -1.
         25    1    1    2    0    0 -0.88989830447E+02  0.23085265060E+03  0.61700497603E+02  0.28397902672E+03  0.12500000000E+03 0.  0.
         21    1    1    2  503  501  0.69345542317E+02 -0.21493196148E+03 -0.50878235815E+02  0.23150193775E+03  0.00000000000E+00 0. -1.
          1    1    1    2  501    0  0.19644288130E+02 -0.15920689129E+02  0.26780082467E+02  0.36831226092E+02  0.00000000000E+00 0. -1.
<mgrwt>
<rscale>  4 0.26455360E+03</rscale>
<asrwt>0</asrwt>
<pdfrwt beam="1">  1       21 0.39593065E-01 0.26455360E+03</pdfrwt>
<pdfrwt beam="2">  1        1 0.45378041E-01 0.26455360E+03</pdfrwt>
<totfact> 0.59109438E+03</totfact>
</mgrwt>
</event>
<event>
 5    0  0.2306346E+000  0.3034837E+03  0.7546771E-02  0.1083512E+00
         21   -1    0    0  501  502  0.00000000000E+00  0.00000000000E+00  0.41953723817E+03  0.41953723817E+03  0.00000000000E+00 0. -1.
         -1   -1    0    0    0  501 -0.00000000000E+00 -0.00000000000E+00 -0.94211782672E+03  0.94211782672E+03  0.00000000000E+00 0.  1.
         25    1    1    2    0    0  0.60901204788E+02 -0.31201746108E+03 -0.81119986041E+03  0.88018978993E+03  0.12500000000E+03 0.  0.
         21    1    1    2  503  502 -0.86936132513E+02  0.26004057632E+03  0.31500831893E+03  0.41762331528E+03  0.00000000000E+00 0. -1.
         -1    1    1    2    0  503  0.26034927725E+02  0.51976884760E+02 -0.26389047074E+02  0.63841959685E+02  0.00000000000E+00 0.  1.
<mgrwt>
<rscale>  4 0.30348366E+03</rscale>
<asrwt>0</asrwt>
<pdfrwt beam="1">  1       21 0.64544191E-01 0.30348366E+03</pdfrwt>
<pdfrwt beam="2">  1       -1 0.14494120E+00 0.30348366E+03</pdfrwt>
<totfact> 0.81276791E+01</totfact>
</mgrwt>
</event>
<event>
 5    0  0.2306346E+000  0.5529683E+03  0.7546771E-02  0.1000809E+00
         21   -1    0    0  503  502  0.00000000000E+00  0.00000000000E+00  0.69356477786E+03  0.69356477786E+03  0.00000000000E+00 0.  1.
          2   -1    0    0  502    0 -0.00000000000E+00 -0.00000000000E+00 -0.37260917729E+04  0.37260917729E+04  0.00000000000E+00 0. -1.
         25    1    1    2    0    0  0.61559758419E+03 -0.21927806261E+03 -0.30667040783E+03  0.73260834928E+03  0.12500000000E+03 0.  0.
         21    1    1    2  503  501 -0.44252302514E+03  0.25473768782E+03  0.34171090147E+03  0.61439747522E+03  0.00000000000E+00 0.  1.
          2    1    1    2  501    0 -0.17307455905E+03 -0.35459625206E+02 -0.30675674887E+04  0.30726507263E+04  0.00000000000E+00 0. -1.
<mgrwt>
<rscale>  4 0.55296835E+03</rscale>
<asrwt>0</asrwt>
<pdfrwt beam="1">  1       21 0.10670227E+00 0.55296835E+03</pdfrwt>
<pdfrwt beam="2">  1        2 0.57324489E+00 0.55296835E+03</pdfrwt>
<totfact> 0.49562946E+00</totfact>
</mgrwt>
</event>
<event>
 5    0  0.2306346E+000  0.2577846E+03  0.7546771E-02  0.1108482E+00
         21   -1    0    0  503  502  0.00000000000E+00  0.00000000000E+00  0.37173012385E+03  0.37173012385E+03  0.00000000000E+00 0. -1.
          1   -1    0    0  502    0 -0.00000000000E+00 -0.00000000000E+00 -0.41397926690E+03  0.41397926690E+03  0.00000000000E+00 0.  1.
         25    1    1    2    0    0  0.28783714565E+03  0.91631994144E+02 -0.10951570628E+03  0.34476852334E+03  0.12500000000E+03 0.  0.
         21    1    1    2  503  501 -0.18638500935E+03 -0.97491681427E+02  0.18871118493E+03  0.28258788186E+03  0.00000000000E+00 0. -1.
          1    1    1    2  501    0 -0.10145213630E+03  0.58596872829E+01 -0.12144462169E+03  0.15835298555E+03  0.00000000000E+00 0.  1.
<mgrwt>
<rscale>  4 0.25778456E+03</rscale>
<asrwt>0</asrwt>
<pdfrwt beam="1">  1       21 0.57189250E-01 0.25778456E+03</pdfrwt>
<pdfrwt beam="2">  1        1 0.63689118E-01 0.25778456E+03</pdfrwt>
<totfact> 0.17849936E+03</totfact>
</mgrwt>
</event>
<event>
 5    0  0.2306346E+000  0.2479648E+03  0.7546771E-02  0.1114598E+00
         21   -1    0    0  503  502  0.00000000000E+00  0.00000000000E+00  0.11192099070E+03  0.11192099070E+03  0.00000000000E+00 0.  1.
          2   -1    0    0  502    0 -0.00000000000E+00 -0.00000000000E+00 -0.22106451931E+04  0.22106451931E+04  0.00000000000E+00 0.  1.
         25    1    1    2    0    0  0.21738920410E+03  0.10903879236E+03 -0.18514525915E+03  0.33022914966E+03  0.12500000000E+03 0.  0.
         21    1    1    2  503  501 -0.25359763110E+02 -0.19565758415E+02  0.25980390770E+02  0.41242177342E+02  0.00000000000E+00 0.  1.
          2    1    1    2  501    0 -0.19202944099E+03 -0.89473033947E+02 -0.19395593340E+04  0.19510948568E+04  0.00000000000E+00 0.  1.
<mgrwt>
<rscale>  4 0.24796477E+03</rscale>
<asrwt>0</asrwt>
<pdfrwt beam="1">  1       21 0.17218614E-01 0.24796477E+03</pdfrwt>
<pdfrwt beam="2">  1        2 0.34009926E+00 0.24796477E+03</pdfrwt>
<totfact> 0.22091045E+03</totfact>
</mgrwt>
</event>
<event>
 5    0  0.2306346E+000  0.2287175E+03  0.7546771E-02  0.1127546E+00
          1   -1    0    0  502    0 -0.00000000000E+00  0.00000000000E+00  0.32258900225E+04  0.32258900225E+04  0.00000000000E+00 0.  1.
         21   -1    0    0  503  502  0.00000000000E+00 -0.00000000000E+00 -0.29119465922E+02  0.29119465922E+02  0.00000000000E+00 0.  1.
         25    1    1    2    0    0 -0.15590652482E+03  0.13777989068E+03  0.67688919984E+03  0.71909257514E+03  0.12500000000E+03 0.  0.
         21    1    1    2  503  501  0.70938097276E+01 -0.21589623727E+02  0.24550633236E+02  0.33453962119E+02  0.00000000000E+00 0.  1.
          1    1    1    2  501    0  0.14881271509E+03 -0.11619026695E+03  0.24953307235E+04  0.25024629512E+04  0.00000000000E+00 0.  1.
<mgrwt>
<rscale>  4 0.22871752E+03</rscale>
<asrwt>0</asrwt>
<pdfrwt beam="1">  1       21 0.44799204E-02 0.22871752E+03</pdfrwt>
<pdfrwt beam="2">  1        1 0.49629049E+00 0.22871752E+03</pdfrwt>
<totfact> 0.18472311E+03</totfact>
</mgrwt>
</event>
<event>
 5    0  0.2306346E+000  0.3038605E+03  0.7546771E-02  0.1083327E+00
         21   -1    0    0  503  502  0.00000000000E+00  0.00000000000E+00  0.32544268137E+03  0.32544268137E+03  0.00000000000E+00 0.  1.
          1   -1    0    0  502    0 -0.00000000000E+00 -0.00000000000E+00 -0.14707812654E+04  0.14707812654E+04  0.00000000000E+00 0.  1.
         25    1    1    2    0    0  0.26699636008E+02 -0.22788267956E+03  0.19827379634E+03  0.32799525076E+03  0.12500000000E+03 0.  0.
         21    1    1    2  503  501 -0.43004845114E+02 -0.51335138174E+02  0.24884787758E+02  0.71442044879E+02  0.00000000000E+00 0. -1.
          1    1    1    2  501    0  0.16305209106E+02  0.27921781774E+03 -0.13684971681E+04  0.13967866511E+04  0.00000000000E+00 0.  1.
<mgrwt>
<rscale>  4 0.30386046E+03</rscale>
<asrwt>0</asrwt>
<pdfrwt beam="1">  1       21 0.50068104E-01 0.30386046E+03</pdfrwt>
<pdfrwt beam="2">  1        1 0.22627404E+00 0.30386046E+03</pdfrwt>
<totfact> 0.30154180E+02</totfact>
</mgrwt>
</event>
<event>
 5    0  0.2306346E+000  0.2412285E+03  0.7546771E-02  0.1118977E+00
          1   -1    0    0  502    0 -0.00000000000E+00  0.00000000000E+00  0.11009632237E+04  0.11009632237E+04  0.00000000000E+00 0. -1.
         21   -1    0    0  503  502  0.00000000000E+00 -0.00000000000E+00 -0.17309152719E+04  0.17309152719E+04  0.00000000000E+00 0. -1.
         25    1    1    2    0    0 -0.44119272798E+02 -0.22571764272E+03 -0.14903260056E+04  0.15131396392E+04  0.12500000000E+03 0.  0.
         21    1    1    2  503  501 -0.47112014162E+02  0.40783006856E+02 -0.21496086363E+03  0.22381011688E+03  0.00000000000E+00 0. -1.
          1    1    1    2  501    0  0.91231286960E+02  0.18493463586E+03  0.10753348211E+04  0.10949287395E+04  0.00000000000E+00 0. -1.
<mgrwt>
<rscale>  4 0.24122849E+03</rscale>
<asrwt>0</asrwt>
<pdfrwt beam="1">  1       21 0.26629466E+00 0.24122849E+03</pdfrwt>
<pdfrwt beam="2">  1        1 0.16937896E+00 0.24122849E+03</pdfrwt>
<totfact> 0.75966602E+00</totfact>
</mgrwt>
</event>
<event>
 5    0  0.2306346E+000  0.2616595E+03  0.7546771E-02  0.1106150E+00
         21   -1    0    0  503  502  0.00000000000E+00  0.00000000000E+00  0.39535218554E+02  0.39535218554E+02  0.00000000000E+00 0. -1.
          2   -1    0    0  502    0 -0.00000000000E+00 -0.00000000000E+00 -0.21128680362E+04  0.21128680362E+04  0.00000000000E+00 0.  1.
         25    1    1    2    0    0 -0.17734220529E+03  0.10186816153E+03 -0.14468247184E+04  0.14665449689E+04  0.12500000000E+03 0.  0.
         21    1    1    2  503  501  0.21650441413E+03 -0.10288687555E+03 -0.52907799076E+03  0.58084713205E+03  0.00000000000E+00 0. -1.
          2    1    1    2  501    0 -0.39162208840E+02  0.10187140202E+01 -0.97430108535E+02  0.10501115383E+03  0.00000000000E+00 0.  1.
<mgrwt>
<rscale>  4 0.26165946E+03</rscale>
<asrwt>0</asrwt>
<pdfrwt beam="1">  1       21 0.60823409E-02 0.26165946E+03</pdfrwt>
<pdfrwt beam="2">  1        2 0.32505664E+00 0.26165946E+03</pdfrwt>
<totfact> 0.15832618E+04</totfact>
</mgrwt>
</event>
<event>
 5    0  0.2306346E+000  0.2553815E+03  0.7546771E-02  0.1109950E+00
         21   -1    0    0  503  502  0.00000000000E+00  0.00000000000E+00  0.29807700881E+03  0.29807700881E+03  0.00000000000E+00 0. -1.
          2   -1    0    0  502    0 -0.00000000000E+00 -0.00000000000E+00 -0.58150640801E+03  0.58150640801E+03  0.00000000000E+00 0. -1.
         25    1    1    2    0    0  0.20518153961E+03  0.21221749711E+02  0.20172659645E+03  0.31443353283E+03  0.12500000000E+03 0.  0.
         21    1    1    2  503  501  0.19110678618E+02 -0.17530578836E+02  0.47166549856E+01  0.26358794848E+02  0.00000000000E+00 0. -1.
          2    1    1    2  501    0 -0.22429221822E+03 -0.36911708753E+01 -0.48987265063E+03  0.53879108914E+03  0.00000000000E+00 0. -1.
<mgrwt>
<rscale>  4 0.25538154E+03</rscale>
<asrwt>0</asrwt>
<pdfrwt beam="1">  1       21 0.45858002E-01 0.25538154E+03</pdfrwt>
<pdfrwt beam="2">  1        2 0.89462523E-01 0.25538154E+03</pdfrwt>
<totfact> 0.29287009E+03</totfact>
</mgrwt>
</event>
<event>
 5    0  0.2306346E+000  0.2463701E+03  0.7546771E-02  0.1115621E+00
         -1   -1    0    0    0  501 -0.00000000000E+00  0.00000000000E+00  0.14562615398E+03  0.14562615398E+03  0.00000000000E+00 0. -1.
         21   -1    0    0  501  502  0.00000000000E+00 -0.00000000000E+00 -0.45593103831E+03  0.45593103831E+03  0.00000000000E+00 0. -1.
         25    1    1    2    0    0  0.16921099022E+03  0.10703372845E+03 -0.21962224298E+03  0.32240891404E+03  0.12500000000E+03 0.  0.
         21    1    1    2  503  502  0.20562999640E+02  0.50380129994E+00 -0.54228064374E+02  0.57998049413E+02  0.00000000000E+00 0.  1.
         -1    1    1    2    0  503 -0.18977398986E+03 -0.10753752975E+03 -0.36454576969E+02  0.22115022884E+03  0.00000000000E+00 0. -1.
<mgrwt>
<rscale>  4 0.24637005E+03</rscale>
<asrwt>0</asrwt>
<pdfrwt beam="1">  1       21 0.70143236E-01 0.24637005E+03</pdfrwt>
<pdfrwt beam="2">  1       -1 0.22404024E-01 0.24637005E+03</pdfrwt>
<totfact> 0.27603732E+03</totfact>
</mgrwt>
</event>
<event>
 5    0  0.2306346E+000  0.3515464E+03  0.7546771E-02  0.1061982E+00
          2   -1    0    0  502    0 -0.00000000000E+00  0.00000000000E+00  0.56200687269E+03  0.56200687269E+03  0.00000000000E+00 0. -1.
         21   -1    0    0  503  502  0.00000000000E+00 -0.00000000000E+00 -0.79312640003E+03  0.79312640003E+03  0.00000000000E+00 0.  1.
         25    1    1    2    0    0  0.10402352937E+03  0.28299872728E+03 -0.62707882141E+03  0.70693848570E+03  0.12500000000E+03 0.  0.
         21    1    1    2  503  501  0.90922706252E+01  0.27763933729E+02 -0.70547888478E+02  0.76357776093E+02  0.00000000000E+00 0.  1.
          2    1    1    2  501    0 -0.11311579999E+03 -0.31076266101E+03  0.46650718256E+03  0.57183701093E+03  0.00000000000E+00 0. -1.
<mgrwt>
<rscale>  4 0.35154642E+03</rscale>
<asrwt>0</asrwt>
<pdfrwt beam="1">  1       21 0.12201945E+00 0.35154642E+03</pdfrwt>
<pdfrwt beam="2">  1        2 0.86462596E-01 0.35154642E+03</pdfrwt>
<totfact> 0.31844269E+02</totfact>
</mgrwt>
</event>
<event>
 5    0  0.2306346E+000  0.3260663E+03  0.7546771E-02  0.1072891E+00
         21   -1    0    0  503  502  0.00000000000E+00  0.00000000000E+00  0.21265970753E+03  0.21265970753E+03  0.00000000000E+00 0. -1.
          1   -1    0    0  502    0 -0.00000000000E+00 -0.00000000000E+00 -0.73352252870E+03  0.73352252870E+03  0.00000000000E+00 0. -1.
         25    1    1    2    0    0  0.31052017766E+03 -0.62525233750E+02 -0.54968945027E+02  0.34493299423E+03  0.12500000000E+03 0.  0.
         21    1    1    2  503  501 -0.20932560782E+02 -0.20346848812E+01  0.21866128116E+02  0.30338747539E+02  0.00000000000E+00 0. -1.
          1    1    1    2  501    0 -0.28958761688E+03  0.64559918631E+02 -0.48776000426E+03  0.57091049447E+03  0.00000000000E+00 0. -1.
<mgrwt>
<rscale>  4 0.32606625E+03</rscale>
<asrwt>0</asrwt>
<pdfrwt beam="1">  1       21 0.32716878E-01 0.32606625E+03</pdfrwt>
<pdfrwt beam="2">  1        1 0.11284962E+00 0.32606625E+03</pdfrwt>
<totfact> 0.25209013E+03</totfact>
</mgrwt>
</event>
