<event>
 5    0  0.1911311E+001  0.3079183E+03  0.7546771E-02  0.1081348E+00
         21   -1    0    0  504  501  0.00000000000E+00  0.00000000000E+00  0.59414019003E+03  0.59414019003E+03  0.00000000000E+00 0. -1.
         21   -1    0    0  503  502 -0.00000000000E+00 -0.00000000000E+00 -0.37052453465E+03  0.37052453465E+03  0.00000000000E+00 0. -1.
         25    1    1    2    0    0 -0.27790144871E+03 -0.15420046096E+03 -0.32305897851E+02  0.34303887300E+03  0.12500000000E+03 0.  0.
         21    1    1    2  503  501  0.65573672589E+02 -0.18766596859E+02 -0.13094041031E+03  0.14763970586E+03  0.00000000000E+00 0. -1.
         21    1    1    2  504  502  0.21232777612E+03  0.17296705781E+03  0.38686196354E+03  0.47398614582E+03  0.00000000000E+00 0. -1.
<mgrwt>
<rscale>  4 0.30791833E+03</rscale>
<asrwt>0</asrwt>
<pdfrwt beam="1">  1       21 0.91406183E-01 0.30791833E+03</pdfrwt>
<pdfrwt beam="2">  1       21 0.57003775E-01 0.30791833E+03</pdfrwt>
<totfact> 0.27061812E+03</totfact>
</mgrwt>
</event>
<event>
 5    0  0.1911311E+001  0.1788845E+03  0.7546771E-02  0.1168887E+00
         21   -1    0    0  502  501  0.00000000000E+00  0.00000000000E+00  0.56847549784E+03  0.56847549784E+03  0.00000000000E+00 0. -1.
         21   -1    0    0  504  502 -0.00000000000E+00 -0.00000000000E+00 -0.11014796868E+03  0.11014796868E+03  0.00000000000E+00 0. -1.
         25    1    1    2    0    0 -0.10576580241E+03  0.17365077667E+03  0.21638104328E+03  0.32215951498E+03  0.12500000000E+03 0.  0.
         21    1    1    2  503  501  0.31830879397E+02 -0.91563760266E+02  0.22461165722E+03  0.24463753522E+03  0.00000000000E+00 0. -1.
         21    1    1    2  504  503  0.73934923017E+02 -0.82087016400E+02  0.17334828653E+02  0.11182641632E+03  0.00000000000E+00 0.  1.
<mgrwt>
<rscale>  4 0.17888452E+03</rscale>
<asrwt>0</asrwt>
<pdfrwt beam="1">  1       21 0.87457768E-01 0.17888452E+03</pdfrwt>
<pdfrwt beam="2">  1       21 0.16945842E-01 0.17888452E+03</pdfrwt>
<totfact> 0.35482143E+04</totfact>
</mgrwt>
</event>
<event>
 5    0  0.1911311E+001  0.2583049E+03  0.7546771E-02  0.1108166E+00
         21   -1    0    0  502  501  0.00000000000E+00  0.00000000000E+00  0.87267400689E+02  0.87267400689E+02  0.00000000000E+00 0.  1.
         21   -1    0    0  504  502 -0.00000000000E+00 -0.00000000000E+00 -0.12706627081E+04  0.12706627081E+04  0.00000000000E+00 0.  1.
         25    1    1    2    0    0  0.20410742390E+03  0.88466704436E+02 -0.17881918520E+03  0.31158867001E+03  0.12500000000E+03 0.  0.
         21    1    1    2  503  501 -0.20896498727E+03 -0.11090641809E+03 -0.66207722502E+03  0.70307385911E+03  0.00000000000E+00 0.  1.
         21    1    1    2  504  503  0.48575633646E+01  0.22439713658E+02 -0.34249889722E+03  0.34326757969E+03  0.00000000000E+00 0.  1.
<mgrwt>
<rscale>  4 0.25830489E+03</rscale>
<asrwt>0</asrwt>
<pdfrwt beam="1">  1       21 0.13425755E-01 0.25830489E+03</pdfrwt>
<pdfrwt beam="2">  1       21 0.19548656E+00 0.25830489E+03</pdfrwt>
<totfact> 0.65437753E+03</totfact>
</mgrwt>
</event>
