<event>
 5    0  0.2159162E+000  0.2429074E+03  0.7546771E-02  0.1117871E+00
         21   -1    0    0  502  501  0.00000000000E+00  0.00000000000E+00  0.22732073444E+03  0.22732073444E+03  0.00000000000E+00 0.  1.
         21   -1    0    0  503  502 -0.00000000000E+00 -0.00000000000E+00 -0.24748300005E+03  0.24748300005E+03  0.00000000000E+00 0. -1.
         25    1    1    2    0    0  0.20827433650E+03  0.88616511292E+00  0.11928014623E+02  0.24320004537E+03  0.12500000000E+03 0.  0.
         21    1    1    2  503  504 -0.15417744653E+03 -0.42908420471E+02 -0.31461599999E+02  0.16310012214E+03  0.00000000000E+00 0. -1.
         21    1    1    2  504  501 -0.54096889969E+02  0.42022255359E+02 -0.62868023041E+00  0.68503566977E+02  0.00000000000E+00 0. -1.
<mgrwt>
<rscale>  4 0.24290736E+03</rscale>
<asrwt>0</asrwt>
<pdfrwt beam="1">  1       21 0.34972421E-01 0.24290736E+03</pdfrwt>
<pdfrwt beam="2">  1       21 0.38074308E-01 0.24290736E+03</pdfrwt>
<totfact> 0.51266916E+04</totfact>
</mgrwt>
</event>
<event>
 5    0  0.3181188E+000  0.2579165E+03  0.7546771E-02  0.1108402E+00
         21   -1    0    0  502  501  0.00000000000E+00  0.00000000000E+00  0.67738824861E+02  0.67738824861E+02  0.00000000000E+00 0. -1.
         21   -1    0    0  503  502 -0.00000000000E+00 -0.00000000000E+00 -0.14074964157E+04  0.14074964157E+04  0.00000000000E+00 0.  1.
         25    1    1    2    0    0  0.24462339778E+03  0.40742854383E+01 -0.31248715922E+03  0.41608945098E+03  0.12500000000E+03 0.  0.
         21    1    1    2  503  504 -0.22095074166E+03  0.93125850826E+01 -0.97970659258E+03  0.10043559937E+04  0.00000000000E+00 0.  1.
         21    1    1    2  504  501 -0.23672656129E+02 -0.13386870521E+02 -0.47563839031E+02  0.54789795892E+02  0.00000000000E+00 0.  1.
<mgrwt>
<rscale>  4 0.25791647E+03</rscale>
<asrwt>0</asrwt>
<pdfrwt beam="1">  1       21 0.10421357E-01 0.25791647E+03</pdfrwt>
<pdfrwt beam="2">  1       21 0.21653791E+00 0.25791647E+03</pdfrwt>
<totfact> 0.75644887E+03</totfact>
</mgrwt>
</event>
<event>
 5    0  0.2159162E+000  0.3238862E+03  0.7546771E-02  0.1073875E+00
         21   -1    0    0  502  501  0.00000000000E+00  0.00000000000E+00  0.59354354405E+03  0.59354354405E+03  0.00000000000E+00 0. -1.
         21   -1    0    0  503  502 -0.00000000000E+00 -0.00000000000E+00 -0.38144533169E+03  0.38144533169E+03  0.00000000000E+00 0. -1.
         25    1    1    2    0    0  0.76454975362E+02 -0.28884583606E+03  0.47103885960E+03  0.57164664568E+03  0.12500000000E+03 0.  0.
         21    1    1    2  503  504  0.73100232535E+01  0.33729648894E+02 -0.71618649233E+01  0.35247949779E+02  0.00000000000E+00 0. -1.
         21    1    1    2  504  501 -0.83764998616E+02  0.25511618716E+03 -0.25177878232E+03  0.36809428027E+03  0.00000000000E+00 0. -1.
<mgrwt>
<rscale>  4 0.32388621E+03</rscale>
<asrwt>0</asrwt>
<pdfrwt beam="1">  1       21 0.91314391E-01 0.32388621E+03</pdfrwt>
<pdfrwt beam="2">  1       21 0.58683897E-01 0.32388621E+03</pdfrwt>
<totfact> 0.25259568E+03</totfact>
</mgrwt>
</event>
<event>
 5    0  0.2212543E+000  0.3155463E+03  0.7546771E-02  0.1077717E+00
         21   -1    0    0  502  501  0.00000000000E+00  0.00000000000E+00  0.26242528300E+03  0.26242528300E+03  0.00000000000E+00 0.  1.
         21   -1    0    0  503  502 -0.00000000000E+00 -0.00000000000E+00 -0.49502762456E+03  0.49502762456E+03  0.00000000000E+00 0.  1.
         25    1    1    2    0    0 -0.26202790707E+03 -0.12363591652E+03  0.81141739532E+02  0.32581197927E+03  0.12500000000E+03 0.  0.
         21    1    1    2  503  504  0.53054518304E+02  0.92663973516E+01 -0.89631742920E+02  0.10456814702E+03  0.00000000000E+00 0. -1.
         21    1    1    2  504  501  0.20897338877E+03  0.11436951917E+03 -0.22411233817E+03  0.32707278127E+03  0.00000000000E+00 0.  1.
<mgrwt>
<rscale>  4 0.31554629E+03</rscale>
<asrwt>0</asrwt>
<pdfrwt beam="1">  1       21 0.40373121E-01 0.31554629E+03</pdfrwt>
<pdfrwt beam="2">  1       21 0.76158096E-01 0.31554629E+03</pdfrwt>
<totfact> 0.84731579E+03</totfact>
</mgrwt>
</event>
<event>
 5    0  0.2159162E+000  0.3003947E+03  0.7546771E-02  0.1085043E+00
         21   -1    0    0  502  501  0.00000000000E+00  0.00000000000E+00  0.53022168912E+03  0.53022168912E+03  0.00000000000E+00 0.  1.
         21   -1    0    0  503  502 -0.00000000000E+00 -0.00000000000E+00 -0.15076182672E+04  0.15076182672E+04  0.00000000000E+00 0. -1.
         25    1    1    2    0    0 -0.13127844332E+03 -0.23953689559E+03  0.47275810983E+03  0.56012247272E+03  0.12500000000E+03 0.  0.
         21    1    1    2  503  504  0.41855532579E+02  0.92274978829E+02 -0.35820537415E+03  0.37226018777E+03  0.00000000000E+00 0. -1.
         21    1    1    2  504  501  0.89422910739E+02  0.14726191676E+03 -0.10919493138E+04  0.11054572958E+04  0.00000000000E+00 0. -1.
<mgrwt>
<rscale>  4 0.30039466E+03</rscale>
<asrwt>0</asrwt>
<pdfrwt beam="1">  1       21 0.81572567E-01 0.30039466E+03</pdfrwt>
<pdfrwt beam="2">  1       21 0.23194127E+00 0.30039466E+03</pdfrwt>
<totfact> 0.98631251E+01</totfact>
</mgrwt>
</event>
<event>
 5    0  0.2159162E+000  0.2363187E+03  0.7546771E-02  0.1122270E+00
         21   -1    0    0  502  501  0.00000000000E+00  0.00000000000E+00  0.17556152969E+03  0.17556152969E+03  0.00000000000E+00 0.  1.
         21   -1    0    0  503  502 -0.00000000000E+00 -0.00000000000E+00 -0.51308943376E+03  0.51308943376E+03  0.00000000000E+00 0.  1.
         25    1    1    2    0    0 -0.21439577425E+03  0.25926032965E+02  0.10862486974E+02  0.24976128769E+03  0.12500000000E+03 0.  0.
         21    1    1    2  503  504  0.36713670147E+02 -0.41015796548E+02 -0.19833808600E+03  0.20583533589E+03  0.00000000000E+00 0. -1.
         21    1    1    2  504  501  0.17768210411E+03  0.15089763583E+02 -0.15005230505E+03  0.23305433988E+03  0.00000000000E+00 0.  1.
<mgrwt>
<rscale>  4 0.23631867E+03</rscale>
<asrwt>0</asrwt>
<pdfrwt beam="1">  1       21 0.27009466E-01 0.23631867E+03</pdfrwt>
<pdfrwt beam="2">  1       21 0.78936835E-01 0.23631867E+03</pdfrwt>
<totfact> 0.18049709E+04</totfact>
</mgrwt>
</event>
<event>
 5    0  0.4455777E+000  0.2767313E+03  0.7546771E-02  0.1097488E+00
         21   -1    0    0  502  501  0.00000000000E+00  0.00000000000E+00  0.30837315058E+03  0.30837315058E+03  0.00000000000E+00 0. -1.
         21   -1    0    0  503  502 -0.00000000000E+00 -0.00000000000E+00 -0.26859133461E+03  0.26859133461E+03  0.00000000000E+00 0. -1.
         25    1    1    2    0    0  0.16341470281E+03 -0.18506980684E+03  0.13516757418E+03  0.30797803755E+03  0.12500000000E+03 0.  0.
         21    1    1    2  503  504 -0.11587835267E+02  0.20141024299E+02  0.43314739315E+01  0.23636845230E+02  0.00000000000E+00 0. -1.
         21    1    1    2  504  501 -0.15182686754E+03  0.16492878254E+03 -0.99717232140E+02  0.24534960242E+03  0.00000000000E+00 0. -1.
<mgrwt>
<rscale>  4 0.27673127E+03</rscale>
<asrwt>0</asrwt>
<pdfrwt beam="1">  1       21 0.47442023E-01 0.27673127E+03</pdfrwt>
<pdfrwt beam="2">  1       21 0.41321744E-01 0.27673127E+03</pdfrwt>
<totfact> 0.22977728E+04</totfact>
</mgrwt>
</event>
<event>
 5    0  0.2159162E+000  0.2762450E+03  0.7546771E-02  0.1097758E+00
         21   -1    0    0  502  501  0.00000000000E+00  0.00000000000E+00  0.70025962296E+02  0.70025962296E+02  0.00000000000E+00 0.  1.
         21   -1    0    0  503  502 -0.00000000000E+00 -0.00000000000E+00 -0.16331672620E+04  0.16331672620E+04  0.00000000000E+00 0. -1.
         25    1    1    2    0    0  0.25614038798E+03 -0.29187235505E+02 -0.33609130885E+03  0.44163577861E+03  0.12500000000E+03 0.  0.
         21    1    1    2  503  504 -0.22118163281E+03 -0.31028961797E+02 -0.94696391269E+03  0.97294643382E+03  0.00000000000E+00 0. -1.
         21    1    1    2  504  501 -0.34958755164E+02  0.60216197302E+02 -0.28008607819E+03  0.28861101188E+03  0.00000000000E+00 0.  1.
<mgrwt>
<rscale>  4 0.27624498E+03</rscale>
<asrwt>0</asrwt>
<pdfrwt beam="1">  1       21 0.10773226E-01 0.27624498E+03</pdfrwt>
<pdfrwt beam="2">  1       21 0.25125648E+00 0.27624498E+03</pdfrwt>
<totfact> 0.43161283E+03</totfact>
</mgrwt>
</event>
<event>
 5    0  0.2770984E+000  0.3684853E+03  0.7546771E-02  0.1055274E+00
         21   -1    0    0  502  501  0.00000000000E+00  0.00000000000E+00  0.19227059907E+03  0.19227059907E+03  0.00000000000E+00 0.  1.
         21   -1    0    0  503  502 -0.00000000000E+00 -0.00000000000E+00 -0.76053493282E+03  0.76053493282E+03  0.00000000000E+00 0. -1.
         25    1    1    2    0    0  0.78923305817E+02 -0.33753148841E+03 -0.13247729627E+03  0.39157582650E+03  0.12500000000E+03 0.  0.
         21    1    1    2  503  504 -0.91397676057E+02  0.31132953252E+03 -0.39517473995E+03  0.51131466642E+03  0.00000000000E+00 0. -1.
         21    1    1    2  504  501  0.12474370239E+02  0.26201955896E+02 -0.40612297526E+02  0.49915038976E+02  0.00000000000E+00 0. -1.
<mgrwt>
<rscale>  4 0.36848527E+03</rscale>
<asrwt>0</asrwt>
<pdfrwt beam="1">  1       21 0.29580091E-01 0.36848527E+03</pdfrwt>
<pdfrwt beam="2">  1       21 0.11700538E+00 0.36848527E+03</pdfrwt>
<totfact> 0.55688141E+03</totfact>
</mgrwt>
</event>
