<event>
 5    0  0.2159162E+000  0.2914863E+03  0.7546771E-02  0.1089576E+00
         21   -1    0    0  502  501  0.00000000000E+00  0.00000000000E+00  0.22090512159E+04  0.22090512159E+04  0.00000000000E+00 0.  1.
         21   -1    0    0  503  502 -0.00000000000E+00 -0.00000000000E+00 -0.56886648025E+02  0.56886648025E+02  0.00000000000E+00 0. -1.
         25    1    1    2    0    0  0.92730060530E+02  0.24076776016E+03  0.16723518845E+04  0.16967480084E+04  0.12500000000E+03 0.  0.
         21    1    1    2  503  504  0.28221868388E-02  0.24852931358E+02  0.39476999961E+02  0.46648705566E+02  0.00000000000E+00 0. -1.
         21    1    1    2  504  501 -0.92732882717E+02 -0.26562069152E+03  0.44033568341E+03  0.52254114994E+03  0.00000000000E+00 0. -1.
<mgrwt>
<rscale>  4 0.29148630E+03</rscale>
<asrwt>0</asrwt>
<pdfrwt beam="1">  1       21 0.33985397E+00 0.29148630E+03</pdfrwt>
<pdfrwt beam="2">  1       21 0.87517937E-02 0.29148630E+03</pdfrwt>
<totfact> 0.18466061E+03</totfact>
</mgrwt>
</event>
<event>
 5    0  0.2957002E+000  0.2852117E+03  0.7546771E-02  0.1092876E+00
         21   -1    0    0  502  501  0.00000000000E+00  0.00000000000E+00  0.10651759731E+03  0.10651759731E+03  0.00000000000E+00 0.  1.
         21   -1    0    0  503  502 -0.00000000000E+00 -0.00000000000E+00 -0.82670197578E+03  0.82670197578E+03  0.00000000000E+00 0.  1.
         25    1    1    2    0    0  0.25542622136E+03 -0.21866690894E+02 -0.20188940787E+03  0.34943531553E+03  0.12500000000E+03 0.  0.
         21    1    1    2  503  504 -0.22281191366E+03  0.44456447542E+02 -0.41485572746E+03  0.47299767357E+03  0.00000000000E+00 0.  1.
         21    1    1    2  504  501 -0.32614307693E+02 -0.22589756648E+02 -0.10343924314E+03  0.11078658399E+03  0.00000000000E+00 0.  1.
<mgrwt>
<rscale>  4 0.28521169E+03</rscale>
<asrwt>0</asrwt>
<pdfrwt beam="1">  1       21 0.16387322E-01 0.28521169E+03</pdfrwt>
<pdfrwt beam="2">  1       21 0.12718493E+00 0.28521169E+03</pdfrwt>
<totfact> 0.14450053E+04</totfact>
</mgrwt>
</event>
<event>
 5    0  0.2159162E+000  0.2069618E+03  0.7546771E-02  0.1143995E+00
         21   -1    0    0  502  501  0.00000000000E+00  0.00000000000E+00  0.17167694200E+04  0.17167694200E+04  0.00000000000E+00 0. -1.
         21   -1    0    0  503  502 -0.00000000000E+00 -0.00000000000E+00 -0.98800645925E+02  0.98800645925E+02  0.00000000000E+00 0. -1.
         25    1    1    2    0    0  0.19588244448E+03 -0.41045475852E+02  0.14631819466E+04  0.14820867289E+04  0.12500000000E+03 0.  0.
         21    1    1    2  503  504 -0.11051058878E+03  0.16549924106E+02  0.20351764166E+03  0.23217648607E+03  0.00000000000E+00 0. -1.
         21    1    1    2  504  501 -0.85371855701E+02  0.24495551746E+02 -0.48730814169E+02  0.10130685096E+03  0.00000000000E+00 0. -1.
<mgrwt>
<rscale>  4 0.20696177E+03</rscale>
<asrwt>0</asrwt>
<pdfrwt beam="1">  1       21 0.26411835E+00 0.20696177E+03</pdfrwt>
<pdfrwt beam="2">  1       21 0.15200101E-01 0.20696177E+03</pdfrwt>
<totfact> 0.20714649E+03</totfact>
</mgrwt>
</event>
<event>
 5    0  0.5330708E+000  0.3452573E+03  0.7546771E-02  0.1064579E+00
         21   -1    0    0  502  501  0.00000000000E+00  0.00000000000E+00  0.21969657477E+03  0.21969657477E+03  0.00000000000E+00 0.  1.
         21   -1    0    0  503  502 -0.00000000000E+00 -0.00000000000E+00 -0.62859597259E+03  0.62859597259E+03  0.00000000000E+00 0.  1.
         25    1    1    2    0    0  0.12670145136E+03 -0.29584508896E+03 -0.28549123850E+02  0.34643560283E+03  0.12500000000E+03 0.  0.
         21    1    1    2  503  504 -0.16364121024E+02  0.13785870038E+02 -0.10548860062E+02  0.23856091847E+02  0.00000000000E+00 0.  1.
         21    1    1    2  504  501 -0.11033733033E+03  0.28205921892E+03 -0.36980141390E+03  0.47800085268E+03  0.00000000000E+00 0.  1.
<mgrwt>
<rscale>  4 0.34525726E+03</rscale>
<asrwt>0</asrwt>
<pdfrwt beam="1">  1       21 0.33799474E-01 0.34525726E+03</pdfrwt>
<pdfrwt beam="2">  1       21 0.96707071E-01 0.34525726E+03</pdfrwt>
<totfact> 0.68753995E+03</totfact>
</mgrwt>
</event>
<event>
 5    0  0.2159162E+000  0.2852367E+03  0.7546771E-02  0.1092863E+00
         21   -1    0    0  502  501  0.00000000000E+00  0.00000000000E+00  0.53841464832E+03  0.53841464832E+03  0.00000000000E+00 0.  1.
         21   -1    0    0  503  502 -0.00000000000E+00 -0.00000000000E+00 -0.18143907119E+03  0.18143907119E+03  0.00000000000E+00 0. -1.
         25    1    1    2    0    0 -0.11271582988E+03 -0.23619373340E+03  0.32979160474E+03  0.43918087454E+03  0.12500000000E+03 0.  0.
         21    1    1    2  503  504  0.12251166756E+03  0.21426558413E+03  0.44849103014E+02  0.25085910642E+03  0.00000000000E+00 0. -1.
         21    1    1    2  504  501 -0.97958376823E+01  0.21928149276E+02 -0.17665130624E+02  0.29813738553E+02  0.00000000000E+00 0. -1.
<mgrwt>
<rscale>  4 0.28523670E+03</rscale>
<asrwt>0</asrwt>
<pdfrwt beam="1">  1       21 0.82833022E-01 0.28523670E+03</pdfrwt>
<pdfrwt beam="2">  1       21 0.27913703E-01 0.28523670E+03</pdfrwt>
<totfact> 0.14810795E+04</totfact>
</mgrwt>
</event>
<event>
 5    0  0.5356936E+000  0.3842438E+03  0.7546771E-02  0.1049376E+00
         21   -1    0    0  502  501  0.00000000000E+00  0.00000000000E+00  0.14621957752E+04  0.14621957752E+04  0.00000000000E+00 0. -1.
         21   -1    0    0  503  502 -0.00000000000E+00 -0.00000000000E+00 -0.10916729539E+03  0.10916729539E+03  0.00000000000E+00 0. -1.
         25    1    1    2    0    0 -0.72144334710E+02  0.34655917000E+03  0.52341625148E+03  0.64412548130E+03  0.12500000000E+03 0.  0.
         21    1    1    2  503  504 -0.33985918181E+02  0.15091685748E+02  0.70324989661E+02  0.79551277703E+02  0.00000000000E+00 0.  1.
         21    1    1    2  504  501  0.10613025289E+03 -0.36165085575E+03  0.75928723869E+03  0.84768631160E+03  0.00000000000E+00 0. -1.
<mgrwt>
<rscale>  4 0.38424379E+03</rscale>
<asrwt>0</asrwt>
<pdfrwt beam="1">  1       21 0.22495318E+00 0.38424379E+03</pdfrwt>
<pdfrwt beam="2">  1       21 0.16794970E-01 0.38424379E+03</pdfrwt>
<totfact> 0.26021765E+03</totfact>
</mgrwt>
</event>
<event>
 5    0  0.2159162E+000  0.1982507E+03  0.7546771E-02  0.1151223E+00
         21   -1    0    0  502  501  0.00000000000E+00  0.00000000000E+00  0.87445289857E+02  0.87445289857E+02  0.00000000000E+00 0.  1.
         21   -1    0    0  503  502 -0.00000000000E+00 -0.00000000000E+00 -0.69593269937E+03  0.69593269937E+03  0.00000000000E+00 0.  1.
         25    1    1    2    0    0 -0.10142050799E+03 -0.18900713173E+03 -0.26774207028E+03  0.36513097854E+03  0.12500000000E+03 0.  0.
         21    1    1    2  503  504  0.48726581095E+02  0.11898606894E+03 -0.10261817460E+03  0.16450669915E+03  0.00000000000E+00 0.  1.
         21    1    1    2  504  501  0.52693926898E+02  0.70021062789E+02 -0.23812716463E+03  0.25374031154E+03  0.00000000000E+00 0.  1.
<mgrwt>
<rscale>  4 0.19825071E+03</rscale>
<asrwt>0</asrwt>
<pdfrwt beam="1">  1       21 0.13453122E-01 0.19825071E+03</pdfrwt>
<pdfrwt beam="2">  1       21 0.10706657E+00 0.19825071E+03</pdfrwt>
<totfact> 0.33208486E+04</totfact>
</mgrwt>
</event>
<event>
 5    0  0.2787598E+000  0.3159305E+03  0.7546771E-02  0.1077538E+00
         21   -1    0    0  502  501  0.00000000000E+00  0.00000000000E+00  0.48164094950E+03  0.48164094950E+03  0.00000000000E+00 0.  1.
         21   -1    0    0  503  502 -0.00000000000E+00 -0.00000000000E+00 -0.20367150940E+03  0.20367150940E+03  0.00000000000E+00 0.  1.
         25    1    1    2    0    0  0.28076032653E+03 -0.73216877788E+02  0.20898614143E+03  0.37879714816E+03  0.12500000000E+03 0.  0.
         21    1    1    2  503  504 -0.23969742760E+03  0.50065411987E+02  0.80908410087E+02  0.25789062236E+03  0.00000000000E+00 0.  1.
         21    1    1    2  504  501 -0.41062898928E+02  0.23151465801E+02 -0.11925111417E+02  0.48624688373E+02  0.00000000000E+00 0.  1.
<mgrwt>
<rscale>  4 0.31593049E+03</rscale>
<asrwt>0</asrwt>
<pdfrwt beam="1">  1       21 0.74098607E-01 0.31593049E+03</pdfrwt>
<pdfrwt beam="2">  1       21 0.31334079E-01 0.31593049E+03</pdfrwt>
<totfact> 0.15012947E+04</totfact>
</mgrwt>
</event>
