<LesHouchesEvents version="3.0">
  <!--
  <scalesfunctionalform>
    muR  H_T/2 := sum_i mT(i)/2, i=final state
    muF1 H_T/2 := sum_i mT(i)/2, i=final state
    muF2 H_T/2 := sum_i mT(i)/2, i=final state
    QES  H_T/2 := sum_i mT(i)/2, i=final state
  </scalesfunctionalform>
HERWIG6   
  -->
  <header>
      179
  </header>
  <init>
   2212   2212 0.65000000D+04 0.65000000D+04 -1 -1   244800   244800 -4   1
 0.15066666D-03 0.83662759D-05 0.18148205D-05     66
  </init>
  <event>
  5     66 0.18148205E-05 0.11322709E+03 0.75467711E-02 0.92342518E-01
        1 -1    0    0  502    0 0.00000000E+00 0.00000000E+00 0.25410033E+04 0.25410033E+04 0.32000000E+00 0.0000E+00 0.9000E+01
       -1 -1    0    0    0  501 0.00000000E+00 0.00000000E+00 -.22360199E+03 0.22360222E+03 0.32000000E+00 0.0000E+00 0.9000E+01
       25  1    1    2    0    0 -.15035346E+03 0.55206735E+03 0.50963990E+03 0.77636483E+03 0.12500000E+03 0.0000E+00 0.9000E+01
        2  1    1    2  502    0 0.23410612E+03 -.47588214E+03 0.17980164E+04 0.18746020E+04 0.32000000E+00 0.0000E+00 0.9000E+01
       -2  1    1    2    0  501 -.83752664E+02 -.76185212E+02 0.97450131E+01 0.11363874E+03 0.32000000E+00 0.0000E+00 0.9000E+01
#aMCatNLO 1  0  0  0  0 0.00000000D+00 0.00000000D+00  -5  6  0 0.00000000D+00 0.00000000D+00 0.00000000D+00 0.00000000D+00 0.00000000D+00
  <mgrwgt>
 0.1253898690D-03    1    2    0
 0.753773003732891D+03 0.000000000000000D+00 0.000000000000000D+00 0.753773003732891D+03
 0.753773003732891D+03 0.000000000000000D+00 0.000000000000000D+00 -.753773003732891D+03
 0.640305473256268D+03 -.150347216014542D+03 0.552068907129006D+03 -.258808298746380D+03
 0.673808461939422D+03 0.234103342543925D+03 -.475876479892256D+03 0.415638116967497D+03
 0.193432072270093D+03 -.837561265293834D+02 -.761924272367507D+02 -.156829818221117D+03
 0.000000000000000D+00 0.000000000000000D+00 0.000000000000000D+00 0.000000000000000D+00
 0.186572279406482D+04 0.000000000000000D+00 0.000000000000000D+00 0.186572279406482D+04
 0.119590029048609D+04 0.000000000000000D+00 0.000000000000000D+00 -.119590029048609D+04
 0.752613364185443D+03 -.559578417850788D+03 0.413149046623788D+03 -.258808298746380D+03
 0.770173188413935D+03 -.190129807528839D+03 -.619888983741805D+03 0.415638116967497D+03
 0.305911556368382D+03 -.230460290321372D+03 -.125993424516701D+03 -.156829818221117D+03
 0.123292497558315D+04 0.980168515700999D+03 0.332733361634718D+03 0.669822503578732D+03
0.875948420810D-04 0.000000000000D+00 0.000000000000D+00 0.181289162297D-06 0.000000000000D+00  6 1 -1 25 2 -2 21 2 0.39092361D+00 0.34400325D-01 0.37775729D+06 0.37775729D+06 0.37775729D+06 0.10772234D+01  1  2 14  1  6  1        1 0.125389868980D-03 0.100000000000D+01
  </mgrwgt>
  </event>
  <event>
  5     66 0.18148205E-05 0.24815831E+02 0.75467711E-02 0.92625683E-01
        1 -1    0    0  502    0 0.00000000E+00 0.00000000E+00 0.10591794E+04 0.10591794E+04 0.32000000E+00 0.0000E+00 0.9000E+01
       -1 -1    0    0    0  501 -.00000000E+00 -.00000000E+00 -.11054273E+04 0.11054273E+04 0.32000000E+00 0.0000E+00 0.9000E+01
       25  1    1    2    0    0 0.52461856E+03 0.20076401E+03 0.48539233E+03 0.75283566E+03 0.12500000E+03 0.0000E+00 0.9000E+01
        2  1    1    2  502    0 -.50645309E+03 -.21766578E+03 0.26716757E+03 0.61257794E+03 0.32000000E+00 0.0000E+00 0.9000E+01
       -2  1    1    2    0  501 -.18165465E+02 0.16901767E+02 -.79880779E+03 0.79919312E+03 0.32000000E+00 0.0000E+00 0.9000E+01
#aMCatNLO 1  0  0  5  4 0.38532907D+02 0.00000000D+00  -5  6  0 0.00000000D+00 0.00000000D+00 0.00000000D+00 0.00000000D+00 0.00000000D+00
  <mgrwgt>
 0.2381017991D-02    6    2    0
 0.108205630460283D+04 0.000000000000000D+00 0.000000000000000D+00 0.108205630460283D+04
 0.108205630460283D+04 -.000000000000000D+00 -.000000000000000D+00 -.108205630460283D+04
 0.763404069836895D+03 0.524518073016043D+03 0.200717414302585D+03 0.501751018453133D+03
 0.618301337620730D+03 -.506350022526993D+03 -.217621478898945D+03 0.280262538902962D+03
 0.782407201748031D+03 -.181680504890512D+02 0.169040645963601D+02 -.782013557356095D+03
 0.000000000000000D+00 0.000000000000000D+00 0.000000000000000D+00 -.000000000000000D+00
 0.108205630460283D+04 0.000000000000000D+00 0.000000000000000D+00 0.108205630460283D+04
 0.108205630460283D+04 -.000000000000000D+00 -.000000000000000D+00 -.108205630460283D+04
 0.762454750895731D+03 0.524485007885787D+03 0.200748179028722D+03 0.500327784840268D+03
 0.617792758050991D+03 -.506376808499408D+03 -.217596556477672D+03 0.279109581210074D+03
 0.297391026461883D+03 -.339195967717068D+02 0.337642963905319D+02 -.293514660390498D+03
 0.486474073797051D+03 0.158113973853277D+02 -.169159189415817D+02 -.485922705659845D+03
0.498748118654D-03 0.000000000000D+00 0.000000000000D+00 0.283227140489D-04 0.000000000000D+00  6 1 -1 25 2 -2 21 0 0.16295068D+00 0.17006574D+00 0.33137526D+06 0.33137526D+06 0.33137526D+06 0.10813702D+01  1  2  2  4  6  5       -2 0.202866959038D-03 0.100000000000D+01
0.382738397869D-03 0.000000000000D+00 -.191532409903D-05 0.283227140489D-04 0.000000000000D+00  6 1 -1 25 2 -2 21 2 0.16295068D+00 0.17006574D+00 0.33137526D+06 0.33137526D+06 0.33137526D+06 0.10813702D+01  1  2  3  4  6  5       -2 0.182045897875D-03 0.100000000000D+01
-.350379124297D-03 0.000000000000D+00 0.000000000000D+00 0.283227140489D-04 0.000000000000D+00  6 1 -1 25 2 -2 21 2 0.16295068D+00 0.17006574D+00 0.33137526D+06 0.33137526D+06 0.33137526D+06 0.10813702D+01  1  2 15  4  6  5       -2 -.166654515551D-03 0.100000000000D+01
-.198598432207D-03 0.000000000000D+00 0.000000000000D+00 0.283227140489D-04 0.000000000000D+00  6 1 -1 25 2 -2 21 2 0.16295068D+00 0.17006574D+00 0.33137526D+06 0.33137526D+06 0.33137526D+06 0.10813702D+01  1  2  4  4  6  5       -2 -.944614653481D-04 0.100000000000D+01
-.633016177137D-02 0.000000000000D+00 0.000000000000D+00 0.283227140489D-04 0.000000000000D+00  6 1 -1 25 2 -2 21 2 0.16295068D+00 0.17006574D+00 0.33137526D+06 0.33137526D+06 0.33137526D+06 0.10813702D+01  1  2  5  4  6  5       -2 -.301088155717D-02 0.100000000000D+01
0.110758067056D-01 0.000000000000D+00 -.000000000000D+00 0.283227140489D-04 0.000000000000D+00  6 1 -1 25 2 -2 21 2 0.16295068D+00 0.17006574D+00 0.33137526D+06 0.33137526D+06 0.33137526D+06 0.10813702D+01  1  2  6  4  6  5       -2 0.526810267183D-02 0.100000000000D+01
  </mgrwgt>
  </event>
  <event>
  5     66 0.18148205E-05 0.20203945E+02 0.75467711E-02 0.94633861E-01
        1 -1    0    0  502    0 0.00000000E+00 0.00000000E+00 0.35036821E+04 0.35036821E+04 0.32000000E+00 0.0000E+00 0.9000E+01
       -1 -1    0    0    0  501 0.00000000E+00 0.00000000E+00 -.16606623E+03 0.16606654E+03 0.32000000E+00 0.0000E+00 0.9000E+01
       25  1    1    2    0    0 0.26215035E+03 0.36878898E+03 0.28788889E+04 0.29169083E+04 0.12500000E+03 0.0000E+00 0.9000E+01
        2  1    1    2  502    0 -.40021458E+01 -.19897993E+02 0.28440621E+03 0.28512969E+03 0.32000000E+00 0.0000E+00 0.9000E+01
       -2  1    1    2    0  501 -.25814820E+03 -.34889099E+03 0.17432083E+03 0.46771067E+03 0.32000000E+00 0.0000E+00 0.9000E+01
#aMCatNLO 1  0  0  1  4 0.79269022D+02 0.00000000D+00  -5  6  0 0.00000000D+00 0.00000000D+00 0.00000000D+00 0.00000000D+00 0.00000000D+00
  <mgrwgt>
 0.6073805510D-02    7    2    0
 0.762786922384623D+03 0.000000000000000D+00 0.000000000000000D+00 0.762786922384623D+03
 0.762786922384623D+03 0.000000000000000D+00 0.000000000000000D+00 -.762786922384623D+03
 0.718443591590361D+03 0.262188533029175D+03 0.368781410550684D+03 0.543869137456350D+03
 0.633673818096835D+02 -.398389851236952D+01 -.198072703433238D+02 0.600601837460046D+02
 0.743762871369202D+03 -.258204634516806D+03 -.348974140207360D+03 -.603929321202355D+03
 0.000000000000000D+00 -.000000000000000D+00 -.000000000000000D+00 0.000000000000000D+00
 0.974948340443505D+03 0.000000000000000D+00 0.000000000000000D+00 0.974948340443505D+03
 0.771256264043276D+03 0.000000000000000D+00 0.000000000000000D+00 -.771256264043276D+03
 0.742047212487766D+03 0.291701148457155D+03 0.392588673896899D+03 0.543869137456350D+03
 0.626455622139607D+02 -.143751373162809D+01 -.177531503618589D+02 0.600601837460046D+02
 0.722939096408429D+03 -.228566508072179D+03 -.325065629520548D+03 -.603929321202355D+03
 0.218572733376626D+03 -.616971266533482D+02 -.497698940144921D+02 0.203692076400228D+03
0.192830589964D-02 0.000000000000D+00 0.000000000000D+00 0.757490351568D-05 0.000000000000D+00  6 1 -1 25 2 -2 21 0 0.53902805D+00 0.25548676D-01 0.21332779D+06 0.21332779D+06 0.21332779D+06 0.10956800D+01  1  2  2  1  6  1        1 0.773181630858D-03 0.100000000000D+01
0.548941486811D-03 0.000000000000D+00 -.740520238923D-05 0.757490351568D-05 0.000000000000D+00  6 1 -1 25 2 -2 21 2 0.53902805D+00 0.25548676D-01 0.21332779D+06 0.21332779D+06 0.21332779D+06 0.10956800D+01  1  2  3  1  6  1        1 0.264240356362D-03 0.100000000000D+01
-.140153972506D-02 0.000000000000D+00 0.000000000000D+00 0.757490351568D-05 0.000000000000D+00  6 1 -1 25 2 -2 21 2 0.53902805D+00 0.25548676D-01 0.21332779D+06 0.21332779D+06 0.21332779D+06 0.10956800D+01  1  2 15  1  6  1        1 -.674649967806D-03 0.100000000000D+01
-.111151833978D-03 0.000000000000D+00 0.000000000000D+00 0.757490351568D-05 0.000000000000D+00  6 1 -1 25 2 -2 21 2 0.53902805D+00 0.25548676D-01 0.21332779D+06 0.21332779D+06 0.21332779D+06 0.10956800D+01  1  2  4  1  6  1        1 -.535044279330D-04 0.100000000000D+01
-.132516183856D-01 0.000000000000D+00 -.103609759988D-02 0.757490351568D-05 0.000000000000D+00  6 1 -1 25 2 -2 21 2 0.69001209D+00 0.25548676D-01 0.21332779D+06 0.21332779D+06 0.21332779D+06 0.10956800D+01  1  2  5  1  6  1        1 -.771732103195D-03 0.100000000000D+01
0.135815318151D-01 0.000000000000D+00 0.104407182217D-02 0.757490351568D-05 0.000000000000D+00  6 1 -1 25 2 -2 21 2 0.53902805D+00 0.25548676D-01 0.21332779D+06 0.21332779D+06 0.21332779D+06 0.10956800D+01  1  2  6  1  6  1        1 0.653765272434D-02 0.100000000000D+01
-.427403195688D-03 0.000000000000D+00 -.347476239186D-04 0.757490351568D-05 0.000000000000D+00  6 21 -1 25 2 -2 -1 2 0.69001209D+00 0.25548676D-01 0.21332779D+06 0.21332779D+06 0.21332779D+06 0.10956800D+01  1  2  5  5  6  1        1 -.138270232528D-05 0.100000000000D+01
  </mgrwgt>
  </event>
  <event>
  5     66 0.18148205E-05 0.51661777E+02 0.75467711E-02 0.91413085E-01
        1 -1    0    0  502    0 0.00000000E+00 0.00000000E+00 0.28281448E+03 0.28281466E+03 0.32000000E+00 0.0000E+00 0.9000E+01
       -1 -1    0    0    0  501 0.00000000E+00 0.00000000E+00 -.17698267E+04 0.17698267E+04 0.32000000E+00 0.0000E+00 0.9000E+01
       25  1    1    2    0    0 0.29301204E+03 -.53178759E+03 -.72344354E+03 0.95270649E+03 0.12500000E+03 0.0000E+00 0.9000E+01
        2  1    1    2  502    0 0.61611749E+00 0.51711394E+02 0.74357231E+02 0.90573440E+02 0.32000000E+00 0.0000E+00 0.9000E+01
       -2  1    1    2    0  501 -.29362815E+03 0.48007620E+03 -.83792592E+03 0.10093615E+04 0.32000000E+00 0.0000E+00 0.9000E+01
#aMCatNLO 1  0  0  2  5 0.38868484D+02 0.00000000D+00  -5  6  0 0.00000000D+00 0.00000000D+00 0.00000000D+00 0.00000000D+00 0.00000000D+00
  <mgrwgt>
 0.7769549532D-03    7    4    0
 0.707483459791364D+03 0.000000000000000D+00 0.000000000000000D+00 0.707483459791364D+03
 0.707483459791364D+03 0.000000000000000D+00 0.000000000000000D+00 -.707483459791364D+03
 0.621866203799877D+03 0.293077504004321D+03 -.531868448560411D+03 -.481051504623955D+02
 0.209318718080997D+03 0.615482645536873D+00 0.516581101908912D+02 0.202843256165175D+03
 0.583781997701853D+03 -.293692986649858D+03 0.480210338369519D+03 -.154738105702780D+03
 0.000000000000000D+00 0.000000000000000D+00 -.000000000000000D+00 -.000000000000000D+00
 0.753410180122465D+03 0.000000000000000D+00 0.000000000000000D+00 0.753410180122465D+03
 0.764909720244355D+03 0.000000000000000D+00 0.000000000000000D+00 -.764909720244355D+03
 0.597705176098615D+03 0.250814750266749D+03 -.525741698063503D+03 -.481051504623955D+02
 0.210309604700605D+03 -.139262233663782D+02 0.537661934712096D+02 0.202843256165175D+03
 0.610426241708522D+03 -.335076811791591D+03 0.486209672270605D+03 -.154738105702780D+03
 0.998788778590782D+02 0.981882848912200D+02 -.142341676783123D+02 -.114995401218902D+02
 0.707483459791364D+03 0.000000000000000D+00 0.000000000000000D+00 0.707483459791364D+03
 0.707483459791364D+03 0.000000000000000D+00 0.000000000000000D+00 -.707483459791364D+03
 0.621866203799877D+03 0.293077504004321D+03 -.531868448560411D+03 -.481051504623955D+02
 0.209318718080997D+03 0.615482645536873D+00 0.516581101908912D+02 0.202843256165175D+03
 0.000000000000000D+00 0.000000000000000D+00 -.000000000000000D+00 -.000000000000000D+00
 0.583781997701853D+03 -.293692986649858D+03 0.480210338369519D+03 -.154738105702780D+03
 0.753410180122465D+03 0.000000000000000D+00 0.000000000000000D+00 0.753410180122465D+03
 0.764909720244355D+03 0.000000000000000D+00 0.000000000000000D+00 -.764909720244355D+03
 0.597705176098615D+03 0.250814750266749D+03 -.525741698063503D+03 -.481051504623955D+02
 0.210309604700605D+03 -.139262233663782D+02 0.537661934712096D+02 0.202843256165175D+03
 0.998788778590782D+02 0.981882848912200D+02 -.142341676783123D+02 -.114995401218902D+02
 0.610426241708522D+03 -.335076811791591D+03 0.486209672270605D+03 -.154738105702780D+03
0.447400432813D-03 0.000000000000D+00 0.000000000000D+00 0.827183026775D-06 0.000000000000D+00  6 1 -1 25 2 -2 21 0 0.43509937D-01 0.27228105D+00 0.38103804D+06 0.38103804D+06 0.38103804D+06 0.10769514D+01  1  2  2  2  6  2       -1 0.183287796849D-03 0.100000000000D+01
0.121319473350D-03 0.000000000000D+00 -.171813546524D-05 0.827183026775D-06 0.000000000000D+00  6 1 -1 25 2 -2 21 2 0.43509937D-01 0.27228105D+00 0.38103804D+06 0.38103804D+06 0.38103804D+06 0.10769514D+01  1  2  3  2  6  2       -1 0.576447664399D-04 0.100000000000D+01
-.308155581790D-03 0.000000000000D+00 0.000000000000D+00 0.827183026775D-06 0.000000000000D+00  6 1 -1 25 2 -2 21 2 0.43509937D-01 0.27228105D+00 0.38103804D+06 0.38103804D+06 0.38103804D+06 0.10769514D+01  1  2 15  2  6  2       -1 -.146419664123D-03 0.100000000000D+01
-.653217657906D-04 0.000000000000D+00 0.000000000000D+00 0.827183026775D-06 0.000000000000D+00  6 1 -1 25 2 -2 21 2 0.43509937D-01 0.27228105D+00 0.38103804D+06 0.38103804D+06 0.38103804D+06 0.10769514D+01  1  2  4  2  6  2       -1 -.310375393864D-04 0.100000000000D+01
-.362239199569D-02 0.000000000000D+00 -.796922443140D-03 0.827183026775D-06 0.000000000000D+00  6 1 -1 25 2 -2 21 2 0.43509937D-01 0.30422099D+00 0.38103804D+06 0.38103804D+06 0.38103804D+06 0.10769514D+01  1  2  5  2  6  2       -1 -.902144417770D-03 0.100000000000D+01
0.369292301183D-02 0.000000000000D+00 0.792045121408D-03 0.827183026775D-06 0.000000000000D+00  6 1 -1 25 2 -2 21 2 0.43509937D-01 0.27228105D+00 0.38103804D+06 0.38103804D+06 0.38103804D+06 0.10769514D+01  1  2  6  2  6  2       -1 0.175468684968D-02 0.100000000000D+01
-.611167965149D-04 0.000000000000D+00 -.141468470555D-04 0.827183026775D-06 0.000000000000D+00  6 1 21 25 2 1 -2 2 0.43509937D-01 0.30422099D+00 0.38103804D+06 0.38103804D+06 0.38103804D+06 0.10769514D+01  3  4  5  6  5  2       -1 -.139062838516D-03 0.100000000000D+01
  </mgrwgt>
  </event>
  <event>
  6     66 -.18148205E-05 0.18554512E+03 0.75467711E-02 0.89000544E-01
        1 -1    0    0  502    0 0.00000000E+00 0.00000000E+00 0.68927889E+03 0.68927897E+03 0.32000000E+00 0.0000E+00 0.9000E+01
       -1 -1    0    0    0  501 -.00000000E+00 -.00000000E+00 -.18332938E+04 0.18332938E+04 0.32000000E+00 0.0000E+00 0.9000E+01
       25  1    1    2    0    0 0.70122459E+03 -.40839189E+03 -.39574795E+03 0.91145011E+03 0.12500000E+03 0.0000E+00 0.9000E+01
        2  1    1    2  502    0 -.20677000E+03 0.45404991E+02 0.30194402E+03 0.36876244E+03 0.32000000E+00 0.0000E+00 0.9000E+01
       -2  1    1    2    0  503 -.52101069E+03 0.31807415E+03 -.94667376E+03 0.11264167E+04 0.32000000E+00 0.0000E+00 0.9000E+01
       21  1    1    2  503  501 0.26556094E+02 0.44912749E+02 -.10353718E+03 0.11594348E+03 0.75000000E+00 0.0000E+00 0.9000E+01
#aMCatNLO 2  0  0  5  2 0.65147078D+02 0.00000000D+00  -5  6  0 0.00000000D+00 0.00000000D+00 0.00000000D+00 0.00000000D+00 0.00000000D+00
  <mgrwgt>
 -.9812390947D-05    4    2    0
 0.112412224303069D+04 0.000000000000000D+00 0.000000000000000D+00 0.112412224303069D+04
 0.112412224303069D+04 -.000000000000000D+00 -.000000000000000D+00 -.112412224303069D+04
 0.832023127803887D+03 0.709792286128239D+03 -.414696242305368D+03 0.293159064539732D+02
 0.570884738379029D+03 -.200847575869566D+03 0.410808131907198D+02 0.532805783160244D+03
 0.845336619878466D+03 -.508944710258673D+03 0.373615429114648D+03 -.562121689614217D+03
 0.000000000000000D+00 0.000000000000000D+00 0.000000000000000D+00 -.000000000000000D+00
 0.112412224303069D+04 0.000000000000000D+00 0.000000000000000D+00 0.112412224303069D+04
 0.112412224303069D+04 -.000000000000000D+00 -.000000000000000D+00 -.112412224303069D+04
 0.821327657625972D+03 0.701248056074637D+03 -.408423937841670D+03 0.198789343480196D+02
 0.567273899154133D+03 -.206729382272827D+03 0.453986370702663D+02 0.526309417471121D+03
 0.782174902902808D+03 -.521093886282368D+03 0.318072250182883D+03 -.488967058270548D+03
 0.774680263784689D+02 0.265752124805590D+02 0.449530505885208D+02 -.572212935485924D+02
-.486776089234D-08 0.000000000000D+00 0.000000000000D+00 0.280386633432D-06 0.000000000000D+00  6 1 -1 25 2 -2 21 2 0.10604291D+00 0.28204520D+00 0.71864809D+06 0.71864809D+06 0.71864809D+06 0.10575509D+01  1  2 13  4  6  5       -2 -.503172144159D-09 0.100000000000D+01
-.180822846116D-03 0.000000000000D+00 0.000000000000D+00 0.280386633432D-06 0.000000000000D+00  6 1 -1 25 2 -2 21 2 0.10604291D+00 0.28204520D+00 0.71864809D+06 0.71864809D+06 0.71864809D+06 0.10575509D+01  1  2 13  4  6  5       -2 -.186913493093D-04 0.100000000000D+01
-.217155523636D-04 0.000000000000D+00 0.000000000000D+00 0.280386633432D-06 0.000000000000D+00  6 1 -1 25 2 -2 21 2 0.10604291D+00 0.28204520D+00 0.69544803D+06 0.69544803D+06 0.69544803D+06 0.10585281D+01  1  2  8  4  6  5       -2 -.225487544914D-05 0.100000000000D+01
0.107715203955D-03 0.000000000000D+00 0.000000000000D+00 0.280386633432D-06 0.274518710189D-09  6 1 -1 25 2 -2 21 2 0.10604291D+00 0.28204520D+00 0.71864809D+06 0.71864809D+06 0.71864809D+06 0.10575509D+01  1  2  1  4  6  5       -2 0.111343369839D-04 0.100000000000D+01
  </mgrwgt>
  </event>
  <event>
  5     66 0.18148205E-05 0.52435960E+02 0.75467711E-02 0.93332773E-01
        1 -1    0    0  502    0 0.00000000E+00 0.00000000E+00 0.78387820E+03 0.78387826E+03 0.32000000E+00 0.0000E+00 0.9000E+01
       -1 -1    0    0    0  501 -.00000000E+00 -.00000000E+00 -.86683189E+03 0.86683194E+03 0.32000000E+00 0.0000E+00 0.9000E+01
       25  1    1    2    0    0 0.31092277E+03 0.38743726E+03 0.44594509E+03 0.67917054E+03 0.12500000E+03 0.0000E+00 0.9000E+01
        2  1    1    2  502    0 0.87979759E+01 0.51797481E+02 0.11657392E+03 0.12786698E+03 0.32000000E+00 0.0000E+00 0.9000E+01
       -2  1    1    2    0  501 -.31972074E+03 -.43923474E+03 -.64547269E+03 0.84367269E+03 0.32000000E+00 0.0000E+00 0.9000E+01
#aMCatNLO 1  0  0  4  5 0.12912934D+02 0.00000000D+00  -5  6  0 0.00000000D+00 0.00000000D+00 0.00000000D+00 0.00000000D+00 0.00000000D+00
  <mgrwgt>
 0.7732380175D-03    7    2    0
 0.824312268729535D+03 0.000000000000000D+00 0.000000000000000D+00 0.824312268729535D+03
 0.824312268729535D+03 -.000000000000000D+00 -.000000000000000D+00 -.824312268729535D+03
 0.702718830524717D+03 0.310999177938089D+03 0.387607535010890D+03 0.480862417848016D+03
 0.133630511003053D+03 0.878066261393468D+01 0.516955499727041D+02 0.122912910420415D+03
 0.812275195931300D+03 -.319779840552024D+03 -.439303084983594D+03 -.603775328268431D+03
 0.000000000000000D+00 0.000000000000000D+00 0.000000000000000D+00 0.000000000000000D+00
 0.824312268729535D+03 0.000000000000000D+00 0.000000000000000D+00 0.824312268729535D+03
 0.824312268729535D+03 -.000000000000000D+00 -.000000000000000D+00 -.824312268729535D+03
 0.706015498971758D+03 0.311247449055477D+03 0.389069214216663D+03 0.484337750741801D+03
 0.120000444503704D+03 0.736852195217168D+00 0.562658959971519D+02 0.105989210194089D+03
 0.808283497668338D+03 -.319494238143374D+03 -.437621620356396D+03 -.599777426878330D+03
 0.143250963152693D+02 0.750993689267987D+01 -.771348985741819D+01 0.945046594243986D+01
0.451447068459D-03 0.000000000000D+00 0.000000000000D+00 0.173158179339D-05 0.000000000000D+00  6 1 -1 25 2 -2 21 0 0.12059666D+00 0.13335876D+00 0.30704470D+06 0.30704470D+06 0.30704470D+06 0.10838069D+01  1  2  2  3  6  4        2 0.621101431112D-03 0.100000000000D+01
0.802322305504D-04 0.000000000000D+00 -.173367561163D-05 0.173158179339D-05 0.000000000000D+00  6 1 -1 25 2 -2 21 2 0.12059666D+00 0.13335876D+00 0.30704470D+06 0.30704470D+06 0.30704470D+06 0.10838069D+01  1  2  3  3  6  4        2 0.129660697584D-03 0.100000000000D+01
-.316041507445D-03 0.000000000000D+00 0.000000000000D+00 0.173158179339D-05 0.000000000000D+00  6 1 -1 25 2 -2 21 2 0.12059666D+00 0.13335876D+00 0.30704470D+06 0.30704470D+06 0.30704470D+06 0.10838069D+01  1  2 15  3  6  4        2 -.510744398352D-03 0.100000000000D+01
0.141736451945D-08 0.000000000000D+00 0.000000000000D+00 0.173158179339D-05 0.000000000000D+00  6 1 -1 25 2 -2 21 2 0.12059666D+00 0.13335876D+00 0.31503665D+06 0.31503665D+06 0.31503665D+06 0.10829839D+01  1  2 12  3  6  4        2 0.228381836285D-08 0.100000000000D+01
-.680415642144D-04 0.000000000000D+00 0.000000000000D+00 0.173158179339D-05 0.000000000000D+00  6 1 -1 25 2 -2 21 2 0.12059666D+00 0.13335876D+00 0.30704470D+06 0.30704470D+06 0.30704470D+06 0.10838069D+01  1  2  4  3  6  4        2 -.109959758319D-03 0.100000000000D+01
-.160945455772D-02 0.000000000000D+00 0.000000000000D+00 0.173158179339D-05 0.000000000000D+00  6 1 -1 25 2 -2 21 2 0.12059666D+00 0.13335876D+00 0.30704470D+06 0.30704470D+06 0.30704470D+06 0.10838069D+01  1  2  5  3  6  4        2 -.260098715009D-02 0.100000000000D+01
0.200744398257D-02 0.000000000000D+00 -.000000000000D+00 0.173158179339D-05 0.000000000000D+00  6 1 -1 25 2 -2 21 2 0.12059666D+00 0.13335876D+00 0.30704470D+06 0.30704470D+06 0.30704470D+06 0.10838069D+01  1  2  6  3  6  4        2 0.324416491172D-02 0.100000000000D+01
  </mgrwgt>
  </event>
  <event>
  5     66 0.18148205E-05 0.60054136E+02 0.75467711E-02 0.93579360E-01
        1 -1    0    0  502    0 0.00000000E+00 0.00000000E+00 0.17612291E+04 0.17612291E+04 0.32000000E+00 0.0000E+00 0.9000E+01
       -1 -1    0    0    0  501 0.00000000E+00 0.00000000E+00 -.96068464E+03 0.96068469E+03 0.32000000E+00 0.0000E+00 0.9000E+01
       25  1    1    2    0    0 -.25029257E+03 -.43509066E+03 -.16247501E+03 0.54219312E+03 0.12500000E+03 0.0000E+00 0.9000E+01
        2  1    1    2  502    0 0.42800093E+02 -.42129871E+02 0.14593579E+04 0.14605931E+04 0.32000000E+00 0.0000E+00 0.9000E+01
       -2  1    1    2    0  501 0.20749247E+03 0.47722053E+03 -.49633840E+03 0.71912758E+03 0.32000000E+00 0.0000E+00 0.9000E+01
#aMCatNLO 1  0  0  1  4 0.49857849D+02 0.00000000D+00  -5  6  0 0.00000000D+00 0.00000000D+00 0.00000000D+00 0.00000000D+00 0.00000000D+00
  <mgrwgt>
 0.4032551473D-01    7    2    0
 0.130076356821324D+04 0.000000000000000D+00 0.000000000000000D+00 0.130076356821324D+04
 0.130076356821324D+04 0.000000000000000D+00 0.000000000000000D+00 -.130076356821324D+04
 0.617306579931410D+03 -.250312805139053D+03 -.435135748219429D+03 -.336812698441657D+03
 0.107906648040639D+04 0.427984627782780D+02 -.421282663970588D+02 0.107739406434731D+04
 0.905154076088684D+03 0.207514342360775D+03 0.477264014616488D+03 -.740581365905657D+03
 0.000000000000000D+00 0.000000000000000D+00 -.000000000000000D+00 0.000000000000000D+00
 0.155791862167882D+04 0.000000000000000D+00 0.000000000000000D+00 0.155791862167882D+04
 0.147531324831041D+04 0.000000000000000D+00 0.000000000000000D+00 -.147531324831041D+04
 0.567367547038458D+03 -.268059235462142D+03 -.347825223185924D+03 -.336812698441657D+03
 0.108380795339805D+04 0.103985820319344D+02 0.117275655827549D+03 0.107739406434731D+04
 0.979948009918314D+03 0.179275494174901D+03 0.616196104989736D+03 -.740581365905657D+03
 0.402108359634405D+03 0.783851592553064D+02 -.385646537631361D+03 0.826053733684173D+02
0.114360385844D+00 0.000000000000D+00 0.000000000000D+00 0.136459151523D-03 0.000000000000D+00  6 1 -1 25 2 -2 21 0 0.27095833D+00 0.14779764D+00 0.30129370D+06 0.30129370D+06 0.30129370D+06 0.10844136D+01  1  2  2  1  6  1        1 0.234598305965D-01 0.100000000000D+01
0.503087998594D-01 0.000000000000D+00 -.439173993423D-03 0.136459151523D-03 0.000000000000D+00  6 1 -1 25 2 -2 21 2 0.27095833D+00 0.14779764D+00 0.30129370D+06 0.30129370D+06 0.30129370D+06 0.10844136D+01  1  2  3  1  6  1        1 0.121362119652D-01 0.100000000000D+01
-.822821225827D-01 0.000000000000D+00 0.000000000000D+00 0.136459151523D-03 0.000000000000D+00  6 1 -1 25 2 -2 21 2 0.27095833D+00 0.14779764D+00 0.30129370D+06 0.30129370D+06 0.30129370D+06 0.10844136D+01  1  2 15  1  6  1        1 -.198492765362D-01 0.100000000000D+01
-.260199193671D-02 0.000000000000D+00 0.000000000000D+00 0.136459151523D-03 0.000000000000D+00  6 1 -1 25 2 -2 21 2 0.27095833D+00 0.14779764D+00 0.30129370D+06 0.30129370D+06 0.30129370D+06 0.10844136D+01  1  2  4  1  6  1        1 -.627689902441D-03 0.100000000000D+01
-.161174060663D+00 0.000000000000D+00 -.994701265167D-01 0.136459151523D-03 0.000000000000D+00  6 1 -1 25 2 -2 21 2 0.34447908D+00 0.14779764D+00 0.30129370D+06 0.30129370D+06 0.30129370D+06 0.10844136D+01  1  2  5  1  6  1        1 -.186546937052D-01 0.100000000000D+01
0.182566574026D+00 0.000000000000D+00 0.966710117234D-01 0.136459151523D-03 0.000000000000D+00  6 1 -1 25 2 -2 21 2 0.27095833D+00 0.14779764D+00 0.30129370D+06 0.30129370D+06 0.30129370D+06 0.10844136D+01  1  2  6  1  6  1        1 0.440413336502D-01 0.100000000000D+01
-.373409560667D-02 0.000000000000D+00 -.326690226499D-02 0.136459151523D-03 0.000000000000D+00  6 21 -1 25 2 -2 -1 2 0.34447908D+00 0.14779764D+00 0.30129370D+06 0.30129370D+06 0.30129370D+06 0.10844136D+01  1  2  5  5  6  1        1 -.180201335350D-03 0.100000000000D+01
  </mgrwgt>
  </event>
  <event>
  5     66 0.18148205E-05 0.17635697E+02 0.75467711E-02 0.94447443E-01
        1 -1    0    0  502    0 0.00000000E+00 0.00000000E+00 0.33719952E+04 0.33719952E+04 0.32000000E+00 0.0000E+00 0.9000E+01
       -1 -1    0    0    0  501 0.00000000E+00 0.00000000E+00 -.76565689E+03 0.76565696E+03 0.32000000E+00 0.0000E+00 0.9000E+01
       25  1    1    2    0    0 0.40963911E+03 0.26504403E+03 -.32304598E+03 0.59836129E+03 0.12500000E+03 0.0000E+00 0.9000E+01
        2  1    1    2  502    0 -.42138084E+03 -.25188140E+03 0.32154356E+04 0.32526961E+04 0.32000000E+00 0.0000E+00 0.9000E+01
       -2  1    1    2    0  501 0.11741730E+02 -.13162630E+02 -.28605128E+03 0.28659476E+03 0.32000000E+00 0.0000E+00 0.9000E+01
#aMCatNLO 1  0  0  2  2 0.46668137D+01 0.00000000D+00  -5  6  0 0.00000000D+00 0.00000000D+00 0.00000000D+00 0.00000000D+00 0.00000000D+00
  <mgrwgt>
 0.1022448967D-01    6    4    0
 0.160679542738130D+04 0.000000000000000D+00 0.000000000000000D+00 0.160679542738130D+04
 0.160679542738130D+04 0.000000000000000D+00 0.000000000000000D+00 -.160679542738130D+04
 0.103253079256110D+04 0.409643221359544D+03 0.265043111317349D+03 -.901354213350252D+03
 0.158017507780375D+04 -.421382830532425D+03 -.251882588178033D+03 0.150198034222066D+04
 0.600884984397752D+03 0.117396091728807D+02 -.131605231393161D+02 -.600626128870410D+03
 0.000000000000000D+00 -.000000000000000D+00 -.000000000000000D+00 0.000000000000000D+00
 0.161184378397238D+04 0.000000000000000D+00 0.000000000000000D+00 0.161184378397238D+04
 0.160787601049770D+04 0.000000000000000D+00 0.000000000000000D+00 -.160787601049770D+04
 0.103292580360513D+04 0.409666083033619D+03 0.266542676209544D+03 -.901354213350252D+03
 0.157980167151092D+04 -.421347854073147D+03 -.249588378654472D+03 0.150198034222066D+04
 0.600866768245086D+03 0.117529108597515D+02 -.122880261133595D+02 -.600626128870410D+03
 0.612555110893197D+01 -.711398202233384D-01 -.466627144171296D+01 0.396777347467951D+01
 0.160679542738130D+04 0.000000000000000D+00 0.000000000000000D+00 0.160679542738130D+04
 0.160679542738130D+04 0.000000000000000D+00 0.000000000000000D+00 -.160679542738130D+04
 0.103253079256110D+04 0.409643221359544D+03 0.265043111317349D+03 -.901354213350252D+03
 0.158017507780375D+04 -.421382830532425D+03 -.251882588178033D+03 0.150198034222066D+04
 0.000000000000000D+00 -.000000000000000D+00 -.000000000000000D+00 0.000000000000000D+00
 0.600884984397752D+03 0.117396091728807D+02 -.131605231393161D+02 -.600626128870410D+03
 0.161184378397238D+04 0.000000000000000D+00 0.000000000000000D+00 0.161184378397238D+04
 0.160787601049770D+04 0.000000000000000D+00 0.000000000000000D+00 -.160787601049770D+04
 0.103292580360513D+04 0.409666083033619D+03 0.266542676209544D+03 -.901354213350252D+03
 0.157980167151092D+04 -.421347854073147D+03 -.249588378654472D+03 0.150198034222066D+04
 0.612555110893197D+01 -.711398202233384D-01 -.466627144171296D+01 0.396777347467951D+01
 0.600866768245086D+03 0.117529108597515D+02 -.122880261133595D+02 -.600626128870410D+03
0.437571247707D+00 0.000000000000D+00 0.000000000000D+00 0.135661930432D-02 0.000000000000D+00  6 1 -1 25 2 -2 21 0 0.51876850D+00 0.11779337D+00 0.25615172D+06 0.25615172D+06 0.25615172D+06 0.10896658D+01  1  2  2  2  6  2       -1 0.119389268354D-01 0.100000000000D+01
0.262027352430D+00 0.000000000000D+00 -.168038880635D-02 0.135661930432D-02 0.000000000000D+00  6 1 -1 25 2 -2 21 2 0.51876850D+00 0.11779337D+00 0.25615172D+06 0.25615172D+06 0.25615172D+06 0.10896658D+01  1  2  3  2  6  2       -1 0.848886768941D-02 0.100000000000D+01
-.312305061100D+00 0.000000000000D+00 0.000000000000D+00 0.135661930432D-02 0.000000000000D+00  6 1 -1 25 2 -2 21 2 0.51876850D+00 0.11779337D+00 0.25615172D+06 0.25615172D+06 0.25615172D+06 0.10896658D+01  1  2 15  2  6  2       -1 -.101177083912D-01 0.100000000000D+01
-.200613479212D+00 0.000000000000D+00 0.000000000000D+00 0.135661930432D-02 0.000000000000D+00  6 1 -1 25 2 -2 21 2 0.51876850D+00 0.11779337D+00 0.25615172D+06 0.25615172D+06 0.25615172D+06 0.10896658D+01  1  2  4  2  6  2       -1 -.649925004376D-02 0.100000000000D+01
0.202430372907D+00 0.000000000000D+00 0.000000000000D+00 0.135661930432D-02 0.622894541552D-04  6 1 -1 25 2 -2 21 2 0.52039841D+00 0.11787259D+00 0.25799773D+06 0.25799773D+06 0.25799773D+06 0.10894318D+01  1  2 11  2  6  2       -1 0.641332461207D-02 0.100000000000D+01
0.156747643141D-05 0.000000000000D+00 0.000000000000D+00 0.135661930432D-02 0.413099917678D-08  6 1 21 25 2 1 -2 2 0.52039841D+00 0.11787259D+00 0.25799773D+06 0.25799773D+06 0.25799773D+06 0.10894318D+01  3  4 11  6  5  2       -1 0.328963671381D-06 0.100000000000D+01
  </mgrwgt>
  </event>
  <event>
  6     66 0.18148205E-05 0.11883384E+03 0.75467711E-02 0.92818340E-01
        1 -1    0    0  502    0 0.00000000E+00 0.00000000E+00 0.28372751E+04 0.28372751E+04 0.32000000E+00 0.0000E+00 0.9000E+01
       21 -1    0    0  503  501 0.00000000E+00 0.00000000E+00 -.29021381E+03 0.29021478E+03 0.75000000E+00 0.0000E+00 0.9000E+01
       25  1    1    2    0    0 0.30000026E+03 -.34574367E+03 0.10697159E+04 0.11702375E+04 0.12500000E+03 0.0000E+00 0.9000E+01
        2  1    1    2  502    0 -.16253036E+03 -.11211130E+03 0.14105381E+04 0.14242903E+04 0.32000000E+00 0.0000E+00 0.9000E+01
        1  1    1    2  503    0 -.11367439E+03 0.11828315E+03 0.98061712E+02 0.19112554E+03 0.32000000E+00 0.0000E+00 0.9000E+01
       -2  1    1    2    0  501 -.23795515E+02 0.33957182E+03 -.31254415E+02 0.34183649E+03 0.32000000E+00 0.0000E+00 0.9000E+01
#aMCatNLO 2  0  0  2  5 0.73819539D+01 0.00000000D+00  -5  6  0 0.00000000D+00 0.00000000D+00 0.00000000D+00 0.00000000D+00 0.00000000D+00
  <mgrwgt>
 0.1031314774D-03    1    2    0
 0.805872811100921D+03 0.000000000000000D+00 0.000000000000000D+00 0.805872811100921D+03
 0.805872811100921D+03 0.000000000000000D+00 0.000000000000000D+00 -.805872811100921D+03
 0.460152251796146D+03 0.266065123382222D+03 -.310545981483178D+03 0.169957754566587D+03
 0.454688673349011D+03 -.194276591293751D+03 -.790011843772648D+02 0.403431789295481D+03
 0.000000000000000D+00 -.000000000000000D+00 0.000000000000000D+00 -.000000000000000D+00
 0.696904697056686D+03 -.717885320884712D+02 0.389547165860443D+03 -.573389543862068D+03
 0.853534343936714D+03 0.000000000000000D+00 0.000000000000000D+00 0.853534343936714D+03
 0.964715391034724D+03 0.000000000000000D+00 0.000000000000000D+00 -.964715391034724D+03
 0.504085385048693D+03 0.299980739952355D+03 -.345836656154333D+03 0.169957754566587D+03
 0.449133595579698D+03 -.162485994920810D+03 -.112080683076029D+03 0.403431789295481D+03
 0.198176674911499D+03 -.113674387996762D+03 0.118283146554062D+03 -.111181047098009D+03
 0.666854079431548D+03 -.238203570347829D+02 0.339634192676299D+03 -.573389543862068D+03
0.196493658405D-04 0.000000000000D+00 0.000000000000D+00 0.105887206156D-05 0.615895853052D-11  6 1 21 25 2 1 -2 2 0.43650388D+00 0.44648348D-01 0.34602735D+06 0.34602735D+06 0.34602735D+06 0.10799952D+01  1  2  1  6  5  2       -1 0.103131477400D-03 0.100000000000D+01
  </mgrwgt>
  </event>
  <event>
  5     66 0.18148205E-05 0.55642485E+02 0.75467711E-02 0.92690185E-01
        1 -1    0    0  502    0 0.00000000E+00 0.00000000E+00 0.25132863E+04 0.25132863E+04 0.32000000E+00 0.0000E+00 0.9000E+01
       -1 -1    0    0    0  501 0.00000000E+00 0.00000000E+00 -.12873834E+04 0.12873835E+04 0.32000000E+00 0.0000E+00 0.9000E+01
       25  1    1    2    0    0 -.13995473E+03 0.53717820E+03 -.48513178E+03 0.74774701E+03 0.12500000E+03 0.0000E+00 0.9000E+01
        2  1    1    2  502    0 0.88854632E+02 -.55920222E+03 0.23470981E+04 0.24144299E+04 0.32000000E+00 0.0000E+00 0.9000E+01
       -2  1    1    2    0  501 0.51100101E+02 0.22024018E+02 -.63606345E+03 0.63849283E+03 0.32000000E+00 0.0000E+00 0.9000E+01
#aMCatNLO 1  0  0  4  1 0.38808048D+02 0.00000000D+00  -5  6  0 0.00000000D+00 0.00000000D+00 0.00000000D+00 0.00000000D+00 0.00000000D+00
  <mgrwgt>
 0.7907772652D-02    8    2    0
 0.179876714201930D+04 0.000000000000000D+00 0.000000000000000D+00 0.179876714201930D+04
 0.179876714201930D+04 -.000000000000000D+00 -.000000000000000D+00 -.179876714201930D+04
 0.955307766689001D+03 -.139953299450663D+03 0.537179771515166D+03 -.767358388332410D+03
 0.175096213712360D+04 0.888547711420449D+02 -.559203089573610D+03 0.165688416610730D+04
 0.891264380225999D+03 0.510985283086186D+02 0.220233180584442D+02 -.889525777774891D+03
 0.000000000000000D+00 0.000000000000000D+00 -.000000000000000D+00 0.000000000000000D+00
 0.179876714201930D+04 0.000000000000000D+00 0.000000000000000D+00 0.179876714201930D+04
 0.179876714201930D+04 -.000000000000000D+00 -.000000000000000D+00 -.179876714201930D+04
 0.954533994715895D+03 -.139911839099154D+03 0.536918842851900D+03 -.766585272842333D+03
 0.145699639204273D+04 0.767585675399162D+02 -.428437259473191D+03 0.139046327654845D+04
 0.890540736263938D+03 0.511372091396402D+02 0.217798821693349D+02 -.888804492292661D+03
 0.295463161016045D+03 0.120160624195977D+02 -.130261465548044D+03 0.264926488586546D+03
0.436821195585D-02 0.000000000000D+00 0.000000000000D+00 0.512338760437D-03 0.000000000000D+00  6 1 -1 25 2 -2 21 0 0.38665944D+00 0.19805899D+00 0.35454423D+06 0.35454423D+06 0.35454423D+06 0.10792248D+01  1  2  2  3  6  4        2 0.106508627723D-03 0.100000000000D+01
0.149014581998D-02 0.000000000000D+00 -.167750840871D-04 0.512338760437D-03 0.000000000000D+00  6 1 -1 25 2 -2 21 2 0.38665944D+00 0.19805899D+00 0.35454423D+06 0.35454423D+06 0.35454423D+06 0.10792248D+01  1  2  3  3  6  4        2 0.423188354881D-04 0.100000000000D+01
-.313869940545D-02 0.000000000000D+00 0.000000000000D+00 0.512338760437D-03 0.000000000000D+00  6 1 -1 25 2 -2 21 2 0.38665944D+00 0.19805899D+00 0.35454423D+06 0.35454423D+06 0.35454423D+06 0.10792248D+01  1  2 15  3  6  4        2 -.891363127048D-04 0.100000000000D+01
0.382033819540D-09 0.000000000000D+00 0.000000000000D+00 0.512338760437D-03 0.000000000000D+00  6 1 -1 25 2 -2 21 2 0.38665944D+00 0.19805899D+00 0.35426933D+06 0.35426933D+06 0.35426933D+06 0.10792494D+01  1  2 12  3  6  4        2 0.108508332820D-10 0.100000000000D+01
0.449378851047D+00 0.000000000000D+00 0.000000000000D+00 0.512338760437D-03 0.000000000000D+00  6 1 -1 25 2 -2 21 2 0.38665944D+00 0.19805899D+00 0.35426933D+06 0.35426933D+06 0.35426933D+06 0.10792494D+01  1  2 12  3  6  4        2 0.127636212916D-01 0.100000000000D+01
-.263703827775D+00 0.000000000000D+00 0.000000000000D+00 0.512338760437D-03 0.000000000000D+00  6 1 -1 25 2 -2 21 2 0.38665944D+00 0.19805899D+00 0.35454423D+06 0.35454423D+06 0.35454423D+06 0.10792248D+01  1  2  4  3  6  4        2 -.748895762785D-02 0.100000000000D+01
-.495872472230D+00 0.000000000000D+00 0.000000000000D+00 0.512338760437D-03 0.000000000000D+00  6 1 -1 25 2 -2 21 2 0.38665944D+00 0.19805899D+00 0.35454423D+06 0.35454423D+06 0.35454423D+06 0.10792248D+01  1  2  5  3  6  4        2 -.140823436834D-01 0.100000000000D+01
0.586488571987D+00 0.000000000000D+00 -.000000000000D+00 0.512338760437D-03 0.000000000000D+00  6 1 -1 25 2 -2 21 2 0.38665944D+00 0.19805899D+00 0.35454423D+06 0.35454423D+06 0.35454423D+06 0.10792248D+01  1  2  6  3  6  4        2 0.166557615105D-01 0.100000000000D+01
  </mgrwgt>
  </event>
  <event>
  5     66 0.18148205E-05 0.13940416E+02 0.75467711E-02 0.82006230E-01
        1 -1    0    0  502    0 0.00000000E+00 0.00000000E+00 0.42742365E+03 0.42742377E+03 0.32000000E+00 0.0000E+00 0.9000E+01
       -1 -1    0    0    0  501 0.00000000E+00 0.00000000E+00 -.16810795E+04 0.16810795E+04 0.32000000E+00 0.0000E+00 0.9000E+01
       25  1    1    2    0    0 -.33018928E+03 0.50352253E+03 -.93017101E+03 0.11150798E+04 0.12500000E+03 0.0000E+00 0.9000E+01
        2  1    1    2  502    0 0.32288672E+03 -.49164758E+03 0.76541500E+02 0.59315418E+03 0.32000000E+00 0.0000E+00 0.9000E+01
       -2  1    1    2    0  501 0.73025593E+01 -.11874955E+02 -.40002633E+03 0.40026930E+03 0.32000000E+00 0.0000E+00 0.9000E+01
#aMCatNLO 1  0  0  2  5 0.14878479D+02 0.00000000D+00  -5  6  0 0.00000000D+00 0.00000000D+00 0.00000000D+00 0.00000000D+00 0.00000000D+00
  <mgrwgt>
 0.2650317674D-02    3    2    0
 0.847663433184999D+03 0.000000000000000D+00 0.000000000000000D+00 0.847663433184999D+03
 0.847663433184999D+03 0.000000000000000D+00 0.000000000000000D+00 -.847663433184999D+03
 0.699010688095235D+03 -.330190705249878D+03 0.503524671248333D+03 -.332307005165736D+03
 0.794319131255973D+03 0.322888263627076D+03 -.491649926827121D+03 0.533822443273062D+03
 0.201997047018790D+03 0.730244162280235D+01 -.118747444212121D+02 -.201515438107326D+03
 0.000000000000000D+00 0.000000000000000D+00 0.000000000000000D+00 0.000000000000000D+00
 0.282619822910279D+04 0.000000000000000D+00 0.000000000000000D+00 0.282619822910279D+04
 0.155552809340601D+04 0.000000000000000D+00 0.000000000000000D+00 -.155552809340601D+04
 0.118070414142132D+04 -.106568664709133D+04 0.363759940205704D+03 -.332307005165736D+03
 0.880412973018518D+03 -.332401914980649D+03 -.616173327104056D+03 0.533822443273062D+03
 0.273471430074365D+03 -.178739148241919D+03 -.472278324410925D+02 -.201515438107326D+03
 0.204713777799460D+04 0.157682771031390D+04 0.299641219339444D+03 0.127067013569678D+04
0.838200644943D-02 0.000000000000D+00 0.000000000000D+00 0.181422056403D-04 0.000000000000D+00  6 1 -1 25 2 -2 21 0 0.65757497D-01 0.25862763D+00 0.37033796D+06 0.37033796D+06 0.37033796D+06 0.10778482D+01  1  2  2  2  6  2       -1 0.257392421665D-02 0.100000000000D+01
0.556321394135D-02 0.000000000000D+00 -.321891117988D-04 0.181422056403D-04 0.000000000000D+00  6 1 -1 25 2 -2 21 2 0.65757497D-01 0.25862763D+00 0.37033796D+06 0.37033796D+06 0.37033796D+06 0.10778482D+01  1  2  3  2  6  2       -1 0.198467189024D-02 0.100000000000D+01
-.534907620419D-02 0.000000000000D+00 0.000000000000D+00 0.181422056403D-04 0.000000000000D+00  6 1 -1 25 2 -2 21 2 0.65757497D-01 0.25862763D+00 0.37033796D+06 0.37033796D+06 0.37033796D+06 0.10778482D+01  1  2 15  2  6  2       -1 -.190827843278D-02 0.100000000000D+01
  </mgrwgt>
  </event>
  <event>
  6     66 0.18148205E-05 0.10331799E+03 0.75467711E-02 0.91373033E-01
        1 -1    0    0  502    0 0.00000000E+00 0.00000000E+00 0.15744062E+04 0.15744062E+04 0.32000000E+00 0.0000E+00 0.9000E+01
       -1 -1    0    0    0  501 0.00000000E+00 0.00000000E+00 -.45309241E+03 0.45309252E+03 0.32000000E+00 0.0000E+00 0.9000E+01
       25  1    1    2    0    0 0.34271721E+03 0.43596195E+03 0.91174870E+03 0.10744434E+04 0.12500000E+03 0.0000E+00 0.9000E+01
        2  1    1    2  503    0 -.37989419E+03 -.46807717E+03 0.31497328E+03 0.68016476E+03 0.32000000E+00 0.0000E+00 0.9000E+01
       -2  1    1    2    0  501 0.84159067E+02 0.74139263E+02 -.15594918E+03 0.19209276E+03 0.32000000E+00 0.0000E+00 0.9000E+01
       21  1    1    2  502  503 -.46982084E+02 -.42024045E+02 0.50540993E+02 0.80797841E+02 0.75000000E+00 0.0000E+00 0.9000E+01
#aMCatNLO 2  0  0  4  1 0.16015066D+02 0.00000000D+00  -5  6  0 0.00000000D+00 0.00000000D+00 0.00000000D+00 0.00000000D+00 0.00000000D+00
  <mgrwgt>
 0.1156473129D-02    6    2    0
 0.844601467694861D+03 0.000000000000000D+00 0.000000000000000D+00 0.844601467694861D+03
 0.844601467694861D+03 -.000000000000000D+00 -.000000000000000D+00 -.844601467694861D+03
 0.685114970484702D+03 0.343134563981316D+03 0.436476461832991D+03 0.381450510616201D+03
 0.669630390335752D+03 -.427623899066330D+03 -.510994596497908D+03 -.665370795756829D+02
 0.334457574569268D+03 0.844893350850137D+02 0.745181346649175D+02 -.314913431040518D+03
 0.000000000000000D+00 -.000000000000000D+00 0.000000000000000D+00 0.000000000000000D+00
 0.844601467694861D+03 0.000000000000000D+00 0.000000000000000D+00 0.844601467694861D+03
 0.844601467694861D+03 -.000000000000000D+00 -.000000000000000D+00 -.844601467694861D+03
 0.684322762113116D+03 0.342547088048792D+03 0.435774450023669D+03 0.381359101008467D+03
 0.607148947060789D+03 -.379793309031340D+03 -.467966797917901D+03 -.734435999833682D+02
 0.334351026769861D+03 0.842024224730714D+02 0.741752848038837D+02 -.314958073838392D+03
 0.633801994459549D+02 -.469562014905238D+02 -.419829369096520D+02 0.704257281329280D+01
-.824383027916D-06 0.000000000000D+00 0.000000000000D+00 0.570459618025D-07 0.000000000000D+00  6 1 -1 25 2 -2 21 2 0.24221635D+00 0.69706535D-01 0.45299809D+06 0.45299809D+06 0.45299809D+06 0.10715537D+01  1  2 13  3  6  4        2 -.142740164306D-05 0.100000000000D+01
-.334350608923D-02 0.000000000000D+00 0.000000000000D+00 0.570459618025D-07 0.000000000000D+00  6 1 -1 25 2 -2 21 2 0.24221635D+00 0.69706535D-01 0.45299809D+06 0.45299809D+06 0.45299809D+06 0.10715537D+01  1  2 13  3  6  4        2 -.578920953455D-02 0.100000000000D+01
-.500011890352D-03 0.000000000000D+00 0.000000000000D+00 0.570459618025D-07 0.000000000000D+00  6 1 -1 25 2 -2 21 2 0.24221635D+00 0.69706535D-01 0.45432685D+06 0.45432685D+06 0.45432685D+06 0.10714631D+01  1  2  8  3  6  4        2 -.865471864349D-03 0.100000000000D+01
-.257886570957D-03 0.000000000000D+00 0.000000000000D+00 0.570459618025D-07 0.000000000000D+00  6 1 -1 25 2 -2 21 2 0.24221635D+00 0.69706535D-01 0.45432685D+06 0.45432685D+06 0.45432685D+06 0.10714631D+01  1  2  9  3  6  4        2 -.446376527565D-03 0.100000000000D+01
0.283444868490D-03 0.000000000000D+00 0.000000000000D+00 0.570459618025D-07 0.000000000000D+00  6 1 -1 25 2 -2 21 2 0.24221635D+00 0.69706535D-01 0.45432685D+06 0.45432685D+06 0.45432685D+06 0.10714631D+01  1  2 10  3  6  4        2 0.490615450364D-03 0.100000000000D+01
0.448653689103D-02 0.000000000000D+00 0.000000000000D+00 0.570459618025D-07 0.137132356387D-08  6 1 -1 25 2 -2 21 2 0.24221635D+00 0.69706535D-01 0.45299809D+06 0.45299809D+06 0.45299809D+06 0.10715537D+01  1  2  1  3  6  4        2 0.776834300687D-02 0.100000000000D+01
  </mgrwgt>
  </event>
  <event>
  5     66 0.18148205E-05 0.72938003E+02 0.75467711E-02 0.85675668E-01
        1 -1    0    0  502    0 0.00000000E+00 0.00000000E+00 0.11630400E+04 0.11630401E+04 0.32000000E+00 0.0000E+00 0.9000E+01
       -1 -1    0    0    0  501 0.00000000E+00 0.00000000E+00 -.12777773E+04 0.12777773E+04 0.32000000E+00 0.0000E+00 0.9000E+01
       25  1    1    2    0    0 -.64486318E+01 -.47316284E+03 0.30194093E+03 0.57508085E+03 0.12500000E+03 0.0000E+00 0.9000E+01
        2  1    1    2  502    0 -.72399927E+02 -.89486664E+01 0.67017904E+03 0.67413788E+03 0.32000000E+00 0.0000E+00 0.9000E+01
       -2  1    1    2    0  501 0.78848559E+02 0.48211151E+03 -.10868572E+04 0.11915987E+04 0.32000000E+00 0.0000E+00 0.9000E+01
#aMCatNLO 1  0  0  1  4 0.16046306D+03 0.00000000D+00  -5  6  0 0.00000000D+00 0.00000000D+00 0.00000000D+00 0.00000000D+00 0.00000000D+00
  <mgrwgt>
 0.1662914214D-02    5    2    0
 0.121905956530306D+04 0.000000000000000D+00 0.000000000000000D+00 0.121905956530306D+04
 0.121905956530306D+04 0.000000000000000D+00 0.000000000000000D+00 -.121905956530306D+04
 0.590037356797157D+03 -.646879196229126D+01 -.473223457961277D+03 0.329449231266208D+03
 0.706297823223196D+03 -.723871662709441D+02 -.894708916268806D+01 0.702521645819261D+03
 0.114178395058577D+04 0.788559582332354D+02 0.482170547123965D+03 -.103197087708547D+04
 0.000000000000000D+00 -.000000000000000D+00 0.000000000000000D+00 0.000000000000000D+00
 0.255986476887198D+04 0.000000000000000D+00 0.000000000000000D+00 0.255986476887198D+04
 0.159238947734555D+04 0.000000000000000D+00 0.000000000000000D+00 -.159238947734555D+04
 0.860032714540080D+03 0.494004567598494D+02 -.782977693787761D+03 0.329449231266208D+03
 0.774300842638932D+03 -.153416918791876D+02 -.325222638444869D+03 0.702521645819261D+03
 0.104488963836749D+04 0.163105549360031D+03 0.150680119178240D+02 -.103197087708547D+04
 0.147303105067103D+04 -.197164314240693D+03 0.109313232031481D+04 0.967475291526434D+03
0.146257542857D-01 0.000000000000D+00 0.000000000000D+00 0.123780253920D-03 0.000000000000D+00  6 1 -1 25 2 -2 21 0 0.17892924D+00 0.19658113D+00 0.27615612D+06 0.27615612D+06 0.27615612D+06 0.10872229D+01  1  2  2  1  6  1        1 0.308412717535D-02 0.100000000000D+01
0.402481012241D-02 0.000000000000D+00 -.561667475065D-04 0.123780253920D-03 0.000000000000D+00  6 1 -1 25 2 -2 21 2 0.17892924D+00 0.19658113D+00 0.27615612D+06 0.27615612D+06 0.27615612D+06 0.10872229D+01  1  2  3  1  6  1        1 0.100322093460D-02 0.100000000000D+01
-.997567413635D-02 0.000000000000D+00 0.000000000000D+00 0.123780253920D-03 0.000000000000D+00  6 1 -1 25 2 -2 21 2 0.17892924D+00 0.19658113D+00 0.27615612D+06 0.27615612D+06 0.27615612D+06 0.10872229D+01  1  2 15  1  6  1        1 -.248652851339D-02 0.100000000000D+01
0.249210420434D-02 0.000000000000D+00 -.718708076333D-02 0.123780253920D-03 0.000000000000D+00  6 1 -1 25 2 -2 21 2 0.41311607D+00 0.19658113D+00 0.27615612D+06 0.27615612D+06 0.27615612D+06 0.10872229D+01  1  2  5  1  6  1        1 0.574887825050D-04 0.100000000000D+01
0.681600431453D-03 0.000000000000D+00 -.654753199269D-03 0.123780253920D-03 0.000000000000D+00  6 21 -1 25 2 -2 -1 2 0.41311607D+00 0.19658113D+00 0.27615612D+06 0.27615612D+06 0.27615612D+06 0.10872229D+01  1  2  5  5  6  1        1 0.460583515190D-05 0.100000000000D+01
  </mgrwgt>
  </event>
  <event>
  5     66 0.18148205E-05 0.14695337E+02 0.75467711E-02 0.86852622E-01
        1 -1    0    0  502    0 0.00000000E+00 0.00000000E+00 0.89383122E+03 0.89383128E+03 0.32000000E+00 0.0000E+00 0.9000E+01
       -1 -1    0    0    0  501 0.00000000E+00 0.00000000E+00 -.76960456E+03 0.76960462E+03 0.32000000E+00 0.0000E+00 0.9000E+01
       25  1    1    2    0    0 -.69382692E+03 -.10477309E+03 -.39270224E+00 0.71274003E+03 0.12500000E+03 0.0000E+00 0.9000E+01
        2  1    1    2  502    0 0.14555516E+02 0.21215199E+01 0.25163827E+03 0.25206801E+03 0.32000000E+00 0.0000E+00 0.9000E+01
       -2  1    1    2    0  501 0.67927140E+03 0.10265157E+03 -.12701890E+03 0.69862786E+03 0.32000000E+00 0.0000E+00 0.9000E+01
#aMCatNLO 1  0  0  1  4 0.16046306D+03 0.00000000D+00  -5  6  0 0.00000000D+00 0.00000000D+00 0.00000000D+00 0.00000000D+00 0.00000000D+00
  <mgrwgt>
 0.3119741083D-03    6    2    0
 0.829395373901525D+03 0.000000000000000D+00 0.000000000000000D+00 0.829395373901525D+03
 0.829395373901525D+03 0.000000000000000D+00 0.000000000000000D+00 -.829395373901525D+03
 0.714876920359165D+03 -.693949385428373D+03 -.104791631899402D+03 -.536374459649851D+02
 0.233706240086573D+03 0.145416862996938D+02 0.211950414878854D+01 0.233243764583594D+03
 0.710207587357312D+03 0.679407699128679D+03 0.102672127750613D+03 -.179606318618609D+03
 0.000000000000000D+00 -.000000000000000D+00 -.000000000000000D+00 0.000000000000000D+00
 0.134117930924226D+04 0.000000000000000D+00 0.000000000000000D+00 0.134117930924226D+04
 0.103182668950999D+04 0.000000000000000D+00 0.000000000000000D+00 -.103182668950999D+04
 0.536627569091395D+03 -.519056099059723D+03 -.692375102062648D+01 -.536374459649851D+02
 0.250519679991827D+03 0.822105306556374D+02 0.399860600134452D+02 0.233243764583594D+03
 0.958959835377026D+03 0.912667889980780D+03 0.233201326704278D+03 -.179606318618609D+03
 0.626898914291999D+03 -.475822321576694D+03 -.266263635697097D+03 0.309352619732266D+03
0.113230679937D-03 0.000000000000D+00 0.000000000000D+00 0.348217739660D-05 0.000000000000D+00  6 1 -1 25 2 -2 21 0 0.13751251D+00 0.11840071D+00 0.50032918D+06 0.50032918D+06 0.50032918D+06 0.10684902D+01  1  2  2  1  6  1        1 0.165706954580D-03 0.100000000000D+01
0.852218399206D-04 0.000000000000D+00 -.434835625280D-06 0.348217739660D-05 0.000000000000D+00  6 1 -1 25 2 -2 21 2 0.13751251D+00 0.11840071D+00 0.50032918D+06 0.50032918D+06 0.50032918D+06 0.10684902D+01  1  2  3  1  6  1        1 0.142386432869D-03 0.100000000000D+01
-.881663347179D-04 0.000000000000D+00 0.000000000000D+00 0.348217739660D-05 0.000000000000D+00  6 1 -1 25 2 -2 21 2 0.13751251D+00 0.11840071D+00 0.50032918D+06 0.50032918D+06 0.50032918D+06 0.10684902D+01  1  2 15  1  6  1        1 -.147306018167D-03 0.100000000000D+01
-.922091929344D-04 0.000000000000D+00 -.634473487944D-04 0.348217739660D-05 0.000000000000D+00  6 1 -1 25 2 -2 21 2 0.25086220D+00 0.11840071D+00 0.50032918D+06 0.50032918D+06 0.50032918D+06 0.10684902D+01  1  2  5  1  6  1        1 -.455701443131D-04 0.100000000000D+01
0.118285955976D-03 0.000000000000D+00 0.534868647494D-04 0.348217739660D-05 0.000000000000D+00  6 1 -1 25 2 -2 21 2 0.13751251D+00 0.11840071D+00 0.50032918D+06 0.50032918D+06 0.50032918D+06 0.10684902D+01  1  2  6  1  6  1        1 0.197629097724D-03 0.100000000000D+01
-.262267280292D-05 0.000000000000D+00 -.417164281039D-05 0.348217739660D-05 0.000000000000D+00  6 21 -1 25 2 -2 -1 2 0.25086220D+00 0.11840071D+00 0.50032918D+06 0.50032918D+06 0.50032918D+06 0.10684902D+01  1  2  5  5  6  1        1 -.872214428298D-06 0.100000000000D+01
  </mgrwgt>
  </event>
  <event>
  5     66 -.18148205E-05 0.77274638E+02 0.75467711E-02 0.95484752E-01
        1 -1    0    0  502    0 0.00000000E+00 0.00000000E+00 0.28190926E+04 0.28190926E+04 0.32000000E+00 0.0000E+00 0.9000E+01
       -1 -1    0    0    0  501 0.00000000E+00 0.00000000E+00 -.21949116E+03 0.21949139E+03 0.32000000E+00 0.0000E+00 0.9000E+01
       25  1    1    2    0    0 -.25489102E+02 -.45153771E+03 0.12594172E+04 0.13439839E+04 0.12500000E+03 0.0000E+00 0.9000E+01
        2  1    1    2  502    0 0.98970706E+01 0.76670872E+02 0.13163870E+04 0.13186551E+04 0.32000000E+00 0.0000E+00 0.9000E+01
       -2  1    1    2    0  501 0.15592032E+02 0.37486684E+03 0.23797234E+02 0.37594504E+03 0.32000000E+00 0.0000E+00 0.9000E+01
#aMCatNLO 1  0  0  1  4 0.79210644D+01 0.00000000D+00  -5  6  0 0.00000000D+00 0.00000000D+00 0.00000000D+00 0.00000000D+00 0.00000000D+00
  <mgrwgt>
 -.1377056830D-01   13    2    0
 0.786616981150659D+03 0.000000000000000D+00 0.000000000000000D+00 0.786616981150659D+03
 0.786616981150659D+03 0.000000000000000D+00 0.000000000000000D+00 -.786616981150659D+03
 0.514858296134788D+03 -.254887560383170D+02 -.451583896930142D+03 0.211840441011207D+03
 0.371538864217699D+03 0.989292553304828D+01 0.766387609970917D+02 0.363414031046417D+03
 0.686836801948831D+03 0.155958305052687D+02 0.374945135933051D+03 -.575254472057623D+03
 0.000000000000000D+00 0.000000000000000D+00 0.000000000000000D+00 0.000000000000000D+00
 0.114009146755701D+04 0.000000000000000D+00 0.000000000000000D+00 0.114009146755701D+04
 0.786671328856184D+03 0.000000000000000D+00 0.000000000000000D+00 -.786671328856184D+03
 0.516480375520225D+03 -.274195025480585D+02 -.453319729032067D+03 0.211840441011207D+03
 0.371248551628350D+03 0.850236950131983D+01 0.753885855922829D+02 0.363414031046417D+03
 0.685524975881652D+03 0.130266621171612D+02 0.372635332475773D+03 -.575254472057623D+03
 0.353508893382972D+03 0.589047092957749D+01 0.529581096401112D+01 0.353420138700831D+03
0.518137983838D-04 0.000000000000D+00 0.000000000000D+00 0.234798293759D-04 0.000000000000D+00  6 1 -1 25 2 -2 21 0 0.43370657D+00 0.33767890D-01 0.21242954D+06 0.21242954D+06 0.21242954D+06 0.10958200D+01  1  2  2  1  6  1        1 0.434910962143D-04 0.100000000000D+01
0.100277202539D-04 0.000000000000D+00 -.198978628680D-06 0.234798293759D-04 0.000000000000D+00  6 1 -1 25 2 -2 21 2 0.43370657D+00 0.33767890D-01 0.21242954D+06 0.21242954D+06 0.21242954D+06 0.10958200D+01  1  2  3  1  6  1        1 0.101073090676D-04 0.100000000000D+01
-.318681775700D-04 0.000000000000D+00 0.000000000000D+00 0.234798293759D-04 0.000000000000D+00  6 1 -1 25 2 -2 21 2 0.43370657D+00 0.33767890D-01 0.21242954D+06 0.21242954D+06 0.21242954D+06 0.10958200D+01  1  2 15  1  6  1        1 -.321211114755D-04 0.100000000000D+01
0.458267223768D-07 0.000000000000D+00 0.000000000000D+00 0.234798293759D-04 0.000000000000D+00  6 1 -1 25 2 -2 21 2 0.62860687D+00 0.33767890D-01 0.21515092D+06 0.21515092D+06 0.21515092D+06 0.10953980D+01  1  2 12  1  6  1        1 0.423771159144D-08 0.100000000000D+01
0.670306598112D-01 0.000000000000D+00 0.000000000000D+00 0.234798293759D-04 0.000000000000D+00  6 1 -1 25 2 -2 21 2 0.63200395D+00 0.33767890D-01 0.21515092D+06 0.21515092D+06 0.21515092D+06 0.10953980D+01  1  2 12  1  6  1        1 0.590544526629D-02 0.100000000000D+01
-.776408158519D-01 0.000000000000D+00 0.000000000000D+00 0.234798293759D-04 0.000000000000D+00  6 1 -1 25 2 -2 21 2 0.43370657D+00 0.33767890D-01 0.21242954D+06 0.21242954D+06 0.21242954D+06 0.10958200D+01  1  2  4  1  6  1        1 -.782570417010D-01 0.100000000000D+01
-.688542927719D-01 0.000000000000D+00 -.250507741712D-04 0.234798293759D-04 0.000000000000D+00  6 1 -1 25 2 -2 21 2 0.62860369D+00 0.33767890D-01 0.21242954D+06 0.21242954D+06 0.21242954D+06 0.10958200D+01  1  2  5  1  6  1        1 -.637984445249D-02 0.100000000000D+01
0.643802411483D-01 0.000000000000D+00 0.234192942234D-04 0.234798293759D-04 0.000000000000D+00  6 1 -1 25 2 -2 21 2 0.43370657D+00 0.33767890D-01 0.21242954D+06 0.21242954D+06 0.21242954D+06 0.10958200D+01  1  2  6  1  6  1        1 0.648912194055D-01 0.100000000000D+01
0.538838085285D-03 0.000000000000D+00 0.000000000000D+00 0.234798293759D-04 0.330381380520D-05  6 1 -1 25 2 -2 21 2 0.62859711D+00 0.33770223D-01 0.21515092D+06 0.21515092D+06 0.21515092D+06 0.10953980D+01  1  2 11  1  6  1        1 0.498287412402D-04 0.100000000000D+01
0.206541242756D-08 0.000000000000D+00 0.000000000000D+00 0.234798293759D-04 0.000000000000D+00  6 21 -1 25 2 -2 -1 2 0.62860687D+00 0.33767890D-01 0.21515092D+06 0.21515092D+06 0.21515092D+06 0.10953980D+01  1  2 12  5  6  1        1 0.146777109280D-10 0.100000000000D+01
0.305285696782D-02 0.000000000000D+00 0.000000000000D+00 0.234798293759D-04 0.000000000000D+00  6 21 -1 25 2 -2 -1 2 0.63200395D+00 0.33767890D-01 0.21515092D+06 0.21515092D+06 0.21515092D+06 0.10953980D+01  1  2 12  5  6  1        1 0.202988043862D-04 0.100000000000D+01
-.310246470133D-02 0.000000000000D+00 -.112902836074D-05 0.234798293759D-04 0.000000000000D+00  6 21 -1 25 2 -2 -1 2 0.62860369D+00 0.33767890D-01 0.21242954D+06 0.21242954D+06 0.21242954D+06 0.10958200D+01  1  2  5  5  6  1        1 -.221025052765D-04 0.100000000000D+01
0.206268319057D-04 0.000000000000D+00 0.000000000000D+00 0.234798293759D-04 0.125502915824D-06  6 21 -1 25 2 -2 -1 2 0.62859711D+00 0.33770223D-01 0.21515092D+06 0.21515092D+06 0.21515092D+06 0.10953980D+01  1  2 11  5  6  1        1 0.146593852057D-06 0.100000000000D+01
  </mgrwgt>
  </event>
  <event>
  6     66 0.18148205E-05 0.71601970E+02 0.75467711E-02 0.93805631E-01
        1 -1    0    0  502    0 0.00000000E+00 0.00000000E+00 0.21184771E+04 0.21184771E+04 0.32000000E+00 0.0000E+00 0.9000E+01
       21 -1    0    0  503  501 0.00000000E+00 0.00000000E+00 -.40178900E+03 0.40178970E+03 0.75000000E+00 0.0000E+00 0.9000E+01
       25  1    1    2    0    0 0.49918052E+03 -.12235698E+02 0.10250181E+04 0.11470040E+04 0.12500000E+03 0.0000E+00 0.9000E+01
        2  1    1    2  502    0 -.54618763E+02 -.80002956E+02 0.84664822E+03 0.85217193E+03 0.32000000E+00 0.0000E+00 0.9000E+01
        1  1    1    2  503    0 -.12230238E+03 -.17517660E+02 -.13060118E+03 0.17978185E+03 0.32000000E+00 0.0000E+00 0.9000E+01
       -2  1    1    2    0  501 -.32225937E+03 0.10975631E+03 -.24377080E+02 0.34130909E+03 0.32000000E+00 0.0000E+00 0.9000E+01
#aMCatNLO 2  0  0  2  1 0.12355056D+03 0.00000000D+00  -5  6  0 0.00000000D+00 0.00000000D+00 0.00000000D+00 0.00000000D+00 0.00000000D+00
  <mgrwgt>
 0.2309357926D-02    1    2    0
 0.715913320924519D+03 0.000000000000000D+00 0.000000000000000D+00 0.715913320924519D+03
 0.715913320924519D+03 0.000000000000000D+00 0.000000000000000D+00 -.715913320924519D+03
 0.510086793418741D+03 0.454021211832834D+03 -.187682916453783D+02 0.195130795249681D+03
 0.306132988528649D+03 -.804010588501529D+02 -.836557767489688D+02 0.283292759204649D+03
 0.000000000000000D+00 -.000000000000000D+00 -.000000000000000D+00 -.000000000000000D+00
 0.615606859901647D+03 -.373620152982681D+03 0.102424068394347D+03 -.478423554454329D+03
 0.727012413009412D+03 0.000000000000000D+00 0.000000000000000D+00 0.727012413009412D+03
 0.117079375262369D+04 0.000000000000000D+00 0.000000000000000D+00 -.117079375262369D+04
 0.550533785969922D+03 0.499234737170274D+03 -.122922513044091D+02 0.195130795249681D+03
 0.299379464945830D+03 -.545884796966501D+02 -.799585798890699D+02 0.283292759204649D+03
 0.460658896324346D+03 -.122302383288995D+03 -.175176600821333D+02 -.443781339614279D+03
 0.587234018393004D+03 -.322343874184629D+03 0.109768491275612D+03 -.478423554454329D+03
0.277231843481D-03 0.000000000000D+00 0.000000000000D+00 0.262377543267D-05 0.119576436385D-09  6 1 21 25 2 1 -2 2 0.32591959D+00 0.61813744D-01 0.28927190D+06 0.28927190D+06 0.28927190D+06 0.10857239D+01  1  2  1  6  5  2       -1 0.230935792649D-02 0.100000000000D+01
  </mgrwgt>
  </event>
  <event>
  6     66 0.18148205E-05 0.84251115E+02 0.75467711E-02 0.90275279E-01
        1 -1    0    0  502    0 0.00000000E+00 0.00000000E+00 0.32721640E+04 0.32721640E+04 0.32000000E+00 0.0000E+00 0.9000E+01
       -1 -1    0    0    0  503 0.00000000E+00 0.00000000E+00 -.12753766E+04 0.12753767E+04 0.32000000E+00 0.0000E+00 0.9000E+01
       25  1    1    2    0    0 -.55540844E+03 -.48479143E+03 0.79464164E+03 0.10911378E+04 0.12500000E+03 0.0000E+00 0.9000E+01
        2  1    1    2  502    0 0.25326969E+02 0.15744932E+02 0.21660151E+04 0.21662204E+04 0.32000000E+00 0.0000E+00 0.9000E+01
       -2  1    1    2    0  501 0.43545484E+03 0.43940435E+03 -.44532376E+03 0.76224042E+03 0.32000000E+00 0.0000E+00 0.9000E+01
       21  1    1    2  501  503 0.94626631E+02 0.29642147E+02 -.51854555E+03 0.52794215E+03 0.75000000E+00 0.0000E+00 0.9000E+01
#aMCatNLO 2  0  0  2  4 0.99160759D+02 0.00000000D+00  -5  6  0 0.00000000D+00 0.00000000D+00 0.00000000D+00 0.00000000D+00 0.00000000D+00
  <mgrwgt>
 0.3205791345D-02    1    2    0
 0.156687904665014D+04 0.000000000000000D+00 0.000000000000000D+00 0.156687904665014D+04
 0.156687904665014D+04 0.000000000000000D+00 0.000000000000000D+00 -.156687904665014D+04
 0.740469602360570D+03 -.532781925450293D+03 -.477731762042857D+03 0.143478275250735D+03
 0.104080832925910D+04 0.567232059667209D+02 0.255791809432354D+02 0.103894665968097D+04
 0.135248016168062D+04 0.476058719483572D+03 0.452152581099622D+03 -.118242493493171D+04
 0.000000000000000D+00 0.000000000000000D+00 0.000000000000000D+00 -.000000000000000D+00
 0.156991729849827D+04 0.000000000000000D+00 0.000000000000000D+00 0.156991729849827D+04
 0.265825526522173D+04 0.000000000000000D+00 0.000000000000000D+00 -.265825526522173D+04
 0.761446893559229D+03 -.555452108631012D+03 -.484833281922184D+03 0.143478275250735D+03
 0.103937450015307D+04 0.253245723407677D+02 0.157434412361103D+02 0.103894665968097D+04
 0.133450516717681D+04 0.435500905667299D+03 0.439447693857103D+03 -.118242493493171D+04
 0.109284600283088D+04 0.946266306229453D+02 0.296421468289706D+02 -.108833796672346D+04
0.427774356763D+00 0.000000000000D+00 0.000000000000D+00 0.147702580752D-03 0.372878039770D-06  6 1 -1 25 2 -2 21 2 0.50340981D+00 0.19621178D+00 0.55911171D+06 0.55911171D+06 0.55911171D+06 0.10650975D+01  1  2  1  2  6  2       -1 0.320579134529D-02 0.100000000000D+01
  </mgrwgt>
  </event>
  <event>
  5     66 0.18148205E-05 0.15115357E+03 0.75467711E-02 0.94887505E-01
        1 -1    0    0  502    0 0.00000000E+00 0.00000000E+00 0.17670663E+04 0.17670663E+04 0.32000000E+00 0.0000E+00 0.9000E+01
       -1 -1    0    0    0  501 0.00000000E+00 0.00000000E+00 -.11871754E+04 0.11871754E+04 0.32000000E+00 0.0000E+00 0.9000E+01
       25  1    1    2    0    0 -.45105201E+03 0.15256622E+03 -.11714421E+03 0.50603570E+03 0.12500000E+03 0.0000E+00 0.9000E+01
        2  1    1    2  502    0 0.12389450E+03 -.86594115E+02 0.15369750E+04 0.15443900E+04 0.32000000E+00 0.0000E+00 0.9000E+01
       -2  1    1    2    0  501 0.32715751E+03 -.65972101E+02 -.83993983E+03 0.90381601E+03 0.32000000E+00 0.0000E+00 0.9000E+01
#aMCatNLO 1  0  0  1  2 0.18169617D+03 0.00000000D+00  -5  6  0 0.00000000D+00 0.00000000D+00 0.00000000D+00 0.00000000D+00 0.00000000D+00
  <mgrwgt>
 0.6963948105D-02    1    2    0
 0.144838450658931D+04 0.000000000000000D+00 0.000000000000000D+00 0.144838450658931D+04
 0.144838450658931D+04 0.000000000000000D+00 0.000000000000000D+00 -.144838450658931D+04
 0.539530652644582D+03 -.451076549438054D+03 0.152570685754764D+03 -.220727111018263D+03
 0.126732379728178D+04 0.123891827474741D+03 -.865922470923607D+02 0.125827747535477D+04
 0.108991456325226D+04 0.327184721963313D+03 -.659784386624037D+02 -.103755036433651D+04
 0.000000000000000D+00 -.000000000000000D+00 0.000000000000000D+00 -.000000000000000D+00
 0.232508068973498D+04 0.000000000000000D+00 0.000000000000000D+00 0.232508068973498D+04
 0.322699848789645D+04 0.000000000000000D+00 0.000000000000000D+00 -.322699848789645D+04
 0.348694092100098D+03 -.187033884300676D+03 0.149199324564304D+03 -.220727111018263D+03
 0.159458669027125D+04 0.974652265065716D+03 -.974549639952561D+02 0.125827747535477D+04
 0.151518918600392D+04 0.110160419291681D+04 -.758664154715725D+02 -.103755036433651D+04
 0.209360920925616D+04 -.188922257368185D+04 0.241220549025247D+02 -.901917798161467D+03
0.542859469274D-01 0.000000000000D+00 0.000000000000D+00 0.212114809057D-03 0.000000000000D+00  6 1 -1 25 2 -2 21 2 0.27185636D+00 0.18264237D+00 0.23874864D+06 0.23874864D+06 0.23874864D+06 0.10919668D+01  1  2 14  1  6  1        1 0.696394810503D-02 0.100000000000D+01
  </mgrwgt>
  </event>
  <event>
  5     66 -.18148205E-05 0.28377827E+02 0.75467711E-02 0.93778259E-01
        1 -1    0    0  502    0 0.00000000E+00 0.00000000E+00 0.11941401E+04 0.11941402E+04 0.32000000E+00 0.0000E+00 0.9000E+01
       -1 -1    0    0    0  501 0.00000000E+00 0.00000000E+00 -.80589909E+03 0.80589915E+03 0.32000000E+00 0.0000E+00 0.9000E+01
       25  1    1    2    0    0 0.37931181E+03 -.33891762E+03 0.23593024E+03 0.57448297E+03 0.12500000E+03 0.0000E+00 0.9000E+01
        2  1    1    2  502    0 0.27777836E+02 0.58355326E+01 0.67994101E+03 0.68053328E+03 0.32000000E+00 0.0000E+00 0.9000E+01
       -2  1    1    2    0  501 -.40708965E+03 0.33308209E+03 -.52763020E+03 0.74502308E+03 0.32000000E+00 0.0000E+00 0.9000E+01
#aMCatNLO 1  0  0  4  5 0.13667288D-01 0.00000000D+00  -5  6  0 0.00000000D+00 0.00000000D+00 0.00000000D+00 0.00000000D+00 0.00000000D+00
  <mgrwgt>
 -.6632153927D-03    1    2    0
 0.980997734736764D+03 0.000000000000000D+00 0.000000000000000D+00 0.980997734736764D+03
 0.980997734736764D+03 -.000000000000000D+00 -.000000000000000D+00 -.980997734736764D+03
 0.539036484673134D+03 0.379377430502952D+03 -.338967169223014D+03 0.126922634792554D+03
 0.559056651616957D+03 0.277716195662311D+02 0.583422668779512D+01 0.558335955015246D+03
 0.863902333183438D+03 -.407149050069183D+03 0.333132942535219D+03 -.685258589807800D+03
 0.000000000000000D+00 0.000000000000000D+00 0.000000000000000D+00 0.000000000000000D+00
 0.980997734736764D+03 0.000000000000000D+00 0.000000000000000D+00 0.980997734736764D+03
 0.980997734736764D+03 -.000000000000000D+00 -.000000000000000D+00 -.980997734736764D+03
 0.540641421423041D+03 0.379674144340012D+03 -.338904835955677D+03 0.132887933402027D+03
 0.349920910615776D+03 -.558863262868923D+02 -.135439216688206D+02 0.345163619760480D+03
 0.856197453377939D+03 -.406676337415794D+03 0.333232249411129D+03 -.675754913936512D+03
 0.215235684056773D+03 0.828885193626733D+02 0.192165082133690D+02 0.197703360774004D+03
-.705214808202D-03 0.000000000000D+00 0.000000000000D+00 0.105700005483D-03 0.000000000000D+00  6 1 -1 25 2 -2 21 2 0.18371388D+00 0.12398448D+00 0.29069721D+06 0.29069721D+06 0.29069721D+06 0.10855655D+01  1  2 14  3  6  4        2 -.663215392669D-03 0.100000000000D+01
  </mgrwgt>
  </event>
  <event>
  5     66 0.18148205E-05 0.65621895E+02 0.75467711E-02 0.93537440E-01
        1 -1    0    0  502    0 0.00000000E+00 0.00000000E+00 0.18269587E+04 0.18269587E+04 0.32000000E+00 0.0000E+00 0.9000E+01
       -1 -1    0    0    0  501 0.00000000E+00 0.00000000E+00 -.71231721E+03 0.71231728E+03 0.32000000E+00 0.0000E+00 0.9000E+01
       25  1    1    2    0    0 -.46884125E+03 0.13099943E+03 0.22273823E+02 0.50308458E+03 0.12500000E+03 0.0000E+00 0.9000E+01
        2  1    1    2  502    0 0.40546172E+03 -.11401230E+03 0.15334571E+04 0.15902480E+04 0.32000000E+00 0.0000E+00 0.9000E+01
       -2  1    1    2    0  501 0.63379537E+02 -.16987136E+02 -.44108943E+03 0.44594340E+03 0.32000000E+00 0.0000E+00 0.9000E+01
#aMCatNLO 1  0  0  2  5 0.20279641D+03 0.00000000D+00  -5  6  0 0.00000000D+00 0.00000000D+00 0.00000000D+00 0.00000000D+00 0.00000000D+00
  <mgrwgt>
 0.1030917632D-01    7    4    0
 0.114077791355009D+04 0.000000000000000D+00 0.000000000000000D+00 0.114077791355009D+04
 0.114077791355009D+04 0.000000000000000D+00 0.000000000000000D+00 -.114077791355009D+04
 0.549006038293187D+03 -.468839669206666D+03 0.130998924130666D+03 -.220932742112099D+03
 0.102070032193919D+04 0.405454947467078D+03 -.114010392624811D+03 0.929751075909449D+03
 0.711849466867808D+03 0.633847217395883D+02 -.169885315058552D+02 -.708818333797350D+03
 0.000000000000000D+00 0.000000000000000D+00 -.000000000000000D+00 -.000000000000000D+00
 0.116370828414475D+04 0.000000000000000D+00 0.000000000000000D+00 0.116370828414475D+04
 0.170306228873919D+04 0.000000000000000D+00 0.000000000000000D+00 -.170306228873919D+04
 0.593406964013899D+03 -.519438888940913D+03 0.133711589097024D+03 -.220932742112099D+03
 0.988194701282141D+03 0.316477913331672D+03 -.109240262085699D+03 0.929751075909449D+03
 0.708949223511997D+03 0.455373957767385D+00 -.136148384335095D+02 -.708818333797350D+03
 0.576219684075898D+03 0.202505601651473D+03 -.108564885778163D+02 -.539354004594443D+03
 0.114077791355009D+04 0.000000000000000D+00 0.000000000000000D+00 0.114077791355009D+04
 0.114077791355009D+04 0.000000000000000D+00 0.000000000000000D+00 -.114077791355009D+04
 0.549006038293187D+03 -.468839669206666D+03 0.130998924130666D+03 -.220932742112099D+03
 0.102070032193919D+04 0.405454947467078D+03 -.114010392624811D+03 0.929751075909449D+03
 0.000000000000000D+00 0.000000000000000D+00 -.000000000000000D+00 -.000000000000000D+00
 0.711849466867808D+03 0.633847217395883D+02 -.169885315058552D+02 -.708818333797350D+03
 0.116370828414475D+04 0.000000000000000D+00 0.000000000000000D+00 0.116370828414475D+04
 0.170306228873919D+04 0.000000000000000D+00 0.000000000000000D+00 -.170306228873919D+04
 0.593406964013899D+03 -.519438888940913D+03 0.133711589097024D+03 -.220932742112099D+03
 0.988194701282141D+03 0.316477913331672D+03 -.109240262085699D+03 0.929751075909449D+03
 0.576219684075898D+03 0.202505601651473D+03 -.108564885778163D+02 -.539354004594443D+03
 0.708949223511997D+03 0.455373957767385D+00 -.136148384335095D+02 -.708818333797350D+03
0.494579892445D-02 0.000000000000D+00 0.000000000000D+00 0.220923070941D-03 0.000000000000D+00  6 1 -1 25 2 -2 21 0 0.28107058D+00 0.10958727D+00 0.24472361D+06 0.24472361D+06 0.24472361D+06 0.10911567D+01  1  2  2  2  6  2       -1 0.200938372572D-02 0.100000000000D+01
0.155282457242D-02 0.000000000000D+00 -.189931701287D-04 0.220923070941D-03 0.000000000000D+00  6 1 -1 25 2 -2 21 2 0.28107058D+00 0.10958727D+00 0.24472361D+06 0.24472361D+06 0.24472361D+06 0.10911567D+01  1  2  3  2  6  2       -1 0.751143807441D-03 0.100000000000D+01
-.366314190775D-02 0.000000000000D+00 0.000000000000D+00 0.220923070941D-03 0.000000000000D+00  6 1 -1 25 2 -2 21 2 0.28107058D+00 0.10958727D+00 0.24472361D+06 0.24472361D+06 0.24472361D+06 0.10911567D+01  1  2 15  2  6  2       -1 -.177196214476D-02 0.100000000000D+01
-.542857273448D-03 0.000000000000D+00 0.000000000000D+00 0.220923070941D-03 0.000000000000D+00  6 1 -1 25 2 -2 21 2 0.28107058D+00 0.10958727D+00 0.24472361D+06 0.24472361D+06 0.24472361D+06 0.10911567D+01  1  2  4  2  6  2       -1 -.262594942479D-03 0.100000000000D+01
-.370091718477D-01 0.000000000000D+00 -.363792027767D-02 0.220923070941D-03 0.000000000000D+00  6 1 -1 25 2 -2 21 2 0.28107058D+00 0.16487512D+00 0.24472361D+06 0.24472361D+06 0.24472361D+06 0.10911567D+01  1  2  5  2  6  2       -1 -.601959912652D-02 0.100000000000D+01
0.357544368699D-01 0.000000000000D+00 0.335419235420D-02 0.220923070941D-03 0.000000000000D+00  6 1 -1 25 2 -2 21 2 0.28107058D+00 0.10958727D+00 0.24472361D+06 0.24472361D+06 0.24472361D+06 0.10911567D+01  1  2  6  2  6  2       -1 0.172954011163D-01 0.100000000000D+01
-.166125870812D-02 0.000000000000D+00 -.175853033514D-03 0.220923070941D-03 0.000000000000D+00  6 1 21 25 2 1 -2 2 0.28107058D+00 0.16487512D+00 0.24472361D+06 0.24472361D+06 0.24472361D+06 0.10911567D+01  3  4  5  6  5  2       -1 -.169259611997D-02 0.100000000000D+01
  </mgrwgt>
  </event>
  <event>
  5     66 0.18148205E-05 0.25995833E+02 0.75467711E-02 0.94903577E-01
        1 -1    0    0  502    0 0.00000000E+00 0.00000000E+00 0.24750315E+04 0.24750315E+04 0.32000000E+00 0.0000E+00 0.9000E+01
       -1 -1    0    0    0  501 0.00000000E+00 0.00000000E+00 -.28373988E+03 0.28374006E+03 0.32000000E+00 0.0000E+00 0.9000E+01
       25  1    1    2    0    0 0.35333753E+03 -.29027783E+03 0.13710887E+04 0.14507301E+04 0.12500000E+03 0.0000E+00 0.9000E+01
        2  1    1    2  502    0 0.25825485E+02 0.31308844E+01 0.83186785E+03 0.83227459E+03 0.32000000E+00 0.0000E+00 0.9000E+01
       -2  1    1    2    0  501 -.37916301E+03 0.28714695E+03 -.11664928E+02 0.47576689E+03 0.32000000E+00 0.0000E+00 0.9000E+01
#aMCatNLO 1  0  0  1  5 0.12787321D+03 0.00000000D+00  -5  6  0 0.00000000D+00 0.00000000D+00 0.00000000D+00 0.00000000D+00 0.00000000D+00
  <mgrwgt>
 0.3145517788D-01    7    2    0
 0.838012772373588D+03 0.000000000000000D+00 0.000000000000000D+00 0.838012772373588D+03
 0.838012772373588D+03 0.000000000000000D+00 0.000000000000000D+00 -.838012772373588D+03
 0.595502505800340D+03 0.353423472210020D+03 -.290329468296423D+03 0.360276121251761D+03
 0.282125294859801D+03 0.258068790946608D+02 0.312862870616446D+01 0.280925076619269D+03
 0.798397744087034D+03 -.379230351304681D+03 0.287200839590259D+03 -.641201197871030D+03
 0.000000000000000D+00 0.000000000000000D+00 0.000000000000000D+00 0.000000000000000D+00
 0.127496989005871D+04 0.000000000000000D+00 0.000000000000000D+00 0.127496989005871D+04
 0.849856063989575D+03 0.000000000000000D+00 0.000000000000000D+00 -.849856063989575D+03
 0.577571363704987D+03 0.310535231538515D+03 -.302874011102217D+03 0.360276121251761D+03
 0.280988448710887D+03 0.521912380702796D+01 -.289316126323605D+01 0.280925076619269D+03
 0.822336729467390D+03 -.438485315525920D+03 0.269869132262312D+03 -.641201197871030D+03
 0.443929412165022D+03 0.122730960180377D+03 0.358980401031406D+02 0.425113826069134D+03
0.406254641977D-02 0.000000000000D+00 0.000000000000D+00 0.545667633288D-04 0.000000000000D+00  6 1 -1 25 2 -2 21 0 0.38077409D+00 0.43652305D-01 0.23807679D+06 0.23807679D+06 0.23807679D+06 0.10920593D+01  1  2  2  1  6  1        1 0.378237621832D-02 0.100000000000D+01
0.176991175921D-02 0.000000000000D+00 -.156012479450D-04 0.545667633288D-04 0.000000000000D+00  6 1 -1 25 2 -2 21 2 0.38077409D+00 0.43652305D-01 0.23807679D+06 0.23807679D+06 0.23807679D+06 0.10920593D+01  1  2  3  1  6  1        1 0.196521670746D-02 0.100000000000D+01
-.281793418533D-02 0.000000000000D+00 0.000000000000D+00 0.545667633288D-04 0.000000000000D+00  6 1 -1 25 2 -2 21 2 0.38077409D+00 0.43652305D-01 0.23807679D+06 0.23807679D+06 0.23807679D+06 0.10920593D+01  1  2 15  1  6  1        1 -.312888555754D-02 0.100000000000D+01
-.269502898636D-03 0.000000000000D+00 0.000000000000D+00 0.545667633288D-04 0.000000000000D+00  6 1 -1 25 2 -2 21 2 0.38077409D+00 0.43652305D-01 0.23807679D+06 0.23807679D+06 0.23807679D+06 0.10920593D+01  1  2  4  1  6  1        1 -.299241810419D-03 0.100000000000D+01
-.310446453338D-01 0.000000000000D+00 -.197156005647D-02 0.545667633288D-04 0.000000000000D+00  6 1 -1 25 2 -2 21 2 0.58071314D+00 0.43652305D-01 0.23807679D+06 0.23807679D+06 0.23807679D+06 0.10920593D+01  1  2  5  1  6  1        1 -.347439469144D-02 0.100000000000D+01
0.293840630606D-01 0.000000000000D+00 0.180811829014D-02 0.545667633288D-04 0.000000000000D+00  6 1 -1 25 2 -2 21 2 0.38077409D+00 0.43652305D-01 0.23807679D+06 0.23807679D+06 0.23807679D+06 0.10920593D+01  1  2  6  1  6  1        1 0.326265144910D-01 0.100000000000D+01
-.146516469203D-02 0.000000000000D+00 -.976390388460D-04 0.545667633288D-04 0.000000000000D+00  6 21 -1 25 2 -2 -1 2 0.58071314D+00 0.43652305D-01 0.23807679D+06 0.23807679D+06 0.23807679D+06 0.10920593D+01  1  2  5  5  6  1        1 -.164074773898D-04 0.100000000000D+01
  </mgrwgt>
  </event>
  <event>
  5     66 -.18148205E-05 0.23236920E+03 0.75467711E-02 0.92580752E-01
        1 -1    0    0  502    0 0.00000000E+00 0.00000000E+00 0.15874055E+04 0.15874056E+04 0.32000000E+00 0.0000E+00 0.9000E+01
       -1 -1    0    0    0  501 0.00000000E+00 0.00000000E+00 -.47874012E+03 0.47874023E+03 0.32000000E+00 0.0000E+00 0.9000E+01
       25  1    1    2    0    0 -.70892350E+02 0.48678050E+03 0.30856831E+03 0.59398686E+03 0.12500000E+03 0.0000E+00 0.9000E+01
        2  1    1    2  502    0 -.14152469E+03 -.35662519E+03 0.10508436E+04 0.11186971E+04 0.32000000E+00 0.0000E+00 0.9000E+01
       -2  1    1    2    0  501 0.21241704E+03 -.13015531E+03 -.25074648E+03 0.35346188E+03 0.32000000E+00 0.0000E+00 0.9000E+01
#aMCatNLO 1  0  0  1  4 0.66144978D+02 0.00000000D+00  -5  6  0 0.00000000D+00 0.00000000D+00 0.00000000D+00 0.00000000D+00 0.00000000D+00
  <mgrwgt>
 -.1291331338D-02   11    2    0
 0.871753899994399D+03 0.000000000000000D+00 0.000000000000000D+00 0.871753899994399D+03
 0.871753899994399D+03 0.000000000000000D+00 0.000000000000000D+00 -.871753899994399D+03
 0.507690217524026D+03 -.709329350588765D+02 0.486775481869994D+03 -.119375853405106D+02
 0.657440487219823D+03 -.141511783560014D+03 -.356592672933995D+03 0.533895190987230D+03
 0.578377095244947D+03 0.212444718618891D+03 -.130182808935998D+03 -.521957605646720D+03
 0.000000000000000D+00 -.000000000000000D+00 -.000000000000000D+00 0.000000000000000D+00
 0.114613746074353D+04 0.000000000000000D+00 0.000000000000000D+00 0.114613746074353D+04
 0.876376508547673D+03 0.000000000000000D+00 0.000000000000000D+00 -.876376508547673D+03
 0.518330474940385D+03 -.564061261931649D+02 0.499717244285249D+03 -.119375853405106D+02
 0.644905802670248D+03 -.123072647030750D+03 -.340165464019072D+03 0.533895190987230D+03
 0.581525771114198D+03 0.228867084528411D+03 -.115552317142369D+03 -.521957605646720D+03
 0.277751920566376D+03 -.493883113044968D+02 -.439994631238085D+02 0.269760952195860D+03
0.592472453578D-04 0.000000000000D+00 0.000000000000D+00 0.923431081752D-06 0.000000000000D+00  6 1 -1 25 2 -2 21 0 0.24421625D+00 0.73652337D-01 0.32510218D+06 0.32510218D+06 0.32510218D+06 0.10819793D+01  1  2  2  1  6  1        1 0.800153304396D-04 0.100000000000D+01
0.395984398515D-05 0.000000000000D+00 -.227525022332D-06 0.923431081752D-06 0.000000000000D+00  6 1 -1 25 2 -2 21 2 0.24421625D+00 0.73652337D-01 0.32510218D+06 0.32510218D+06 0.32510218D+06 0.10819793D+01  1  2  3  1  6  1        1 0.626067318936D-05 0.100000000000D+01
-.457418746589D-04 0.000000000000D+00 0.000000000000D+00 0.923431081752D-06 0.000000000000D+00  6 1 -1 25 2 -2 21 2 0.24421625D+00 0.73652337D-01 0.32510218D+06 0.32510218D+06 0.32510218D+06 0.10819793D+01  1  2 15  1  6  1        1 -.723197503189D-04 0.100000000000D+01
0.114643795929D-07 0.000000000000D+00 0.000000000000D+00 0.923431081752D-06 0.000000000000D+00  6 1 -1 25 2 -2 21 2 0.32158635D+00 0.73652337D-01 0.36148136D+06 0.36148136D+06 0.36148136D+06 0.10786121D+01  1  2 12  1  6  1        1 0.826748829683D-08 0.100000000000D+01
0.112432522344D-02 0.000000000000D+00 0.000000000000D+00 0.923431081752D-06 0.000000000000D+00  6 1 -1 25 2 -2 21 2 0.33092020D+00 0.73652337D-01 0.36148136D+06 0.36148136D+06 0.36148136D+06 0.10786121D+01  1  2 12  1  6  1        1 0.738176776802D-03 0.100000000000D+01
-.196798078969D-02 0.000000000000D+00 0.000000000000D+00 0.923431081752D-06 0.000000000000D+00  6 1 -1 25 2 -2 21 2 0.24421625D+00 0.73652337D-01 0.32510218D+06 0.32510218D+06 0.32510218D+06 0.10819793D+01  1  2  4  1  6  1        1 -.311145707088D-02 0.100000000000D+01
-.132386644275D-02 0.000000000000D+00 -.478102629445D-04 0.923431081752D-06 0.000000000000D+00  6 1 -1 25 2 -2 21 2 0.32159351D+00 0.73652337D-01 0.32510218D+06 0.32510218D+06 0.32510218D+06 0.10819793D+01  1  2  5  1  6  1        1 -.967622094147D-03 0.100000000000D+01
0.128962472462D-02 0.000000000000D+00 0.460548071727D-04 0.923431081752D-06 0.000000000000D+00  6 1 -1 25 2 -2 21 2 0.24421625D+00 0.73652337D-01 0.32510218D+06 0.32510218D+06 0.32510218D+06 0.10819793D+01  1  2  6  1  6  1        1 0.203894874849D-02 0.100000000000D+01
0.416292797498D-09 0.000000000000D+00 0.000000000000D+00 0.923431081752D-06 0.000000000000D+00  6 21 -1 25 2 -2 -1 2 0.32158635D+00 0.73652337D-01 0.36148136D+06 0.36148136D+06 0.36148136D+06 0.10786121D+01  1  2 12  5  6  1        1 0.139630006054D-09 0.100000000000D+01
0.438604081823D-04 0.000000000000D+00 0.000000000000D+00 0.923431081752D-06 0.000000000000D+00  6 21 -1 25 2 -2 -1 2 0.33092020D+00 0.73652337D-01 0.36148136D+06 0.36148136D+06 0.36148136D+06 0.10786121D+01  1  2 12  5  6  1        1 0.127620472300D-04 0.100000000000D+01
-.471388055231D-04 0.000000000000D+00 -.173618131495D-05 0.923431081752D-06 0.000000000000D+00  6 21 -1 25 2 -2 -1 2 0.32159351D+00 0.73652337D-01 0.32510218D+06 0.32510218D+06 0.32510218D+06 0.10819793D+01  1  2  5  5  6  1        1 -.161044057788D-04 0.100000000000D+01
  </mgrwgt>
  </event>
  <event>
  6     66 0.18148205E-05 0.34289018E+02 0.75467711E-02 0.92247014E-01
        1 -1    0    0  502    0 0.00000000E+00 0.00000000E+00 0.16880052E+04 0.16880052E+04 0.32000000E+00 0.0000E+00 0.9000E+01
       -1 -1    0    0    0  501 0.00000000E+00 0.00000000E+00 -.71485651E+03 0.71485658E+03 0.32000000E+00 0.0000E+00 0.9000E+01
       25  1    1    2    0    0 -.52531320E+03 -.24756147E+03 0.43854592E+03 0.73836858E+03 0.12500000E+03 0.0000E+00 0.9000E+01
        2  1    1    2  502    0 0.22689701E+02 -.52918256E+02 0.94333486E+03 0.94509043E+03 0.32000000E+00 0.0000E+00 0.9000E+01
       -2  1    1    2    0  503 0.31598270E+03 0.22100282E+03 -.22964434E+03 0.44880278E+03 0.32000000E+00 0.0000E+00 0.9000E+01
       21  1    1    2  503  501 0.18664080E+03 0.79476904E+02 -.17908777E+03 0.27060000E+03 0.75000000E+00 0.0000E+00 0.9000E+01
#aMCatNLO 2  0  0  5  2 0.42360693D+02 0.00000000D+00  -5  6  0 0.00000000D+00 0.00000000D+00 0.00000000D+00 0.00000000D+00 0.00000000D+00
  <mgrwgt>
 0.5853983113D-03    3    2    0
 0.109849060907305D+04 0.000000000000000D+00 0.000000000000000D+00 0.109849060907305D+04
 0.109849060907305D+04 -.000000000000000D+00 -.000000000000000D+00 -.109849060907305D+04
 0.614234330844929D+03 -.525937333101420D+03 -.247942074377609D+03 0.153536518756978D+03
 0.616579138017272D+03 0.221131414449404D+02 -.532515838236668D+02 0.613877114114730D+03
 0.966167749283904D+03 0.503824191656479D+03 0.301193658201276D+03 -.767413632871708D+03
 0.000000000000000D+00 0.000000000000000D+00 0.000000000000000D+00 -.000000000000000D+00
 0.109849060907305D+04 0.000000000000000D+00 0.000000000000000D+00 0.109849060907305D+04
 0.109849060907305D+04 -.000000000000000D+00 -.000000000000000D+00 -.109849060907305D+04
 0.613391114928059D+03 -.525366670491601D+03 -.247600923710578D+03 0.152667298354708D+03
 0.615701767608168D+03 0.226859681487659D+02 -.529091394287811D+02 0.613004597413333D+03
 0.592355034471328D+03 0.315893046119796D+03 0.220954380198518D+03 -.449750188602265D+03
 0.375533301138551D+03 0.186787656223039D+03 0.795556829408407D+02 -.315921707165775D+03
-.253649843333D-09 0.000000000000D+00 0.000000000000D+00 0.427987761825D-04 0.000000000000D+00  6 1 -1 25 2 -2 21 2 0.25969311D+00 0.10997793D+00 0.38451097D+06 0.38451097D+06 0.38451097D+06 0.10766662D+01  1  2 13  4  6  5       -2 -.141754707959D-09 0.100000000000D+01
-.353038399777D-02 0.000000000000D+00 0.000000000000D+00 0.427987761825D-04 0.000000000000D+00  6 1 -1 25 2 -2 21 2 0.25969311D+00 0.10997793D+00 0.38451097D+06 0.38451097D+06 0.38451097D+06 0.10766662D+01  1  2 13  4  6  5       -2 -.197298979574D-02 0.100000000000D+01
0.457787108335D-02 0.000000000000D+00 0.000000000000D+00 0.427987761825D-04 0.799402447849D-07  6 1 -1 25 2 -2 21 2 0.25969311D+00 0.10997793D+00 0.38451097D+06 0.38451097D+06 0.38451097D+06 0.10766662D+01  1  2  1  4  6  5       -2 0.255838824880D-02 0.100000000000D+01
  </mgrwgt>
  </event>
  <event>
  6     66 0.18148205E-05 0.74598681E+02 0.75467711E-02 0.93198113E-01
        1 -1    0    0  502    0 0.00000000E+00 0.00000000E+00 0.18490121E+04 0.18490121E+04 0.32000000E+00 0.0000E+00 0.9000E+01
       -1 -1    0    0    0  503 0.00000000E+00 0.00000000E+00 -.34323698E+03 0.34323713E+03 0.32000000E+00 0.0000E+00 0.9000E+01
       25  1    1    2    0    0 0.21567687E+03 0.48649904E+03 0.89597804E+03 0.10495711E+04 0.12500000E+03 0.0000E+00 0.9000E+01
        2  1    1    2  502    0 0.23953288E+02 0.23575518E+01 0.38526397E+03 0.38601522E+03 0.32000000E+00 0.0000E+00 0.9000E+01
       -2  1    1    2    0  501 -.25700697E+03 -.40400737E+03 0.35778665E+03 0.59773399E+03 0.32000000E+00 0.0000E+00 0.9000E+01
       21  1    1    2  501  503 0.17376814E+02 -.84849224E+02 -.13325354E+03 0.15892895E+03 0.75000000E+00 0.0000E+00 0.9000E+01
#aMCatNLO 2  0  0  2  2 0.86610302D+02 0.00000000D+00  -5  6  0 0.00000000D+00 0.00000000D+00 0.00000000D+00 0.00000000D+00 0.00000000D+00
  <mgrwgt>
 0.1502045383D-01    1    2    0
 0.600098984664544D+03 0.000000000000000D+00 0.000000000000000D+00 0.600098984664544D+03
 0.600098984664544D+03 0.000000000000000D+00 0.000000000000000D+00 -.600098984664544D+03
 0.523446796105216D+03 0.223554340484950D+03 0.448609381917816D+03 0.845258993354678D+02
 0.127776674923331D+03 0.257516187991027D+02 -.665050438362966D+01 0.124978012366703D+03
 0.548974498300541D+03 -.249305959284053D+03 -.441958877534186D+03 -.209503911702171D+03
 0.000000000000000D+00 0.000000000000000D+00 -.000000000000000D+00 -.000000000000000D+00
 0.605865700710894D+03 0.000000000000000D+00 0.000000000000000D+00 0.605865700710894D+03
 0.104750751061668D+04 0.000000000000000D+00 0.000000000000000D+00 -.104750751061668D+04
 0.553286178402674D+03 0.215769835751304D+03 0.486620329962509D+03 0.845258993354678D+02
 0.127265940911954D+03 0.239077257473843D+02 0.235303860169457D+01 0.124978012366703D+03
 0.522766836744141D+03 -.257054375737735D+03 -.404124144904815D+03 -.209503911702171D+03
 0.450054255268799D+03 0.173768142390466D+02 -.848492236593895D+02 -.441641809905781D+03
0.750367648882D-02 0.000000000000D+00 0.000000000000D+00 0.208652707614D-05 0.287630538593D-08  6 1 -1 25 2 -2 21 2 0.28446327D+00 0.52805676D-01 0.32283718D+06 0.32283718D+06 0.32283718D+06 0.10822024D+01  1  2  1  2  6  2       -1 0.150204538350D-01 0.100000000000D+01
  </mgrwgt>
  </event>
  <event>
  5     66 0.18148205E-05 0.64787016E+02 0.75467711E-02 0.94997410E-01
        1 -1    0    0  502    0 0.00000000E+00 0.00000000E+00 0.13330840E+04 0.13330840E+04 0.32000000E+00 0.0000E+00 0.9000E+01
       -1 -1    0    0    0  501 0.00000000E+00 0.00000000E+00 -.35739108E+03 0.35739122E+03 0.32000000E+00 0.0000E+00 0.9000E+01
       25  1    1    2    0    0 -.36578334E+03 0.28022709E+03 0.28152419E+03 0.55426126E+03 0.12500000E+03 0.0000E+00 0.9000E+01
        2  1    1    2  502    0 0.62274826E+02 0.17949501E+02 0.70756857E+03 0.71053059E+03 0.32000000E+00 0.0000E+00 0.9000E+01
       -2  1    1    2    0  501 0.30350851E+03 -.29817660E+03 -.13399846E+02 0.42568340E+03 0.32000000E+00 0.0000E+00 0.9000E+01
#aMCatNLO 1  0  0  1  2 0.64328352D+02 0.00000000D+00  -5  6  0 0.00000000D+00 0.00000000D+00 0.00000000D+00 0.00000000D+00 0.00000000D+00
  <mgrwgt>
 0.6698036635D-02    9    2    0
 0.690240883015279D+03 0.000000000000000D+00 0.000000000000000D+00 0.690240883015279D+03
 0.690240883015279D+03 0.000000000000000D+00 0.000000000000000D+00 -.690240883015279D+03
 0.479818175663906D+03 -.365837309051434D+03 0.280293554489260D+03 -.468942247533724D+02
 0.369858751631688D+03 0.622527225864974D+02 0.179431304836292D+02 0.364140273462805D+03
 0.530804838734966D+03 0.303584586464937D+03 -.298236684972890D+03 -.317246048709433D+03
 0.000000000000000D+00 -.000000000000000D+00 0.000000000000000D+00 0.000000000000000D+00
 0.749761969635268D+03 0.000000000000000D+00 0.000000000000000D+00 0.749761969635268D+03
 0.708592351410252D+03 0.000000000000000D+00 0.000000000000000D+00 -.708592351410252D+03
 0.460250961998616D+03 -.344874687034325D+03 0.273986003197988D+03 -.468942247533724D+02
 0.372797033350788D+03 0.788132199857816D+02 0.129601571385146D+02 0.364140273462805D+03
 0.548931759646084D+03 0.327661656207043D+03 -.305481358478805D+03 -.317246048709433D+03
 0.763745660500333D+02 -.616001891584996D+02 0.185351981423025D+02 0.411696182250158D+02
0.605422316622D-03 0.000000000000D+00 0.000000000000D+00 0.794859767430D-05 0.000000000000D+00  6 1 -1 25 2 -2 21 0 0.20508986D+00 0.54983257D-01 0.23419639D+06 0.23419639D+06 0.23419639D+06 0.10925990D+01  1  2  2  1  6  1        1 0.216533184937D-02 0.100000000000D+01
0.158387206451D-03 0.000000000000D+00 -.232498110719D-05 0.794859767430D-05 0.000000000000D+00  6 1 -1 25 2 -2 21 2 0.20508986D+00 0.54983257D-01 0.23419639D+06 0.23419639D+06 0.23419639D+06 0.10925990D+01  1  2  3  1  6  1        1 0.676250761236D-03 0.100000000000D+01
-.374762878057D-03 0.000000000000D+00 0.000000000000D+00 0.794859767430D-05 0.000000000000D+00  6 1 -1 25 2 -2 21 2 0.20508986D+00 0.54983257D-01 0.23419639D+06 0.23419639D+06 0.23419639D+06 0.10925990D+01  1  2 15  1  6  1        1 -.160008934590D-02 0.100000000000D+01
0.112752970423D-07 0.000000000000D+00 0.000000000000D+00 0.794859767430D-05 0.000000000000D+00  6 1 -1 25 2 -2 21 2 0.22533900D+00 0.54983257D-01 0.27564083D+06 0.27564083D+06 0.27564083D+06 0.10872834D+01  1  2 12  1  6  1        1 0.384854903364D-07 0.100000000000D+01
-.791106867066D-04 0.000000000000D+00 0.000000000000D+00 0.794859767430D-05 0.000000000000D+00  6 1 -1 25 2 -2 21 2 0.20508986D+00 0.54983257D-01 0.23419639D+06 0.23419639D+06 0.23419639D+06 0.10925990D+01  1  2  4  1  6  1        1 -.337771359859D-03 0.100000000000D+01
-.700250578317D-02 0.000000000000D+00 -.130733225204D-02 0.794859767430D-05 0.000000000000D+00  6 1 -1 25 2 -2 21 2 0.22574988D+00 0.54983257D-01 0.23419639D+06 0.23419639D+06 0.23419639D+06 0.10925990D+01  1  2  5  1  6  1        1 -.242296377370D-01 0.100000000000D+01
0.710124771500D-02 0.000000000000D+00 0.130133367421D-02 0.794859767430D-05 0.000000000000D+00  6 1 -1 25 2 -2 21 2 0.20508986D+00 0.54983257D-01 0.23419639D+06 0.23419639D+06 0.23419639D+06 0.10925990D+01  1  2  6  1  6  1        1 0.303195206267D-01 0.100000000000D+01
0.173819329257D-09 0.000000000000D+00 0.000000000000D+00 0.794859767430D-05 0.000000000000D+00  6 21 -1 25 2 -2 -1 2 0.22533900D+00 0.54983257D-01 0.27564083D+06 0.27564083D+06 0.27564083D+06 0.10872834D+01  1  2 12  5  6  1        1 0.477061983028D-09 0.100000000000D+01
-.105771396451D-03 0.000000000000D+00 -.204924878512D-04 0.794859767430D-05 0.000000000000D+00  6 21 -1 25 2 -2 -1 2 0.22574988D+00 0.54983257D-01 0.23419639D+06 0.23419639D+06 0.23419639D+06 0.10925990D+01  1  2  5  5  6  1        1 -.295607121627D-03 0.100000000000D+01
  </mgrwgt>
  </event>
  <event>
  5     66 0.18148205E-05 0.74987383E+02 0.75467711E-02 0.94584944E-01
        1 -1    0    0  502    0 0.00000000E+00 0.00000000E+00 0.10568407E+04 0.10568407E+04 0.32000000E+00 0.0000E+00 0.9000E+01
       -1 -1    0    0    0  501 -.00000000E+00 -.00000000E+00 -.23868271E+04 0.23868271E+04 0.32000000E+00 0.0000E+00 0.9000E+01
       25  1    1    2    0    0 -.48535939E+03 0.70927059E+02 -.44313653E+03 0.67275506E+03 0.12500000E+03 0.0000E+00 0.9000E+01
        2  1    1    2  502    0 0.41113002E+03 -.81528313E+02 0.89458240E+03 0.98790310E+03 0.32000000E+00 0.0000E+00 0.9000E+01
       -2  1    1    2    0  501 0.74229367E+02 0.10601254E+02 -.17814323E+04 0.17830097E+04 0.32000000E+00 0.0000E+00 0.9000E+01
#aMCatNLO 1  0  0  4  1 0.29924246D+02 0.00000000D+00  -5  6  0 0.00000000D+00 0.00000000D+00 0.00000000D+00 0.00000000D+00 0.00000000D+00
  <mgrwgt>
 0.1117451105D-01    8    2    0
 0.158823678439792D+04 0.000000000000000D+00 0.000000000000000D+00 0.158823678439792D+04
 0.158823678439792D+04 -.000000000000000D+00 -.000000000000000D+00 -.158823678439792D+04
 0.543784975923631D+03 -.485359390539629D+03 0.709255135607279D+02 -.198677964508930D+03
 0.144554616541572D+04 0.411125245108575D+03 -.815273668147861D+02 0.138344968742732D+04
 0.118714242745650D+04 0.742341454310541D+02 0.106018532540582D+02 -.118477172291839D+04
 0.000000000000000D+00 0.000000000000000D+00 0.000000000000000D+00 0.000000000000000D+00
 0.158823678439792D+04 0.000000000000000D+00 0.000000000000000D+00 0.158823678439792D+04
 0.158823678439792D+04 -.000000000000000D+00 -.000000000000000D+00 -.158823678439792D+04
 0.543423730580703D+03 -.485191109171042D+03 0.708921428615844D+02 -.198111692285221D+03
 0.130167024252789D+04 0.345269408900562D+03 -.887748209229552D+02 0.125189995076691D+04
 0.118593128409398D+04 0.746014567757356D+02 0.105290143148556D+02 -.118353570841664D+04
 0.145448311593274D+03 0.653202434947445D+02 0.735366374651523D+01 0.129747449934959D+03
0.231229082040D-01 0.000000000000D+00 0.000000000000D+00 0.104583161774D-02 0.000000000000D+00  6 1 -1 25 2 -2 21 0 0.16259088D+00 0.36720418D+00 0.25015457D+06 0.25015457D+06 0.25015457D+06 0.10904389D+01  1  2  2  3  6  4        2 0.188671051292D-03 0.100000000000D+01
0.762325681717D-02 0.000000000000D+00 -.887980559050D-04 0.104583161774D-02 0.000000000000D+00  6 1 -1 25 2 -2 21 2 0.16259088D+00 0.36720418D+00 0.25015457D+06 0.25015457D+06 0.25015457D+06 0.10904389D+01  1  2  3  3  6  4        2 0.739615576033D-04 0.100000000000D+01
-.166563306618D-01 0.000000000000D+00 0.000000000000D+00 0.104583161774D-02 0.000000000000D+00  6 1 -1 25 2 -2 21 2 0.16259088D+00 0.36720418D+00 0.25015457D+06 0.25015457D+06 0.25015457D+06 0.10904389D+01  1  2 15  3  6  4        2 -.161601293154D-03 0.100000000000D+01
0.997302766553D-09 0.000000000000D+00 0.000000000000D+00 0.104583161774D-02 0.000000000000D+00  6 1 -1 25 2 -2 21 2 0.16259088D+00 0.36720418D+00 0.25180226D+06 0.25180226D+06 0.25180226D+06 0.10902245D+01  1  2 12  3  6  4        2 0.966527568650D-11 0.100000000000D+01
0.172538935669D+01 0.000000000000D+00 0.000000000000D+00 0.104583161774D-02 0.000000000000D+00  6 1 -1 25 2 -2 21 2 0.16259088D+00 0.36720418D+00 0.25180226D+06 0.25180226D+06 0.25180226D+06 0.10902245D+01  1  2 12  3  6  4        2 0.167214654950D-01 0.100000000000D+01
-.816379110221D+00 0.000000000000D+00 0.000000000000D+00 0.104583161774D-02 0.000000000000D+00  6 1 -1 25 2 -2 21 2 0.16259088D+00 0.36720418D+00 0.25015457D+06 0.25015457D+06 0.25015457D+06 0.10904389D+01  1  2  4  3  6  4        2 -.792058722864D-02 0.100000000000D+01
-.221707493495D+01 0.000000000000D+00 0.000000000000D+00 0.104583161774D-02 0.000000000000D+00  6 1 -1 25 2 -2 21 2 0.16259088D+00 0.36720418D+00 0.25015457D+06 0.25015457D+06 0.25015457D+06 0.10904389D+01  1  2  5  3  6  4        2 -.215102704060D-01 0.100000000000D+01
0.245131316822D+01 0.000000000000D+00 -.000000000000D+00 0.104583161774D-02 0.000000000000D+00  6 1 -1 25 2 -2 21 2 0.16259088D+00 0.36720418D+00 0.25015457D+06 0.25015457D+06 0.25015457D+06 0.10904389D+01  1  2  6  3  6  4        2 0.237828718674D-01 0.100000000000D+01
  </mgrwgt>
  </event>
  <event>
  5     66 0.18148205E-05 0.21484263E+03 0.75467711E-02 0.94812074E-01
        1 -1    0    0  502    0 0.00000000E+00 0.00000000E+00 0.99286183E+03 0.99286188E+03 0.32000000E+00 0.0000E+00 0.9000E+01
       -1 -1    0    0    0  501 0.00000000E+00 0.00000000E+00 -.51887187E+03 0.51887196E+03 0.32000000E+00 0.0000E+00 0.9000E+01
       25  1    1    2    0    0 -.39034908E+03 0.24615672E+03 0.38372410E+03 0.61305360E+03 0.12500000E+03 0.0000E+00 0.9000E+01
        2  1    1    2  502    0 0.28484607E+03 -.59060145E+02 0.41653115E+03 0.50805874E+03 0.32000000E+00 0.0000E+00 0.9000E+01
       -2  1    1    2    0  501 0.10550301E+03 -.18709658E+03 -.32626529E+03 0.39062150E+03 0.32000000E+00 0.0000E+00 0.9000E+01
#aMCatNLO 1  0  0  1  4 0.33404973D+03 0.00000000D+00  -5  6  0 0.00000000D+00 0.00000000D+00 0.00000000D+00 0.00000000D+00 0.00000000D+00
  <mgrwgt>
 0.7376069639D-03    1    2    0
 0.717752173988774D+03 0.000000000000000D+00 0.000000000000000D+00 0.717752173988774D+03
 0.717752173988774D+03 0.000000000000000D+00 0.000000000000000D+00 -.717752173988774D+03
 0.518936945301726D+03 -.390289287696437D+03 0.246177939682192D+03 0.201844611328432D+03
 0.397377571396251D+03 0.284755920811424D+03 -.590414525673179D+02 0.270808247087052D+03
 0.519189831279571D+03 0.105533366885013D+03 -.187136487114875D+03 -.472652858415484D+03
 0.000000000000000D+00 0.000000000000000D+00 -.000000000000000D+00 0.000000000000000D+00
 0.243597465368180D+04 0.000000000000000D+00 0.000000000000000D+00 0.243597465368180D+04
 0.216077947454888D+04 0.000000000000000D+00 0.000000000000000D+00 -.216077947454888D+04
 0.146779940322433D+04 -.831374111029338D+03 0.118612222325254D+04 0.201844611328432D+03
 0.445198601624376D+03 0.976915613673346D+02 0.339589527276020D+03 0.270808247087052D+03
 0.601285793787644D+03 -.143228776868111D+03 0.342971425514392D+03 -.472652858415484D+03
 0.208247032959434D+04 0.876911326530115D+03 -.186868317604295D+04 0.275195179132917D+03
0.202927570747D-03 0.000000000000D+00 0.000000000000D+00 0.899174956592D-06 0.000000000000D+00  6 1 -1 25 2 -2 21 2 0.15274799D+00 0.79826452D-01 0.24193045D+06 0.24193045D+06 0.24193045D+06 0.10915327D+01  1  2 14  1  6  1        1 0.737606963877D-03 0.100000000000D+01
  </mgrwgt>
  </event>
  <event>
  5     66 0.18148205E-05 0.10168499E+03 0.75467711E-02 0.86687141E-01
        3 -1    0    0  502    0 0.00000000E+00 0.00000000E+00 0.17826980E+04 0.17826981E+04 0.50000000E+00 0.0000E+00 0.9000E+01
       -3 -1    0    0    0  501 0.00000000E+00 0.00000000E+00 -.12429160E+04 0.12429161E+04 0.50000000E+00 0.0000E+00 0.9000E+01
       25  1    1    2    0    0 -.17735450E+03 0.10390680E+04 0.31041019E+03 0.11059369E+04 0.12500000E+03 0.0000E+00 0.9000E+01
        4  1    1    2  502    0 0.81867687E+02 -.60527025E+02 0.78417167E+03 0.79075499E+03 0.15500000E+01 0.0000E+00 0.9000E+01
       -4  1    1    2    0  501 0.95486812E+02 -.97854099E+03 -.55479986E+03 0.11289223E+04 0.15500000E+01 0.0000E+00 0.9000E+01
#aMCatNLO 1  0  0  4  5 0.56705243D+02 0.00000000D+00  -5  6  0 0.00000000D+00 0.00000000D+00 0.00000000D+00 0.00000000D+00 0.00000000D+00
  <mgrwgt>
 0.5622829500D-06    7    2    0
 0.148853757687411D+04 0.000000000000000D+00 0.000000000000000D+00 0.148853757687411D+04
 0.148853757687411D+04 -.000000000000000D+00 -.000000000000000D+00 -.148853757687411D+04
 0.106819495269257D+04 -.177341640896751D+03 0.103951816924620D+04 0.115617365343434D+03
 0.660635321042057D+03 0.817649451740493D+02 -.604510647567414D+02 0.652762736312975D+03
 0.124824488001360D+04 0.955766957227015D+02 -.979067104489458D+03 -.768380101656409D+03
 0.000000000000000D+00 0.000000000000000D+00 0.000000000000000D+00 0.000000000000000D+00
 0.148853757687411D+04 0.000000000000000D+00 0.000000000000000D+00 0.148853757687411D+04
 0.148853757687411D+04 -.000000000000000D+00 -.000000000000000D+00 -.148853757687411D+04
 0.106819497484410D+04 -.176640084069996D+03 0.103899948905783D+04 0.121218178172653D+03
 0.531369389476898D+03 0.137601472177558D+02 -.264889370894460D+02 0.530530322067899D+03
 0.124477179583417D+04 0.963953631605180D+02 -.979672367762030D+03 -.761844347297351D+03
 0.132738993593047D+03 0.664845736917227D+02 -.328381842063573D+02 0.110095847056800D+03
0.287055919795D-03 0.000000000000D+00 0.000000000000D+00 0.160016081915D-05 0.000000000000D+00  6 3 -3 25 4 -4 21 0 0.27426124D+00 0.19121786D+00 0.11527519D+07 0.11527519D+07 0.11527519D+07 0.10437790D+01  1  2  2  3  6  4        4 0.277539342995D-06 0.100000000000D+01
0.925077767905D-04 0.000000000000D+00 -.110237031557D-05 0.160016081915D-05 0.000000000000D+00  6 3 -3 25 4 -4 21 2 0.27426124D+00 0.19121786D+00 0.11527519D+07 0.11527519D+07 0.11527519D+07 0.10437790D+01  1  2  3  3  6  4        4 0.974436121631D-07 0.100000000000D+01
-.203655991155D-03 0.000000000000D+00 0.000000000000D+00 0.160016081915D-05 0.000000000000D+00  6 3 -3 25 4 -4 21 2 0.27426124D+00 0.19121786D+00 0.11527519D+07 0.11527519D+07 0.11527519D+07 0.10437790D+01  1  2 15  3  6  4        4 -.214522239160D-06 0.100000000000D+01
0.216293632051D-08 0.000000000000D+00 0.000000000000D+00 0.160016081915D-05 0.000000000000D+00  6 3 -3 25 4 -4 21 2 0.27426124D+00 0.19121786D+00 0.11553026D+07 0.11553026D+07 0.11553026D+07 0.10437158D+01  1  2 12  3  6  4        4 0.227755328311D-11 0.100000000000D+01
-.184107440571D-03 0.000000000000D+00 0.000000000000D+00 0.160016081915D-05 0.000000000000D+00  6 3 -3 25 4 -4 21 2 0.27426124D+00 0.19121786D+00 0.11527519D+07 0.11527519D+07 0.11527519D+07 0.10437790D+01  1  2  4  3  6  4        4 -.193930658133D-06 0.100000000000D+01
-.226366388138D-02 0.000000000000D+00 0.000000000000D+00 0.160016081915D-05 0.000000000000D+00  6 3 -3 25 4 -4 21 2 0.27426124D+00 0.19121786D+00 0.11527519D+07 0.11527519D+07 0.11527519D+07 0.10437790D+01  1  2  5  3  6  4        4 -.238444369736D-05 0.100000000000D+01
0.282923779281D-02 0.000000000000D+00 -.000000000000D+00 0.160016081915D-05 0.000000000000D+00  6 3 -3 25 4 -4 21 2 0.27426124D+00 0.19121786D+00 0.11527519D+07 0.11527519D+07 0.11527519D+07 0.10437790D+01  1  2  6  3  6  4        4 0.298019431192D-05 0.100000000000D+01
  </mgrwgt>
  </event>
  <event>
  5     66 0.18148205E-05 0.37646835E+02 0.75467711E-02 0.93423279E-01
        1 -1    0    0  502    0 0.00000000E+00 0.00000000E+00 0.82697051E+03 0.82697057E+03 0.32000000E+00 0.0000E+00 0.9000E+01
       -1 -1    0    0    0  501 0.00000000E+00 0.00000000E+00 -.55838896E+03 0.55838905E+03 0.32000000E+00 0.0000E+00 0.9000E+01
       25  1    1    2    0    0 0.36404742E+03 -.30767852E+03 0.37394321E+02 0.49418613E+03 0.12500000E+03 0.0000E+00 0.9000E+01
        2  1    1    2  502    0 0.22595728E+02 0.30134277E+02 0.38818087E+03 0.39000402E+03 0.32000000E+00 0.0000E+00 0.9000E+01
       -2  1    1    2    0  501 -.38664315E+03 0.27754424E+03 -.15699364E+03 0.50116947E+03 0.32000000E+00 0.0000E+00 0.9000E+01
#aMCatNLO 1  0  0  4  1 0.20382224D+03 0.00000000D+00  -5  6  0 0.00000000D+00 0.00000000D+00 0.00000000D+00 0.00000000D+00 0.00000000D+00
  <mgrwgt>
 0.4937310144D-02    6    2    0
 0.679537567244612D+03 0.000000000000000D+00 0.000000000000000D+00 0.679537567244612D+03
 0.679537567244612D+03 -.000000000000000D+00 -.000000000000000D+00 -.679537567244612D+03
 0.496442779415387D+03 0.364137623696933D+03 -.307733711835598D+03 -.594490272578982D+02
 0.320680367332593D+03 0.225849151959485D+02 0.301198566435729D+02 0.318462892397104D+03
 0.541951987741244D+03 -.386722538892881D+03 0.277613855192025D+03 -.259013865139205D+03
 0.000000000000000D+00 0.000000000000000D+00 0.000000000000000D+00 0.000000000000000D+00
 0.679537567244612D+03 0.000000000000000D+00 0.000000000000000D+00 0.679537567244612D+03
 0.679537567244612D+03 -.000000000000000D+00 -.000000000000000D+00 -.679537567244612D+03
 0.495096815609356D+03 0.364971204126872D+03 -.306622026321935D+03 -.476949678575925D+02
 0.174464663357938D+03 0.573251390920895D+02 -.383977744787749D+02 0.160241561724006D+03
 0.535936967836808D+03 -.385816365157081D+03 0.278822353111086D+03 -.246236190022276D+03
 0.153576687685122D+03 -.364799780618804D+02 0.661974476896232D+02 0.133689596155863D+03
0.113893375649D-02 0.000000000000D+00 0.000000000000D+00 0.862986426645D-05 0.000000000000D+00  6 1 -1 25 2 -2 21 0 0.12722624D+00 0.85906005D-01 0.25329450D+06 0.25329450D+06 0.25329450D+06 0.10900316D+01  1  2  2  3  6  4        2 0.404932454167D-02 0.100000000000D+01
0.462771652535D-03 0.000000000000D+00 -.437380551308D-05 0.862986426645D-05 0.000000000000D+00  6 1 -1 25 2 -2 21 2 0.12722624D+00 0.85906005D-01 0.25329450D+06 0.25329450D+06 0.25329450D+06 0.10900316D+01  1  2  3  3  6  4        2 0.195492035223D-02 0.100000000000D+01
-.704920818550D-03 0.000000000000D+00 0.000000000000D+00 0.862986426645D-05 0.000000000000D+00  6 1 -1 25 2 -2 21 2 0.12722624D+00 0.85906005D-01 0.25329450D+06 0.25329450D+06 0.25329450D+06 0.10900316D+01  1  2 15  3  6  4        2 -.297784889663D-02 0.100000000000D+01
-.255375390646D-03 0.000000000000D+00 0.000000000000D+00 0.862986426645D-05 0.000000000000D+00  6 1 -1 25 2 -2 21 2 0.12722624D+00 0.85906005D-01 0.25329450D+06 0.25329450D+06 0.25329450D+06 0.10900316D+01  1  2  4  3  6  4        2 -.107880105857D-02 0.100000000000D+01
-.114806278277D-02 0.000000000000D+00 0.000000000000D+00 0.862986426645D-05 0.000000000000D+00  6 1 -1 25 2 -2 21 2 0.12722624D+00 0.85906005D-01 0.25329450D+06 0.25329450D+06 0.25329450D+06 0.10900316D+01  1  2  5  3  6  4        2 -.484984611174D-02 0.100000000000D+01
0.185579261166D-02 0.000000000000D+00 -.000000000000D+00 0.862986426645D-05 0.000000000000D+00  6 1 -1 25 2 -2 21 2 0.12722624D+00 0.85906005D-01 0.25329450D+06 0.25329450D+06 0.25329450D+06 0.10900316D+01  1  2  6  3  6  4        2 0.783956131748D-02 0.100000000000D+01
  </mgrwgt>
  </event>
  <event>
  5     66 -.18148205E-05 0.13436937E+03 0.75467711E-02 0.94639930E-01
        1 -1    0    0  502    0 0.00000000E+00 0.00000000E+00 0.80975205E+03 0.80975211E+03 0.32000000E+00 0.0000E+00 0.9000E+01
       -1 -1    0    0    0  501 0.00000000E+00 0.00000000E+00 -.74224896E+03 0.74224903E+03 0.32000000E+00 0.0000E+00 0.9000E+01
       25  1    1    2    0    0 -.27114875E+03 -.40538753E+03 0.47755062E+01 0.50349628E+03 0.12500000E+03 0.0000E+00 0.9000E+01
        2  1    1    2  502    0 0.20979497E+03 0.24267639E+03 0.49087012E+03 0.58639521E+03 0.32000000E+00 0.0000E+00 0.9000E+01
       -2  1    1    2    0  501 0.61353779E+02 0.16271114E+03 -.42814254E+03 0.46210966E+03 0.32000000E+00 0.0000E+00 0.9000E+01
#aMCatNLO 1  0  0  4  1 0.40276501D+02 0.00000000D+00  -5  6  0 0.00000000D+00 0.00000000D+00 0.00000000D+00 0.00000000D+00 0.00000000D+00
  <mgrwgt>
 -.4543174219D-02    8    2    0
 0.775266223778133D+03 0.000000000000000D+00 0.000000000000000D+00 0.775266223778133D+03
 0.775266223778133D+03 -.000000000000000D+00 -.000000000000000D+00 -.775266223778133D+03
 0.503757712735870D+03 -.271138052725050D+03 -.405390335694364D+03 -.170195543700247D+02
 0.565514301923057D+03 0.209770482877738D+03 0.242648063428265D+03 0.465751744502665D+03
 0.481260432897339D+03 0.613675698473114D+02 0.162742272266099D+03 -.448732190132640D+03
 0.000000000000000D+00 0.000000000000000D+00 0.000000000000000D+00 0.000000000000000D+00
 0.775266223778133D+03 0.000000000000000D+00 0.000000000000000D+00 0.775266223778133D+03
 0.775266223778133D+03 -.000000000000000D+00 -.000000000000000D+00 -.775266223778133D+03
 0.502676478890610D+03 -.270436269393621D+03 -.404578561015766D+03 -.154613903881724D+02
 0.315371814383582D+03 0.150030612741101D+03 0.142809828816192D+03 0.237814106691785D+03
 0.480222487635592D+03 0.620380088016886D+02 0.163517789925661D+03 -.447243619823319D+03
 0.252261666646481D+03 0.583676478508308D+02 0.982509422739127D+02 0.224890903519706D+03
0.133806269796D-03 0.000000000000D+00 0.000000000000D+00 0.343938461452D-05 0.000000000000D+00  6 1 -1 25 2 -2 21 0 0.12457725D+00 0.11419216D+00 0.24907595D+06 0.24907595D+06 0.24907595D+06 0.10905801D+01  1  2  2  3  6  4        2 0.260877682179D-03 0.100000000000D+01
0.132040476954D-04 0.000000000000D+00 -.513851308018D-06 0.343938461452D-05 0.000000000000D+00  6 1 -1 25 2 -2 21 2 0.12457725D+00 0.11419216D+00 0.24907595D+06 0.24907595D+06 0.24907595D+06 0.10905801D+01  1  2  3  3  6  4        2 0.306184143968D-04 0.100000000000D+01
-.988246306415D-04 0.000000000000D+00 0.000000000000D+00 0.343938461452D-05 0.000000000000D+00  6 1 -1 25 2 -2 21 2 0.12457725D+00 0.11419216D+00 0.24907595D+06 0.24907595D+06 0.24907595D+06 0.10905801D+01  1  2 15  3  6  4        2 -.229161054504D-03 0.100000000000D+01
0.682493131121D-08 0.000000000000D+00 0.000000000000D+00 0.343938461452D-05 0.000000000000D+00  6 1 -1 25 2 -2 21 2 0.12457725D+00 0.11419216D+00 0.24937155D+06 0.24937155D+06 0.24937155D+06 0.10905414D+01  1  2 12  3  6  4        2 0.158239976532D-07 0.100000000000D+01
0.130340995481D-02 0.000000000000D+00 0.000000000000D+00 0.343938461452D-05 0.000000000000D+00  6 1 -1 25 2 -2 21 2 0.12457725D+00 0.11419216D+00 0.24937155D+06 0.24937155D+06 0.24937155D+06 0.10905414D+01  1  2 12  3  6  4        2 0.302203130340D-02 0.100000000000D+01
-.400297319423D-02 0.000000000000D+00 0.000000000000D+00 0.343938461452D-05 0.000000000000D+00  6 1 -1 25 2 -2 21 2 0.12457725D+00 0.11419216D+00 0.24907595D+06 0.24907595D+06 0.24907595D+06 0.10905801D+01  1  2  4  3  6  4        2 -.928235757002D-02 0.100000000000D+01
-.134540355059D-02 0.000000000000D+00 0.000000000000D+00 0.343938461452D-05 0.000000000000D+00  6 1 -1 25 2 -2 21 2 0.12457725D+00 0.11419216D+00 0.24907595D+06 0.24907595D+06 0.24907595D+06 0.10905801D+01  1  2  5  3  6  4        2 -.311981025767D-02 0.100000000000D+01
0.205902880394D-02 0.000000000000D+00 -.000000000000D+00 0.343938461452D-05 0.000000000000D+00  6 1 -1 25 2 -2 21 2 0.12457725D+00 0.11419216D+00 0.24907595D+06 0.24907595D+06 0.24907595D+06 0.10905801D+01  1  2  6  3  6  4        2 0.477461143948D-02 0.100000000000D+01
  </mgrwgt>
  </event>
  <event>
  5     66 0.18148205E-05 0.38160835E+02 0.75467711E-02 0.91387800E-01
        1 -1    0    0  502    0 0.00000000E+00 0.00000000E+00 0.85761180E+03 0.85761186E+03 0.32000000E+00 0.0000E+00 0.9000E+01
       -1 -1    0    0    0  501 -.00000000E+00 -.00000000E+00 -.14757896E+04 0.14757896E+04 0.32000000E+00 0.0000E+00 0.9000E+01
       25  1    1    2    0    0 -.35165454E+03 0.43095126E+03 -.33681984E+03 0.66215747E+03 0.12500000E+03 0.0000E+00 0.9000E+01
        2  1    1    2  502    0 0.31549160E+03 -.41877656E+03 0.59557285E+03 0.79348339E+03 0.32000000E+00 0.0000E+00 0.9000E+01
       -2  1    1    2    0  501 0.36162941E+02 -.12174698E+02 -.87693082E+03 0.87776065E+03 0.32000000E+00 0.0000E+00 0.9000E+01
#aMCatNLO 1  0  0  5  2 0.14801871D+03 0.00000000D+00  -5  6  0 0.00000000D+00 0.00000000D+00 0.00000000D+00 0.00000000D+00 0.00000000D+00
  <mgrwgt>
 0.1169395810D-02    3    2    0
 0.112501319454967D+04 0.000000000000000D+00 0.000000000000000D+00 0.112501319454967D+04
 0.112501319454967D+04 -.000000000000000D+00 -.000000000000000D+00 -.112501319454967D+04
 0.594126708674586D+03 -.351650517678549D+03 0.430942804881502D+03 -.167307376698603D+03
 0.986492311396459D+03 0.315484292798931D+03 -.418766864565179D+03 0.835626145225085D+03
 0.669407369028295D+03 0.361662248796184D+02 -.121759403163237D+02 -.668318768526483D+03
 0.000000000000000D+00 0.000000000000000D+00 0.000000000000000D+00 0.000000000000000D+00
 0.112501319454967D+04 0.000000000000000D+00 0.000000000000000D+00 0.112501319454967D+04
 0.112501319454967D+04 -.000000000000000D+00 -.000000000000000D+00 -.112501319454967D+04
 0.622597162523526D+03 -.346635855300607D+03 0.429254538272987D+03 -.259973752472067D+03
 0.873797081401001D+03 0.323151376063238D+03 -.421348111254244D+03 0.693945456614440D+03
 0.184324433650183D+03 0.124680591369692D+03 -.545260703581972D+02 0.124326805747826D+03
 0.569307711524631D+03 -.101196112132323D+03 0.466196433394542D+02 -.558298509890199D+03
0.778329628115D-02 0.000000000000D+00 0.000000000000D+00 0.162873503620D-03 0.000000000000D+00  6 1 -1 25 2 -2 21 0 0.13194028D+00 0.22704456D+00 0.32066695D+06 0.32066695D+06 0.32066695D+06 0.10824177D+01  1  2  2  4  6  5       -2 0.157345877043D-02 0.100000000000D+01
0.408896095195D-02 0.000000000000D+00 -.298899071086D-04 0.162873503620D-03 0.000000000000D+00  6 1 -1 25 2 -2 21 2 0.13194028D+00 0.22704456D+00 0.32066695D+06 0.32066695D+06 0.32066695D+06 0.10824177D+01  1  2  3  4  6  5       -2 0.968488744348D-03 0.100000000000D+01
-.579491538621D-02 0.000000000000D+00 0.000000000000D+00 0.162873503620D-03 0.000000000000D+00  6 1 -1 25 2 -2 21 2 0.13194028D+00 0.22704456D+00 0.32066695D+06 0.32066695D+06 0.32066695D+06 0.10824177D+01  1  2 15  4  6  5       -2 -.137255170493D-02 0.100000000000D+01
  </mgrwgt>
  </event>
  <event>
  6     66 0.18148205E-05 0.47205375E+02 0.75467711E-02 0.95522541E-01
        1 -1    0    0  502    0 0.00000000E+00 0.00000000E+00 0.20378868E+04 0.20378868E+04 0.32000000E+00 0.0000E+00 0.9000E+01
       21 -1    0    0  503  501 0.00000000E+00 0.00000000E+00 -.38170444E+03 0.38170518E+03 0.75000000E+00 0.0000E+00 0.9000E+01
       25  1    1    2    0    0 0.40831732E+03 -.19532525E+03 0.10231716E+04 0.11257798E+04 0.12500000E+03 0.0000E+00 0.9000E+01
        2  1    1    2  502    0 -.65496630E+02 0.21460662E+02 0.83230777E+03 0.83515669E+03 0.32000000E+00 0.0000E+00 0.9000E+01
        1  1    1    2  503    0 -.42452073E+02 0.88266147E+01 -.88358363E+02 0.98424541E+02 0.32000000E+00 0.0000E+00 0.9000E+01
       -2  1    1    2    0  501 -.30036862E+03 0.16503797E+03 -.11093870E+03 0.36023095E+03 0.32000000E+00 0.0000E+00 0.9000E+01
#aMCatNLO 2  0  0  2  1 0.14687662D+02 0.00000000D+00  -5  6  0 0.00000000D+00 0.00000000D+00 0.00000000D+00 0.00000000D+00 0.00000000D+00
  <mgrwgt>
 0.5572176304D-02    1    2    0
 0.765263996778268D+03 0.000000000000000D+00 0.000000000000000D+00 0.765263996778268D+03
 0.765263996778268D+03 0.000000000000000D+00 0.000000000000000D+00 -.765263996778268D+03
 0.528764220145968D+03 0.393517519498418D+03 -.192265031225766D+03 0.268597691952372D+03
 0.319658733696913D+03 -.742968439136247D+02 0.232861245942761D+02 0.310031355534514D+03
 0.000000000000000D+00 -.000000000000000D+00 0.000000000000000D+00 -.000000000000000D+00
 0.682105039713655D+03 -.319220675584793D+03 0.168978906631490D+03 -.578629047486886D+03
 0.767466387823251D+03 0.000000000000000D+00 0.000000000000000D+00 0.767466387823251D+03
 0.101355728048929D+04 0.000000000000000D+00 0.000000000000000D+00 -.101355728048929D+04
 0.541000117565554D+03 0.408350507093877D+03 -.195349098897272D+03 0.268597691952372D+03
 0.317591931222306D+03 -.654609434496350D+02 0.214489684047853D+02 0.310031355534514D+03
 0.249881602170326D+03 -.424520732426460D+02 0.882661472164534D+01 -.246090892666035D+03
 0.672550017354350D+03 -.300437490401596D+03 0.165073515770841D+03 -.578629047486886D+03
0.502646070854D-03 0.000000000000D+00 0.000000000000D+00 0.191113562739D-04 0.344688824365D-08  6 1 21 25 2 1 -2 2 0.31352106D+00 0.58723811D-01 0.21374836D+06 0.21374836D+06 0.21374836D+06 0.10956147D+01  1  2  1  6  5  2       -1 0.557217630398D-02 0.100000000000D+01
  </mgrwgt>
  </event>
  <event>
  5     66 -.18148205E-05 0.33520829E+02 0.75467711E-02 0.91634007E-01
        1 -1    0    0  502    0 0.00000000E+00 0.00000000E+00 0.73295896E+03 0.73295903E+03 0.32000000E+00 0.0000E+00 0.9000E+01
       -1 -1    0    0    0  501 -.00000000E+00 -.00000000E+00 -.17577657E+04 0.17577657E+04 0.32000000E+00 0.0000E+00 0.9000E+01
       25  1    1    2    0    0 0.56335696E+03 -.25549996E+03 -.55354724E+03 0.83945865E+03 0.12500000E+03 0.0000E+00 0.9000E+01
        2  1    1    2  502    0 0.33518936E+02 0.63424030E+00 0.49015157E+03 0.49129684E+03 0.32000000E+00 0.0000E+00 0.9000E+01
       -2  1    1    2    0  501 -.59687589E+03 0.25486572E+03 -.96141106E+03 0.11599693E+04 0.32000000E+00 0.0000E+00 0.9000E+01
#aMCatNLO 1  0  0  5  2 0.19143215D+02 0.00000000D+00  -5  6  0 0.00000000D+00 0.00000000D+00 0.00000000D+00 0.00000000D+00 0.00000000D+00
  <mgrwgt>
 -.1100209084D-02    8    2    0
 0.113506398250655D+04 0.000000000000000D+00 0.000000000000000D+00 0.113506398250655D+04
 0.113506398250655D+04 -.000000000000000D+00 -.000000000000000D+00 -.113506398250655D+04
 0.671202843068167D+03 0.563433270015288D+03 -.255532224619882D+03 -.228329781157616D+03
 0.760214533792739D+03 0.335148301345504D+02 0.634162620696821D+00 0.759475142047805D+03
 0.838710588152201D+03 -.596948100149838D+03 0.254898061999185D+03 -.531145360890189D+03
 0.000000000000000D+00 0.000000000000000D+00 0.000000000000000D+00 -.000000000000000D+00
 0.113506398250655D+04 0.000000000000000D+00 0.000000000000000D+00 0.113506398250655D+04
 0.113506398250655D+04 -.000000000000000D+00 -.000000000000000D+00 -.113506398250655D+04
 0.671055258947870D+03 0.563222160004023D+03 -.255442080212476D+03 -.228517620105579D+03
 0.759991585104636D+03 0.332757325046665D+02 0.736257798603767D+00 0.759262400610349D+03
 0.569852307647582D+03 -.418772556253660D+03 0.165965804444283D+03 -.349022277820788D+03
 0.269228813313019D+03 -.177725336255030D+03 0.887400179695897D+02 -.181722502683981D+03
0.265922213506D-03 0.000000000000D+00 0.000000000000D+00 0.408789439423D-04 0.000000000000D+00  6 1 -1 25 2 -2 21 0 0.11276293D+00 0.27042550D+00 0.43150781D+06 0.43150781D+06 0.43150781D+06 0.10730618D+01  1  2  2  4  6  5       -2 0.293652332328D-04 0.100000000000D+01
0.177824521711D-03 0.000000000000D+00 -.102121131879D-05 0.408789439423D-04 0.000000000000D+00  6 1 -1 25 2 -2 21 2 0.11276293D+00 0.27042550D+00 0.43150781D+06 0.43150781D+06 0.43150781D+06 0.10730618D+01  1  2  3  4  6  5       -2 0.226110115363D-04 0.100000000000D+01
-.186202656077D-03 0.000000000000D+00 0.000000000000D+00 0.408789439423D-04 0.000000000000D+00  6 1 -1 25 2 -2 21 2 0.11276293D+00 0.27042550D+00 0.43150781D+06 0.43150781D+06 0.43150781D+06 0.10730618D+01  1  2 15  4  6  5       -2 -.236763207015D-04 0.100000000000D+01
0.229033022227D-08 0.000000000000D+00 0.000000000000D+00 0.408789439423D-04 0.000000000000D+00  6 1 -1 25 2 -2 21 2 0.11276293D+00 0.27042550D+00 0.43121588D+06 0.43121588D+06 0.43121588D+06 0.10730829D+01  1  2 12  4  6  5       -2 0.291251491183D-09 0.100000000000D+01
0.331933041759D-01 0.000000000000D+00 0.000000000000D+00 0.408789439423D-04 0.000000000000D+00  6 1 -1 25 2 -2 21 2 0.11276293D+00 0.27042550D+00 0.43121588D+06 0.43121588D+06 0.43121588D+06 0.10730829D+01  1  2 12  4  6  5       -2 0.422105041644D-02 0.100000000000D+01
-.543325511679D-01 0.000000000000D+00 0.000000000000D+00 0.408789439423D-04 0.000000000000D+00  6 1 -1 25 2 -2 21 2 0.11276293D+00 0.27042550D+00 0.43150781D+06 0.43150781D+06 0.43150781D+06 0.10730618D+01  1  2  4  4  6  5       -2 -.690857441611D-02 0.100000000000D+01
-.332371436891D-01 0.000000000000D+00 0.000000000000D+00 0.408789439423D-04 0.000000000000D+00  6 1 -1 25 2 -2 21 2 0.11276293D+00 0.27042550D+00 0.43150781D+06 0.43150781D+06 0.43150781D+06 0.10730618D+01  1  2  5  4  6  5       -2 -.422621937714D-02 0.100000000000D+01
0.454980300698D-01 0.000000000000D+00 -.000000000000D+00 0.408789439423D-04 0.000000000000D+00  6 1 -1 25 2 -2 21 2 0.11276293D+00 0.27042550D+00 0.43150781D+06 0.43150781D+06 0.43150781D+06 0.10730618D+01  1  2  6  4  6  5       -2 0.578523407732D-02 0.100000000000D+01
  </mgrwgt>
  </event>
  <event>
  6     66 0.18148205E-05 0.84151270E+02 0.75467711E-02 0.93462035E-01
        1 -1    0    0  502    0 0.00000000E+00 0.00000000E+00 0.23982070E+04 0.23982070E+04 0.32000000E+00 0.0000E+00 0.9000E+01
       -1 -1    0    0    0  503 0.00000000E+00 0.00000000E+00 -.13691372E+04 0.13691373E+04 0.32000000E+00 0.0000E+00 0.9000E+01
       25  1    1    2    0    0 0.33716044E+03 0.31052669E+03 0.69193656E+03 0.83934807E+03 0.12500000E+03 0.0000E+00 0.9000E+01
        2  1    1    2  502    0 -.12705705E+03 -.57668990E+02 0.15820596E+04 0.15882008E+04 0.32000000E+00 0.0000E+00 0.9000E+01
       -2  1    1    2    0  501 -.31553254E+03 -.21898909E+03 -.94424849E+03 0.10193735E+04 0.32000000E+00 0.0000E+00 0.9000E+01
       21  1    1    2  501  503 0.10542915E+03 -.33868603E+02 -.30067795E+03 0.32042188E+03 0.75000000E+00 0.0000E+00 0.9000E+01
#aMCatNLO 2  0  0  2  1 0.11073567D+03 0.00000000D+00  -5  6  0 0.00000000D+00 0.00000000D+00 0.00000000D+00 0.00000000D+00 0.00000000D+00
  <mgrwgt>
 0.6747505072D-03    2    2    0
 0.158908643853665D+04 0.000000000000000D+00 0.000000000000000D+00 0.158908643853665D+04
 0.158908643853665D+04 0.000000000000000D+00 0.000000000000000D+00 -.158908643853665D+04
 0.628777137762312D+03 0.357889808091895D+03 0.303888957158400D+03 0.399126641498275D+03
 0.105686815806798D+04 -.919474606622077D+02 -.689386050920615D+02 0.105060146427831D+04
 0.149252758124300D+04 -.265942347429688D+03 -.234950352066339D+03 -.144972810577659D+04
 0.000000000000000D+00 0.000000000000000D+00 -.000000000000000D+00 -.000000000000000D+00
 0.159662275716059D+04 0.000000000000000D+00 0.000000000000000D+00 0.159662275716059D+04
 0.205651171019720D+04 0.000000000000000D+00 0.000000000000000D+00 -.205651171019720D+04
 0.620524886412228D+03 0.337174620029192D+03 0.310543610965329D+03 0.399126641498275D+03
 0.105982499350177D+04 -.127045215934616D+03 -.576636212477815D+02 0.105060146427831D+04
 0.149975156880734D+04 -.315558552422515D+03 -.219011386586447D+03 -.144972810577659D+04
 0.473033018636449D+03 0.105429148327939D+03 -.338686031311007D+02 -.459888953036605D+03
-.162886135051D-09 0.000000000000D+00 0.000000000000D+00 0.556650905390D-03 0.000000000000D+00  6 1 -1 25 2 -2 21 2 0.36721333D+00 0.21094340D+00 0.30774692D+06 0.30774692D+06 0.30774692D+06 0.10837336D+01  1  2 13  2  6  2       -1 -.455222778235D-11 0.100000000000D+01
0.244382669075D-01 0.000000000000D+00 0.000000000000D+00 0.556650905390D-03 0.487366774935D-07  6 1 -1 25 2 -2 21 2 0.36895486D+00 0.21063647D+00 0.30774692D+06 0.30774692D+06 0.30774692D+06 0.10837336D+01  1  2  1  2  6  2       -1 0.674750511789D-03 0.100000000000D+01
  </mgrwgt>
  </event>
  <event>
  6     66 0.18148205E-05 0.49595418E+02 0.75467711E-02 0.92854928E-01
        1 -1    0    0  502    0 0.00000000E+00 0.00000000E+00 0.15595079E+04 0.15595079E+04 0.32000000E+00 0.0000E+00 0.9000E+01
       -1 -1    0    0    0  501 0.00000000E+00 0.00000000E+00 -.28670420E+03 0.28670438E+03 0.32000000E+00 0.0000E+00 0.9000E+01
       25  1    1    2    0    0 0.55562049E+03 -.22635577E+02 0.72618729E+03 0.92314651E+03 0.12500000E+03 0.0000E+00 0.9000E+01
        2  1    1    2  502    0 -.54421191E+03 -.31997488E+02 0.62240841E+03 0.82739518E+03 0.32000000E+00 0.0000E+00 0.9000E+01
       -2  1    1    2    0  503 -.14263584E+01 0.37739406E+02 -.41182560E+02 0.55878466E+02 0.32000000E+00 0.0000E+00 0.9000E+01
       21  1    1    2  503  501 -.99822139E+01 0.16893658E+02 -.34609438E+02 0.39792160E+02 0.75000000E+00 0.0000E+00 0.9000E+01
#aMCatNLO 2  0  0  5  2 0.84612030D+01 0.00000000D+00  -5  6  0 0.00000000D+00 0.00000000D+00 0.00000000D+00 0.00000000D+00 0.00000000D+00
  <mgrwgt>
 0.2621801461D-02    3    2    0
 0.668668570978857D+03 0.000000000000000D+00 0.000000000000000D+00 0.668668570978857D+03
 0.668668570978857D+03 -.000000000000000D+00 -.000000000000000D+00 -.668668570978857D+03
 0.583372052636956D+03 0.555666150235265D+03 -.227107262597728D+02 0.124166437467335D+03
 0.549910562006179D+03 -.544223957858102D+03 -.320783578652949D+02 0.720617017276247D+02
 0.204054527314579D+03 -.114421923771631D+02 0.547890841250677D+02 -.196228139194959D+03
 0.000000000000000D+00 0.000000000000000D+00 0.000000000000000D+00 -.000000000000000D+00
 0.668668570978857D+03 0.000000000000000D+00 0.000000000000000D+00 0.668668570978857D+03
 0.668668570978857D+03 -.000000000000000D+00 -.000000000000000D+00 -.668668570978857D+03
 0.583288282706652D+03 0.555648642134231D+03 -.226268915549533D+02 0.123866181889251D+03
 0.549885272847642D+03 -.544240462521893D+03 -.319993279571173D+02 0.717786546194262D+02
 0.115831991854938D+03 -.139874907258772D+01 0.376068671074190D+02 -.109548242270150D+03
 0.883315945484817D+02 -.100094305397500D+02 0.170193524046516D+02 -.860965942385270D+02
-.214918660576D-06 0.000000000000D+00 0.000000000000D+00 0.464137075182D-06 0.000000000000D+00  6 1 -1 25 2 -2 21 2 0.23992431D+00 0.44108355D-01 0.34371388D+06 0.34371388D+06 0.34371388D+06 0.10802081D+01  1  2 13  4  6  5       -2 -.923344680323D-06 0.100000000000D+01
-.123450164633D-02 0.000000000000D+00 0.000000000000D+00 0.464137075182D-06 0.000000000000D+00  6 1 -1 25 2 -2 21 2 0.23992431D+00 0.44108355D-01 0.34371388D+06 0.34371388D+06 0.34371388D+06 0.10802081D+01  1  2 13  4  6  5       -2 -.530372990850D-02 0.100000000000D+01
0.184496977843D-02 0.000000000000D+00 0.000000000000D+00 0.464137075182D-06 0.225862414956D-07  6 1 -1 25 2 -2 21 2 0.23992431D+00 0.44108355D-01 0.34371388D+06 0.34371388D+06 0.34371388D+06 0.10802081D+01  1  2  1  4  6  5       -2 0.792645471409D-02 0.100000000000D+01
  </mgrwgt>
  </event>
  <event>
  6     66 0.18148205E-05 0.71571239E+02 0.75467711E-02 0.91626705E-01
        1 -1    0    0  502    0 0.00000000E+00 0.00000000E+00 0.81151835E+03 0.81151842E+03 0.32000000E+00 0.0000E+00 0.9000E+01
       21 -1    0    0  503  501 0.00000000E+00 0.00000000E+00 -.60091070E+03 0.60091117E+03 0.75000000E+00 0.0000E+00 0.9000E+01
       25  1    1    2    0    0 0.62948942E+03 0.78276586E+02 0.46664578E+02 0.64821813E+03 0.12500000E+03 0.0000E+00 0.9000E+01
        2  1    1    2  502    0 -.50824694E+03 -.12057369E+03 0.26129375E+03 0.58406121E+03 0.32000000E+00 0.0000E+00 0.9000E+01
        1  1    1    2  503    0 -.51789581E+02 -.16512876E+02 -.12619807E+02 0.55804997E+02 0.32000000E+00 0.0000E+00 0.9000E+01
       -2  1    1    2    0  501 -.69452899E+02 0.58809981E+02 -.84730864E+02 0.12434525E+03 0.32000000E+00 0.0000E+00 0.9000E+01
#aMCatNLO 2  0  0  2  1 0.54358401D+02 0.00000000D+00  -5  6  0 0.00000000D+00 0.00000000D+00 0.00000000D+00 0.00000000D+00 0.00000000D+00
  <mgrwgt>
 0.1836396551D-01    2    2    0
 0.668514198531303D+03 0.000000000000000D+00 0.000000000000000D+00 0.668514198531303D+03
 0.668514198531303D+03 0.000000000000000D+00 0.000000000000000D+00 -.668514198531303D+03
 0.624568723621389D+03 0.604821032965582D+03 0.704034173846309D+02 -.607944687373951D+02
 0.570153525549066D+03 -.529887121675310D+03 -.127474936022258D+03 0.167465882091863D+03
 0.000000000000000D+00 -.000000000000000D+00 -.000000000000000D+00 -.000000000000000D+00
 0.142306147892153D+03 -.749339112902726D+02 0.570715186376272D+02 -.106671413354468D+03
 0.687354943244806D+03 0.000000000000000D+00 0.000000000000000D+00 0.687354943244806D+03
 0.709458524182375D+03 0.000000000000000D+00 0.000000000000000D+00 -.709458524182375D+03
 0.649381850310663D+03 0.629483981531647D+03 0.782670880952150D+02 -.607944687373951D+02
 0.548525077153321D+03 -.508230148944218D+03 -.120569707246014D+03 0.167465882091863D+03
 0.586805254771614D+02 -.517895810560003D+02 -.165128760080157D+02 -.221035809375689D+02
 0.140226014486036D+03 -.694642515314287D+02 0.588154951588151D+02 -.106671413354468D+03
-.647451467952D-08 0.000000000000D+00 0.000000000000D+00 0.455712548271D-07 0.000000000000D+00  6 1 21 25 2 1 -2 2 0.12142677D+00 0.93619162D-01 0.43180916D+06 0.43180916D+06 0.43180916D+06 0.10730401D+01  1  2 13  6  5  2       -1 -.163565583559D-06 0.100000000000D+01
0.736126757718D-03 0.000000000000D+00 0.000000000000D+00 0.455712548271D-07 0.990578594156D-09  6 1 21 25 2 1 -2 2 0.12484894D+00 0.92447783D-01 0.43180916D+06 0.43180916D+06 0.43180916D+06 0.10730401D+01  1  2  1  6  5  2       -1 0.183641290770D-01 0.100000000000D+01
  </mgrwgt>
  </event>
  <event>
  5     66 0.18148205E-05 0.20432974E+02 0.75467711E-02 0.88487498E-01
        1 -1    0    0  502    0 0.00000000E+00 0.00000000E+00 0.14895210E+04 0.14895211E+04 0.32000000E+00 0.0000E+00 0.9000E+01
       -1 -1    0    0    0  501 0.00000000E+00 0.00000000E+00 -.12184295E+04 0.12184296E+04 0.32000000E+00 0.0000E+00 0.9000E+01
       25  1    1    2    0    0 -.59852582E+03 -.62598273E+03 -.30056959E+03 0.92523220E+03 0.12500000E+03 0.0000E+00 0.9000E+01
        2  1    1    2  502    0 0.61497452E+03 0.63810359E+03 0.10101289E+04 0.13437747E+04 0.32000000E+00 0.0000E+00 0.9000E+01
       -2  1    1    2    0  501 -.16448696E+02 -.12120855E+02 -.43846782E+03 0.43894374E+03 0.32000000E+00 0.0000E+00 0.9000E+01
#aMCatNLO 1  0  0  5  4 0.54067533D+01 0.00000000D+00  -5  6  0 0.00000000D+00 0.00000000D+00 0.00000000D+00 0.00000000D+00 0.00000000D+00
  <mgrwgt>
 0.3309569661D-02    8    2    0
 0.134717351781304D+04 0.000000000000000D+00 0.000000000000000D+00 0.134717351781304D+04
 0.134717351781304D+04 -.000000000000000D+00 -.000000000000000D+00 -.134717351781304D+04
 0.960123945281948D+03 -.598520809798519D+03 -.625977770597888D+03 -.395142583454626D+03
 0.124891636423562D+04 0.614970151145318D+03 0.638099057611595D+03 0.880018971801753D+03
 0.485306726108516D+03 -.164493413467996D+02 -.121212870137077D+02 -.484876388347127D+03
 0.000000000000000D+00 0.000000000000000D+00 0.000000000000000D+00 -.000000000000000D+00
 0.134717351781304D+04 0.000000000000000D+00 0.000000000000000D+00 0.134717351781304D+04
 0.134717351781304D+04 -.000000000000000D+00 -.000000000000000D+00 -.134717351781304D+04
 0.960182528822339D+03 -.598525235619995D+03 -.625981031923145D+03 -.395273043166526D+03
 0.124879180210814D+04 0.614964394558755D+03 0.638094815664366D+03 0.879849285195898D+03
 0.440241451979281D+02 0.243872498000371D+00 -.621504792878391D+01 -.435825546045188D+02
 0.441348559497677D+03 -.166830314367607D+02 -.589873581243818D+01 -.440993687424853D+03
0.683322100477D-03 0.000000000000D+00 0.000000000000D+00 0.323362907734D-04 0.000000000000D+00  6 1 -1 25 2 -2 21 0 0.22915709D+00 0.18745070D+00 0.79359651D+06 0.79359651D+06 0.79359651D+06 0.10546134D+01  1  2  2  4  6  5       -2 0.928663439948D-04 0.100000000000D+01
0.546989329834D-03 0.000000000000D+00 -.262413678867D-05 0.323362907734D-04 0.000000000000D+00  6 1 -1 25 2 -2 21 2 0.22915709D+00 0.18745070D+00 0.79359651D+06 0.79359651D+06 0.79359651D+06 0.10546134D+01  1  2  3  4  6  5       -2 0.826795844048D-04 0.100000000000D+01
-.440488614603D-03 0.000000000000D+00 0.000000000000D+00 0.323362907734D-04 0.000000000000D+00  6 1 -1 25 2 -2 21 2 0.22915709D+00 0.18745070D+00 0.79359651D+06 0.79359651D+06 0.79359651D+06 0.10546134D+01  1  2 15  4  6  5       -2 -.665815832303D-04 0.100000000000D+01
0.440843129469D-09 0.000000000000D+00 0.000000000000D+00 0.323362907734D-04 0.000000000000D+00  6 1 -1 25 2 -2 21 2 0.22915709D+00 0.18745070D+00 0.79669995D+06 0.79669995D+06 0.79669995D+06 0.10544983D+01  1  2 12  4  6  5       -2 0.665989935856D-10 0.100000000000D+01
-.276554241602D-02 0.000000000000D+00 0.000000000000D+00 0.323362907734D-04 0.000000000000D+00  6 1 -1 25 2 -2 21 2 0.22915709D+00 0.18745070D+00 0.79359651D+06 0.79359651D+06 0.79359651D+06 0.10546134D+01  1  2  4  4  6  5       -2 -.418022592286D-03 0.100000000000D+01
-.124662347966D-01 0.000000000000D+00 0.000000000000D+00 0.323362907734D-04 0.000000000000D+00  6 1 -1 25 2 -2 21 2 0.22915709D+00 0.18745070D+00 0.79359651D+06 0.79359651D+06 0.79359651D+06 0.10546134D+01  1  2  5  4  6  5       -2 -.188432032557D-02 0.100000000000D+01
0.321024784241D-01 0.000000000000D+00 -.000000000000D+00 0.323362907734D-04 0.000000000000D+00  6 1 -1 25 2 -2 21 2 0.22915709D+00 0.18745070D+00 0.79359651D+06 0.79359651D+06 0.79359651D+06 0.10546134D+01  1  2  6  4  6  5       -2 0.485241563171D-02 0.100000000000D+01
0.430611310299D-02 0.000000000000D+00 0.000000000000D+00 0.323362907734D-04 0.291244122772D-06  6 1 -1 25 2 -2 21 2 0.22915709D+00 0.18745070D+00 0.79669995D+06 0.79669995D+06 0.79669995D+06 0.10544983D+01  1  2 11  4  6  5       -2 0.650532535848D-03 0.100000000000D+01
  </mgrwgt>
  </event>
  <event>
  5     66 0.18148205E-05 0.29597150E+02 0.75467711E-02 0.95035713E-01
        1 -1    0    0  502    0 0.00000000E+00 0.00000000E+00 0.14862236E+04 0.14862237E+04 0.32000000E+00 0.0000E+00 0.9000E+01
       -1 -1    0    0    0  501 0.00000000E+00 0.00000000E+00 -.68300998E+03 0.68301005E+03 0.32000000E+00 0.0000E+00 0.9000E+01
       25  1    1    2    0    0 -.45503274E+03 -.13026232E+03 -.69360792E+02 0.49442794E+03 0.12500000E+03 0.0000E+00 0.9000E+01
        2  1    1    2  502    0 0.42555896E+03 0.12758218E+03 0.12343260E+04 0.13118454E+04 0.32000000E+00 0.0000E+00 0.9000E+01
       -2  1    1    2    0  501 0.29473779E+02 0.26801431E+01 -.36175159E+03 0.36296033E+03 0.32000000E+00 0.0000E+00 0.9000E+01
#aMCatNLO 1  0  0  4  1 0.60683367D+01 0.00000000D+00  -5  6  0 0.00000000D+00 0.00000000D+00 0.00000000D+00 0.00000000D+00 0.00000000D+00
  <mgrwgt>
 0.3539462346D-02    9    2    0
 0.100752452904248D+04 0.000000000000000D+00 0.000000000000000D+00 0.100752452904248D+04
 0.100752452904248D+04 -.000000000000000D+00 -.000000000000000D+00 -.100752452904248D+04
 0.559888980267927D+03 -.455030631379831D+03 -.130261363172220D+03 -.271716344734809D+03
 0.920203358936080D+03 0.425555098021462D+03 0.127581019178507D+03 0.805853686403780D+03
 0.534956718880958D+03 0.294755333583700D+02 0.268034399371354D+01 -.534137341668972D+03
 0.000000000000000D+00 0.000000000000000D+00 0.000000000000000D+00 0.000000000000000D+00
 0.100752452904248D+04 0.000000000000000D+00 0.000000000000000D+00 0.100752452904248D+04
 0.100752452904248D+04 -.000000000000000D+00 -.000000000000000D+00 -.100752452904248D+04
 0.559721556645073D+03 -.454937687670737D+03 -.130233498735423D+03 -.271540341601607D+03
 0.893980161346824D+03 0.415086718771518D+03 0.118108102777544D+03 0.782913801666236D+03
 0.534793847428111D+03 0.295643379758337D+02 0.270696753472257D+01 -.533969176539038D+03
 0.265534926649570D+02 0.102866309233850D+02 0.941842842315664D+01 0.225957164744087D+02
0.527126992706D-03 0.000000000000D+00 0.000000000000D+00 0.254376723354D-03 0.000000000000D+00  6 1 -1 25 2 -2 21 0 0.22864980D+00 0.10507847D+00 0.23203564D+06 0.23203564D+06 0.23203564D+06 0.10929038D+01  1  2  2  3  6  4        2 0.399192414697D-03 0.100000000000D+01
0.275517371712D-03 0.000000000000D+00 -.202430644772D-05 0.254376723354D-03 0.000000000000D+00  6 1 -1 25 2 -2 21 2 0.22864980D+00 0.10507847D+00 0.23203564D+06 0.23203564D+06 0.23203564D+06 0.10929038D+01  1  2  3  3  6  4        2 0.249218290919D-03 0.100000000000D+01
-.319939971814D-03 0.000000000000D+00 0.000000000000D+00 0.254376723354D-03 0.000000000000D+00  6 1 -1 25 2 -2 21 2 0.22864980D+00 0.10507847D+00 0.23203564D+06 0.23203564D+06 0.23203564D+06 0.10929038D+01  1  2 15  3  6  4        2 -.289400601047D-03 0.100000000000D+01
0.276985882467D-09 0.000000000000D+00 0.000000000000D+00 0.254376723354D-03 0.000000000000D+00  6 1 -1 25 2 -2 21 2 0.22864980D+00 0.10507847D+00 0.23263286D+06 0.23263286D+06 0.23263286D+06 0.10928193D+01  1  2 12  3  6  4        2 0.250465191830D-09 0.100000000000D+01
0.149785734926D-01 0.000000000000D+00 0.000000000000D+00 0.254376723354D-03 0.000000000000D+00  6 1 -1 25 2 -2 21 2 0.22864980D+00 0.10507847D+00 0.23263286D+06 0.23263286D+06 0.23263286D+06 0.10928193D+01  1  2 12  3  6  4        2 0.135444133461D-01 0.100000000000D+01
-.411087549935D-01 0.000000000000D+00 0.000000000000D+00 0.254376723354D-03 0.000000000000D+00  6 1 -1 25 2 -2 21 2 0.22864980D+00 0.10507847D+00 0.23203564D+06 0.23203564D+06 0.23203564D+06 0.10929038D+01  1  2  4  3  6  4        2 -.371847829327D-01 0.100000000000D+01
-.688368524597D-01 0.000000000000D+00 0.000000000000D+00 0.254376723354D-03 0.000000000000D+00  6 1 -1 25 2 -2 21 2 0.22864980D+00 0.10507847D+00 0.23203564D+06 0.23203564D+06 0.23203564D+06 0.10929038D+01  1  2  5  3  6  4        2 -.622661381228D-01 0.100000000000D+01
0.708518635863D-01 0.000000000000D+00 -.000000000000D+00 0.254376723354D-03 0.000000000000D+00  6 1 -1 25 2 -2 21 2 0.22864980D+00 0.10507847D+00 0.23203564D+06 0.23203564D+06 0.23203564D+06 0.10929038D+01  1  2  6  3  6  4        2 0.640888095066D-01 0.100000000000D+01
0.276450976712D-01 0.000000000000D+00 0.000000000000D+00 0.254376723354D-03 0.340420285123D-04  6 1 -1 25 2 -2 21 2 0.22864980D+00 0.10507847D+00 0.23263286D+06 0.23263286D+06 0.23263286D+06 0.10928193D+01  1  2 11  3  6  4        2 0.249981501934D-01 0.100000000000D+01
  </mgrwgt>
  </event>
  <event>
  5     66 0.18148205E-05 0.16321048E+02 0.75467711E-02 0.91105778E-01
        1 -1    0    0  502    0 0.00000000E+00 0.00000000E+00 0.43102201E+03 0.43102212E+03 0.32000000E+00 0.0000E+00 0.9000E+01
       -1 -1    0    0    0  501 0.00000000E+00 0.00000000E+00 -.11296711E+04 0.11296711E+04 0.32000000E+00 0.0000E+00 0.9000E+01
       25  1    1    2    0    0 -.52357091E+03 0.33719479E+03 -.28695277E+02 0.63582643E+03 0.12500000E+03 0.0000E+00 0.9000E+01
        2  1    1    2  502    0 0.15180565E+02 -.65963850E+01 0.51966790E+01 0.17351360E+02 0.32000000E+00 0.0000E+00 0.9000E+01
       -2  1    1    2    0  501 0.50839035E+03 -.33059841E+03 -.67515049E+03 0.90751547E+03 0.32000000E+00 0.0000E+00 0.9000E+01
#aMCatNLO 1  0  0  1  2 0.11890626D+03 0.00000000D+00  -5  6  0 0.00000000D+00 0.00000000D+00 0.00000000D+00 0.00000000D+00 0.00000000D+00
  <mgrwgt>
 0.1286890241D-03    7    2    0
 0.697791679267468D+03 0.000000000000000D+00 0.000000000000000D+00 0.697791679267468D+03
 0.697791679267468D+03 0.000000000000000D+00 0.000000000000000D+00 -.697791679267468D+03
 0.696777998343388D+03 -.523537019012518D+03 0.337205568621301D+03 0.286489045496840D+03
 0.216966413895422D+02 0.149689356427229D+02 -.650442619894460D+01 0.142957214974585D+02
 0.677108718802005D+03 0.508568083369795D+03 -.330701142422356D+03 -.300784766994298D+03
 0.000000000000000D+00 0.000000000000000D+00 -.000000000000000D+00 0.000000000000000D+00
 0.970401330432730D+03 0.000000000000000D+00 0.000000000000000D+00 0.970401330432730D+03
 0.713407294474934D+03 0.000000000000000D+00 0.000000000000000D+00 -.713407294474934D+03
 0.746003647925498D+03 -.553168777458673D+03 0.390928092074919D+03 0.286489045496840D+03
 0.206740077243079D+02 0.140987299237943D+02 -.492673896078880D+01 0.142957214974585D+02
 0.633962058282611D+03 0.481641394447149D+03 -.281882923287515D+03 -.300784766994298D+03
 0.283168910975247D+03 0.574286530877295D+02 -.104118429826615D+03 0.256994035957796D+03
0.252478070050D-04 0.000000000000D+00 0.000000000000D+00 0.973837084065D-07 0.000000000000D+00  6 1 -1 25 2 -2 21 0 0.66311090D-01 0.17379557D+00 0.39571104D+06 0.39571104D+06 0.39571104D+06 0.10757653D+01  1  2  2  1  6  1        1 0.378076548010D-04 0.100000000000D+01
0.113281585986D-04 0.000000000000D+00 -.969582267995D-07 0.973837084065D-07 0.000000000000D+00  6 1 -1 25 2 -2 21 2 0.66311090D-01 0.17379557D+00 0.39571104D+06 0.39571104D+06 0.39571104D+06 0.10757653D+01  1  2  3  1  6  1        1 0.196313630705D-04 0.100000000000D+01
-.177702611183D-04 0.000000000000D+00 0.000000000000D+00 0.973837084065D-07 0.000000000000D+00  6 1 -1 25 2 -2 21 2 0.66311090D-01 0.17379557D+00 0.39571104D+06 0.39571104D+06 0.39571104D+06 0.10757653D+01  1  2 15  1  6  1        1 -.307953357850D-04 0.100000000000D+01
-.265447904281D-05 0.000000000000D+00 0.000000000000D+00 0.973837084065D-07 0.000000000000D+00  6 1 -1 25 2 -2 21 2 0.66311090D-01 0.17379557D+00 0.39571104D+06 0.39571104D+06 0.39571104D+06 0.10757653D+01  1  2  4  1  6  1        1 -.460013349909D-05 0.100000000000D+01
-.198227404860D-03 0.000000000000D+00 -.213785541747D-04 0.973837084065D-07 0.000000000000D+00  6 1 -1 25 2 -2 21 2 0.93249667D-01 0.17379557D+00 0.39571104D+06 0.39571104D+06 0.39571104D+06 0.10757653D+01  1  2  5  1  6  1        1 -.212008400034D-03 0.100000000000D+01
0.195243996750D-03 0.000000000000D+00 0.201936050840D-04 0.973837084065D-07 0.000000000000D+00  6 1 -1 25 2 -2 21 2 0.66311090D-01 0.17379557D+00 0.39571104D+06 0.39571104D+06 0.39571104D+06 0.10757653D+01  1  2  6  1  6  1        1 0.338352059090D-03 0.100000000000D+01
-.782070053259D-05 0.000000000000D+00 -.906192501356D-06 0.973837084065D-07 0.000000000000D+00  6 21 -1 25 2 -2 -1 2 0.93249667D-01 0.17379557D+00 0.39571104D+06 0.39571104D+06 0.39571104D+06 0.10757653D+01  1  2  5  5  6  1        1 -.196981835278D-04 0.100000000000D+01
  </mgrwgt>
  </event>
  <event>
  6     66 0.18148205E-05 0.32366748E+02 0.75467711E-02 0.95351549E-01
        1 -1    0    0  502    0 0.00000000E+00 0.00000000E+00 0.73381865E+03 0.73381872E+03 0.32000000E+00 0.0000E+00 0.9000E+01
       -1 -1    0    0    0  501 -.00000000E+00 -.00000000E+00 -.99321049E+03 0.99321054E+03 0.32000000E+00 0.0000E+00 0.9000E+01
       25  1    1    2    0    0 0.34931705E+03 -.28682953E+03 0.18515353E+03 0.50418291E+03 0.12500000E+03 0.0000E+00 0.9000E+01
        2  1    1    2  503    0 -.26326655E+03 0.14907278E+03 0.19936475E+03 0.36232358E+03 0.32000000E+00 0.0000E+00 0.9000E+01
       -2  1    1    2    0  501 -.32528054E+01 0.36605363E+02 -.71212647E+03 0.71307415E+03 0.32000000E+00 0.0000E+00 0.9000E+01
       21  1    1    2  502  503 -.82797699E+02 0.10115138E+03 0.68216343E+02 0.14744861E+03 0.75000000E+00 0.0000E+00 0.9000E+01
#aMCatNLO 2  0  0  4  4 0.31030402D+02 0.00000000D+00  -5  6  0 0.00000000D+00 0.00000000D+00 0.00000000D+00 0.00000000D+00 0.00000000D+00
  <mgrwgt>
 0.7604615106D-02    1    2    0
 0.853719204349486D+03 0.000000000000000D+00 0.000000000000000D+00 0.853719204349486D+03
 0.853719204349486D+03 -.000000000000000D+00 -.000000000000000D+00 -.853719204349486D+03
 0.538713924280039D+03 0.350151593914187D+03 -.287453970221455D+03 0.263347239394068D+03
 0.554189156589502D+03 -.348100575901335D+03 0.251696543950524D+03 0.350143485019933D+03
 0.614535327829431D+03 -.205101801285204D+01 0.357574262709312D+02 -.613490724414002D+03
 0.000000000000000D+00 0.000000000000000D+00 0.000000000000000D+00 0.000000000000000D+00
 0.853719204349486D+03 0.000000000000000D+00 0.000000000000000D+00 0.853719204349486D+03
 0.853719204349486D+03 -.000000000000000D+00 -.000000000000000D+00 -.853719204349486D+03
 0.538141601673350D+03 0.349095424159875D+03 -.286690299330371D+03 0.264409607526009D+03
 0.396315935109603D+03 -.262983771833482D+03 0.148861321846021D+03 0.256410146118069D+03
 0.613382586565664D+03 -.325534833452116D+01 0.366282256913403D+02 -.612279326199987D+03
 0.159598285350355D+03 -.828563039918714D+02 0.101200751793010D+03 0.914595725559095D+02
0.594557297442D-02 0.000000000000D+00 0.000000000000D+00 0.474101556855D-04 0.111300064618D-06  6 1 -1 25 2 -2 21 2 0.11289519D+00 0.15280162D+00 0.22017783D+06 0.22017783D+06 0.22017783D+06 0.10946337D+01  1  2  1  3  6  4        2 0.760461510592D-02 0.100000000000D+01
  </mgrwgt>
  </event>
  <event>
  5     66 0.18148205E-05 0.20034435E+02 0.75467711E-02 0.93627150E-01
        1 -1    0    0  502    0 0.00000000E+00 0.00000000E+00 0.59530130E+03 0.59530139E+03 0.32000000E+00 0.0000E+00 0.9000E+01
       -1 -1    0    0    0  501 0.00000000E+00 0.00000000E+00 -.95534136E+03 0.95534141E+03 0.32000000E+00 0.0000E+00 0.9000E+01
       25  1    1    2    0    0 -.78493203E+02 0.52471510E+03 0.67734811E+02 0.54927236E+03 0.12500000E+03 0.0000E+00 0.9000E+01
        2  1    1    2  502    0 0.97684241E+02 -.51897510E+03 0.43308407E+02 0.52986138E+03 0.32000000E+00 0.0000E+00 0.9000E+01
       -2  1    1    2    0  501 -.19191037E+02 -.57399992E+01 -.47108328E+03 0.47150906E+03 0.32000000E+00 0.0000E+00 0.9000E+01
#aMCatNLO 1  0  0  2  1 0.95069590D+01 0.00000000D+00  -5  6  0 0.00000000D+00 0.00000000D+00 0.00000000D+00 0.00000000D+00 0.00000000D+00
  <mgrwgt>
 0.1038407251D-01    5    4    0
 0.754132658319135D+03 0.000000000000000D+00 0.000000000000000D+00 0.754132658319135D+03
 0.754132658319135D+03 0.000000000000000D+00 0.000000000000000D+00 -.754132658319135D+03
 0.580855223291107D+03 -.784789207539282D+02 0.524657240165870D+03 0.200857237269144D+03
 0.555023816273208D+03 0.976731340222645D+02 -.518916092119524D+03 0.170989721504382D+03
 0.372386277073956D+03 -.191942132683363D+02 -.574114804634610D+01 -.371846958773526D+03
 0.000000000000000D+00 0.000000000000000D+00 0.000000000000000D+00 -.000000000000000D+00
 0.163950557711756D+04 0.000000000000000D+00 0.000000000000000D+00 0.163950557711756D+04
 0.220057817055805D+04 0.000000000000000D+00 0.000000000000000D+00 -.220057817055805D+04
 0.302089132428547D+03 -.112450811121240D+03 0.150479331624693D+03 0.200857237269144D+03
 0.132835450539735D+04 0.252088598587879D+02 -.131706215515210D+04 0.170989721504382D+03
 0.544809051589868D+03 -.544839333383868D+02 -.394434079350541D+03 -.371846958773526D+03
 0.166483105825985D+04 0.141725884600839D+03 0.156101690287795D+04 -.561072593440491D+03
 0.754132658319135D+03 0.000000000000000D+00 0.000000000000000D+00 0.754132658319135D+03
 0.754132658319135D+03 0.000000000000000D+00 0.000000000000000D+00 -.754132658319135D+03
 0.580855223291107D+03 -.784789207539282D+02 0.524657240165870D+03 0.200857237269144D+03
 0.555023816273208D+03 0.976731340222645D+02 -.518916092119524D+03 0.170989721504382D+03
 0.000000000000000D+00 0.000000000000000D+00 0.000000000000000D+00 -.000000000000000D+00
 0.372386277073956D+03 -.191942132683363D+02 -.574114804634610D+01 -.371846958773526D+03
 0.163950557711756D+04 0.000000000000000D+00 0.000000000000000D+00 0.163950557711756D+04
 0.220057817055805D+04 0.000000000000000D+00 0.000000000000000D+00 -.220057817055805D+04
 0.302089132428547D+03 -.112450811121240D+03 0.150479331624693D+03 0.200857237269144D+03
 0.132835450539735D+04 0.252088598587879D+02 -.131706215515210D+04 0.170989721504382D+03
 0.166483105825985D+04 0.141725884600839D+03 0.156101690287795D+04 -.561072593440491D+03
 0.544809051589868D+03 -.544839333383868D+02 -.394434079350541D+03 -.371846958773526D+03
0.617012442184D-02 0.000000000000D+00 0.000000000000D+00 0.847744522605D-05 0.000000000000D+00  6 1 -1 25 2 -2 21 0 0.91584827D-01 0.14697560D+00 0.29870868D+06 0.29870868D+06 0.29870868D+06 0.10846905D+01  1  2  2  2  6  2       -1 0.989533958618D-02 0.100000000000D+01
0.427293854836D-02 0.000000000000D+00 -.236949024110D-04 0.847744522605D-05 0.000000000000D+00  6 1 -1 25 2 -2 21 2 0.91584827D-01 0.14697560D+00 0.29870868D+06 0.29870868D+06 0.29870868D+06 0.10846905D+01  1  2  3  2  6  2       -1 0.806259969656D-02 0.100000000000D+01
-.401945328972D-02 0.000000000000D+00 0.000000000000D+00 0.847744522605D-05 0.000000000000D+00  6 1 -1 25 2 -2 21 2 0.91584827D-01 0.14697560D+00 0.29870868D+06 0.29870868D+06 0.29870868D+06 0.10846905D+01  1  2 15  2  6  2       -1 -.758429883961D-02 0.100000000000D+01
0.509433481121D-02 0.000000000000D+00 -.374502286371D-02 0.847744522605D-05 0.000000000000D+00  6 1 -1 25 2 -2 21 2 0.91584827D-01 0.56975019D+00 0.29870868D+06 0.29870868D+06 0.29870868D+06 0.10846905D+01  1  2  5  2  6  2       -1 0.214411138611D-05 0.100000000000D+01
0.883030724530D-03 0.000000000000D+00 -.603017150887D-03 0.847744522605D-05 0.000000000000D+00  6 1 21 25 2 1 -2 2 0.91584827D-01 0.56975019D+00 0.29870868D+06 0.29870868D+06 0.29870868D+06 0.10846905D+01  3  4  5  6  5  2       -1 0.828795107742D-05 0.100000000000D+01
  </mgrwgt>
  </event>
  <event>
  6     66 -.18148205E-05 0.40413345E+02 0.75467711E-02 0.93658252E-01
        1 -1    0    0  502    0 0.00000000E+00 0.00000000E+00 0.31720928E+04 0.31720928E+04 0.32000000E+00 0.0000E+00 0.9000E+01
       -1 -1    0    0    0  503 0.00000000E+00 0.00000000E+00 -.85855091E+03 0.85855097E+03 0.32000000E+00 0.0000E+00 0.9000E+01
       25  1    1    2    0    0 -.43332184E+03 0.21703048E+03 0.18069814E+04 0.18750139E+04 0.12500000E+03 0.0000E+00 0.9000E+01
        2  1    1    2  502    0 0.43608177E+02 -.48688600E+02 0.12410820E+04 0.12428020E+04 0.32000000E+00 0.0000E+00 0.9000E+01
       -2  1    1    2    0  501 0.43394176E+03 -.19135232E+03 -.57312186E+03 0.74390183E+03 0.32000000E+00 0.0000E+00 0.9000E+01
       21  1    1    2  501  503 -.44228098E+02 0.23010445E+02 -.16139967E+03 0.16892609E+03 0.75000000E+00 0.0000E+00 0.9000E+01
#aMCatNLO 2  0  0  2  5 0.49855844D+02 0.00000000D+00  -5  6  0 0.00000000D+00 0.00000000D+00 0.00000000D+00 0.00000000D+00 0.00000000D+00
  <mgrwgt>
 -.2672225463D-02    3    2    0
 0.148197859775613D+04 0.000000000000000D+00 0.000000000000000D+00 0.148197859775613D+04
 0.148197859775613D+04 0.000000000000000D+00 0.000000000000000D+00 -.148197859775613D+04
 0.942414187601510D+03 -.447351931754618D+03 0.224318257648276D+03 0.788718625007466D+03
 0.581700812122299D+03 0.349074596337600D+02 -.441534640683021D+02 0.578971308180664D+03
 0.143984219578845D+04 0.412444472120858D+03 -.180164793579974D+03 -.136768993318813D+04
 0.000000000000000D+00 -.000000000000000D+00 0.000000000000000D+00 -.000000000000000D+00
 0.148394831922561D+04 0.000000000000000D+00 0.000000000000000D+00 0.148394831922561D+04
 0.183524036742483D+04 0.000000000000000D+00 0.000000000000000D+00 -.183524036742483D+04
 0.934130648021058D+03 -.433352043470460D+03 0.217034569961909D+03 0.788718625007466D+03
 0.582646768529688D+03 0.435940285574646D+02 -.486728040674624D+02 0.578971308180664D+03
 0.144759905448801D+04 0.433986112993791D+03 -.191372210466857D+03 -.136768993318813D+04
 0.354812215611685D+03 -.442280980807961D+02 0.230104445724103D+02 -.351292048199228D+03
-.507043522308D-09 0.000000000000D+00 0.000000000000D+00 0.349531094058D-03 0.000000000000D+00  6 1 -1 25 2 -2 21 2 0.48736638D+00 0.13214443D+00 0.29703971D+06 0.29703971D+06 0.29703971D+06 0.10848706D+01  1  2 13  2  6  2       -1 -.173120650432D-10 0.100000000000D+01
-.138671939491D+00 0.000000000000D+00 0.000000000000D+00 0.349531094058D-03 0.000000000000D+00  6 1 -1 25 2 -2 21 2 0.48736638D+00 0.13521313D+00 0.29703971D+06 0.29703971D+06 0.29703971D+06 0.10848706D+01  1  2 13  2  6  2       -1 -.445664900217D-02 0.100000000000D+01
0.525911539953D-01 0.000000000000D+00 0.000000000000D+00 0.349531094058D-03 0.311537133656D-06  6 1 -1 25 2 -2 21 2 0.48801415D+00 0.13208473D+00 0.29703971D+06 0.29703971D+06 0.29703971D+06 0.10848706D+01  1  2  1  2  6  2       -1 0.178442355667D-02 0.100000000000D+01
  </mgrwgt>
  </event>
  <event>
  5     66 -.18148205E-05 0.85479124E+02 0.75467711E-02 0.92825759E-01
        1 -1    0    0  502    0 0.00000000E+00 0.00000000E+00 0.20608591E+04 0.20608591E+04 0.32000000E+00 0.0000E+00 0.9000E+01
       -1 -1    0    0    0  501 0.00000000E+00 0.00000000E+00 -.23477655E+03 0.23477677E+03 0.32000000E+00 0.0000E+00 0.9000E+01
       25  1    1    2    0    0 0.35525023E+03 -.45348512E+03 0.36890091E+03 0.69538792E+03 0.12500000E+03 0.0000E+00 0.9000E+01
        2  1    1    2  502    0 -.33805443E+03 0.36976010E+03 0.14222504E+04 0.15079123E+04 0.32000000E+00 0.0000E+00 0.9000E+01
       -2  1    1    2    0  501 -.17195794E+02 0.83725018E+02 0.34931221E+02 0.92335619E+02 0.32000000E+00 0.0000E+00 0.9000E+01
#aMCatNLO 1  0  0  5  2 0.56358300D+01 0.00000000D+00  -5  6  0 0.00000000D+00 0.00000000D+00 0.00000000D+00 0.00000000D+00 0.00000000D+00
  <mgrwgt>
 -.8707662336D-03    9    2    0
 0.695587277900847D+03 0.000000000000000D+00 0.000000000000000D+00 0.695587277900847D+03
 0.695587277900847D+03 -.000000000000000D+00 -.000000000000000D+00 -.695587277900847D+03
 0.663258346554324D+03 0.355249807581946D+03 -.453487689333961D+03 -.304028163349237D+03
 0.621390622759180D+03 -.338051260419508D+03 0.369756628260264D+03 0.367597180673933D+03
 0.106525586488192D+03 -.171985471624381D+02 0.837310610736967D+02 -.635690173246958D+02
 0.000000000000000D+00 0.000000000000000D+00 0.000000000000000D+00 -.000000000000000D+00
 0.695587277900847D+03 0.000000000000000D+00 0.000000000000000D+00 0.695587277900847D+03
 0.695587277900847D+03 -.000000000000000D+00 -.000000000000000D+00 -.695587277900847D+03
 0.663118157868127D+03 0.355185157323347D+03 -.453172939797264D+03 -.304267122685170D+03
 0.621466725097134D+03 -.338111839786433D+03 0.370051558676411D+03 0.367373268107995D+03
 0.249449067633302D+02 -.789917676372769D+01 0.209651466351058D+02 -.109687741546235D+02
 0.816447660731034D+02 -.917414077318656D+01 0.621562344857475D+02 -.521373712682017D+02
0.291308182278D-04 0.000000000000D+00 0.000000000000D+00 0.693987764027D-07 0.000000000000D+00  6 1 -1 25 2 -2 21 0 0.31705526D+00 0.36119488D-01 0.34571450D+06 0.34571450D+06 0.34571450D+06 0.10800239D+01  1  2  2  4  6  5       -2 0.705512461970D-04 0.100000000000D+01
0.365080769882D-05 0.000000000000D+00 -.111870012315D-06 0.693987764027D-07 0.000000000000D+00  6 1 -1 25 2 -2 21 2 0.31705526D+00 0.36119488D-01 0.34571450D+06 0.34571450D+06 0.34571450D+06 0.10800239D+01  1  2  3  4  6  5       -2 0.103135386484D-04 0.100000000000D+01
-.182214737156D-04 0.000000000000D+00 0.000000000000D+00 0.693987764027D-07 0.000000000000D+00  6 1 -1 25 2 -2 21 2 0.31705526D+00 0.36119488D-01 0.34571450D+06 0.34571450D+06 0.34571450D+06 0.10800239D+01  1  2 15  4  6  5       -2 -.514756976810D-04 0.100000000000D+01
0.366527670421D-06 0.000000000000D+00 0.000000000000D+00 0.693987764027D-07 0.000000000000D+00  6 1 -1 25 2 -2 21 2 0.31705526D+00 0.36119488D-01 0.34555687D+06 0.34555687D+06 0.34555687D+06 0.10800384D+01  1  2 12  4  6  5       -2 0.103549405509D-05 0.100000000000D+01
0.907353283824D-04 0.000000000000D+00 0.000000000000D+00 0.693987764027D-07 0.000000000000D+00  6 1 -1 25 2 -2 21 2 0.31705526D+00 0.36119488D-01 0.34555687D+06 0.34555687D+06 0.34555687D+06 0.10800384D+01  1  2 12  4  6  5       -2 0.256340518626D-03 0.100000000000D+01
-.821237709304D-03 0.000000000000D+00 0.000000000000D+00 0.693987764027D-07 0.000000000000D+00  6 1 -1 25 2 -2 21 2 0.31705526D+00 0.36119488D-01 0.34571450D+06 0.34571450D+06 0.34571450D+06 0.10800239D+01  1  2  4  4  6  5       -2 -.231999808074D-02 0.100000000000D+01
-.137854345954D-03 0.000000000000D+00 0.000000000000D+00 0.693987764027D-07 0.000000000000D+00  6 1 -1 25 2 -2 21 2 0.31705526D+00 0.36119488D-01 0.34571450D+06 0.34571450D+06 0.34571450D+06 0.10800239D+01  1  2  5  4  6  5       -2 -.389438787833D-03 0.100000000000D+01
0.498541442504D-03 0.000000000000D+00 -.000000000000D+00 0.693987764027D-07 0.000000000000D+00  6 1 -1 25 2 -2 21 2 0.31705526D+00 0.36119488D-01 0.34571450D+06 0.34571450D+06 0.34571450D+06 0.10800239D+01  1  2  6  4  6  5       -2 0.140838051721D-02 0.100000000000D+01
0.508026967559D-04 0.000000000000D+00 0.000000000000D+00 0.693987764027D-07 0.178738889637D-08  6 1 -1 25 2 -2 21 2 0.31705526D+00 0.36119488D-01 0.34555687D+06 0.34555687D+06 0.34555687D+06 0.10800384D+01  1  2 11  4  6  5       -2 0.143525017941D-03 0.100000000000D+01
  </mgrwgt>
  </event>
  <event>
  5     66 0.18148205E-05 0.42812433E+02 0.75467711E-02 0.88228950E-01
        1 -1    0    0  502    0 0.00000000E+00 0.00000000E+00 0.93162182E+03 0.93162188E+03 0.32000000E+00 0.0000E+00 0.9000E+01
       -1 -1    0    0    0  501 0.00000000E+00 0.00000000E+00 -.57602695E+03 0.57602704E+03 0.32000000E+00 0.0000E+00 0.9000E+01
       25  1    1    2    0    0 0.15827600E+03 0.44580977E+03 0.70211606E+01 0.48935871E+03 0.12500000E+03 0.0000E+00 0.9000E+01
        2  1    1    2  502    0 0.36728304E+01 -.42666247E+02 0.54130997E+03 0.54300136E+03 0.32000000E+00 0.0000E+00 0.9000E+01
       -2  1    1    2    0  501 -.16194883E+03 -.40314353E+03 -.19273625E+03 0.47528885E+03 0.32000000E+00 0.0000E+00 0.9000E+01
#aMCatNLO 1  0  0  2  5 0.21556612D+02 0.00000000D+00  -5  6  0 0.00000000D+00 0.00000000D+00 0.00000000D+00 0.00000000D+00 0.00000000D+00
  <mgrwgt>
 0.2967054484D-02    5    4    0
 0.732556746603800D+03 0.000000000000000D+00 0.000000000000000D+00 0.732556746603800D+03
 0.732556746603800D+03 0.000000000000000D+00 0.000000000000000D+00 -.732556746603800D+03
 0.501918713286048D+03 0.158308243208541D+03 0.445884676981457D+03 -.111457389670178D+03
 0.427269623872562D+03 0.367183499392473D+01 -.426546838206074D+02 0.425119309206418D+03
 0.535925156048990D+03 -.161980078202466D+03 -.403229993160849D+03 -.313661919536240D+03
 0.000000000000000D+00 0.000000000000000D+00 -.000000000000000D+00 -.000000000000000D+00
 0.108613108672090D+04 0.000000000000000D+00 0.000000000000000D+00 0.108613108672090D+04
 0.112795576136363D+04 0.000000000000000D+00 0.000000000000000D+00 -.112795576136363D+04
 0.502067238056611D+03 -.441852136817025D+02 0.471244552976059D+03 -.111457389670178D+03
 0.460305298360743D+03 -.175342735889020D+03 -.202352566028718D+02 0.425119309206418D+03
 0.629025926910191D+03 -.396938517193538D+03 -.373804267667266D+03 -.313661919536240D+03
 0.622688384756986D+03 0.616466466764261D+03 -.772050287059214D+02 -.418246746427331D+02
 0.732556746603800D+03 0.000000000000000D+00 0.000000000000000D+00 0.732556746603800D+03
 0.732556746603800D+03 0.000000000000000D+00 0.000000000000000D+00 -.732556746603800D+03
 0.501918713286048D+03 0.158308243208541D+03 0.445884676981457D+03 -.111457389670178D+03
 0.427269623872562D+03 0.367183499392473D+01 -.426546838206074D+02 0.425119309206418D+03
 0.000000000000000D+00 0.000000000000000D+00 -.000000000000000D+00 -.000000000000000D+00
 0.535925156048990D+03 -.161980078202466D+03 -.403229993160849D+03 -.313661919536240D+03
 0.108613108672090D+04 0.000000000000000D+00 0.000000000000000D+00 0.108613108672090D+04
 0.112795576136363D+04 0.000000000000000D+00 0.000000000000000D+00 -.112795576136363D+04
 0.502067238056611D+03 -.441852136817025D+02 0.471244552976059D+03 -.111457389670178D+03
 0.460305298360743D+03 -.175342735889020D+03 -.202352566028718D+02 0.425119309206418D+03
 0.622688384756986D+03 0.616466466764261D+03 -.772050287059214D+02 -.418246746427331D+02
 0.629025926910191D+03 -.396938517193538D+03 -.373804267667266D+03 -.313661919536240D+03
0.148556677045D-02 0.000000000000D+00 0.000000000000D+00 0.191211773498D-04 0.000000000000D+00  6 1 -1 25 2 -2 21 0 0.14332645D+00 0.88619542D-01 0.23365016D+06 0.23365016D+06 0.23365016D+06 0.10926758D+01  1  2  2  2  6  2       -1 0.407656879563D-02 0.100000000000D+01
0.607345197905D-03 0.000000000000D+00 -.570496755725D-05 0.191211773498D-04 0.000000000000D+00  6 1 -1 25 2 -2 21 2 0.14332645D+00 0.88619542D-01 0.23365016D+06 0.23365016D+06 0.23365016D+06 0.10926758D+01  1  2  3  2  6  2       -1 0.198985234802D-02 0.100000000000D+01
-.101807787939D-02 0.000000000000D+00 0.000000000000D+00 0.191211773498D-04 0.000000000000D+00  6 1 -1 25 2 -2 21 2 0.14332645D+00 0.88619542D-01 0.23365016D+06 0.23365016D+06 0.23365016D+06 0.10926758D+01  1  2 15  2  6  2       -1 -.333554075303D-02 0.100000000000D+01
0.113357620872D-03 0.000000000000D+00 -.851305494814D-03 0.191211773498D-04 0.000000000000D+00  6 1 -1 25 2 -2 21 2 0.14332645D+00 0.18537023D+00 0.23365016D+06 0.23365016D+06 0.23365016D+06 0.10926758D+01  1  2  5  2  6  2       -1 0.531354669361D-04 0.100000000000D+01
0.616635469197D-04 0.000000000000D+00 -.679427572278D-04 0.191211773498D-04 0.000000000000D+00  6 1 21 25 2 1 -2 2 0.14332645D+00 0.18537023D+00 0.23365016D+06 0.23365016D+06 0.23365016D+06 0.10926758D+01  3  4  5  6  5  2       -1 0.183038626006D-03 0.100000000000D+01
  </mgrwgt>
  </event>
  <event>
  5     66 0.18148205E-05 0.19607584E+02 0.75467711E-02 0.95180281E-01
        1 -1    0    0  502    0 0.00000000E+00 0.00000000E+00 0.27063541E+04 0.27063541E+04 0.32000000E+00 0.0000E+00 0.9000E+01
       -1 -1    0    0    0  501 0.00000000E+00 0.00000000E+00 -.24109168E+03 0.24109189E+03 0.32000000E+00 0.0000E+00 0.9000E+01
       25  1    1    2    0    0 -.44284059E+03 -.90722390E+02 0.18079927E+04 0.18678332E+04 0.12500000E+03 0.0000E+00 0.9000E+01
        2  1    1    2  502    0 -.14405170E+02 0.13340131E+02 0.61348908E+03 0.61380325E+03 0.32000000E+00 0.0000E+00 0.9000E+01
       -2  1    1    2    0  501 0.45724576E+03 0.77382260E+02 0.43780659E+02 0.46580956E+03 0.32000000E+00 0.0000E+00 0.9000E+01
#aMCatNLO 1  0  0  5  5 0.27335977D+03 0.00000000D+00  -5  6  0 0.00000000D+00 0.00000000D+00 0.00000000D+00 0.00000000D+00 0.00000000D+00
  <mgrwgt>
 0.1205912297D-01    6    2    0
 0.807762209704625D+03 0.000000000000000D+00 0.000000000000000D+00 0.807762209704625D+03
 0.807762209704625D+03 -.000000000000000D+00 -.000000000000000D+00 -.807762209704625D+03
 0.649020671957281D+03 -.442946599924686D+03 -.907225257167958D+02 0.448520418231552D+03
 0.183439272738662D+03 -.143862729889696D+02 0.133226306944705D+02 0.182388347883726D+03
 0.783064474713306D+03 0.457332872913656D+03 0.773998950223254D+02 -.630908766115277D+03
 0.000000000000000D+00 0.000000000000000D+00 0.000000000000000D+00 0.000000000000000D+00
 0.807762209704625D+03 0.000000000000000D+00 0.000000000000000D+00 0.807762209704625D+03
 0.807762209704625D+03 -.000000000000000D+00 -.000000000000000D+00 -.807762209704625D+03
 0.569515956362088D+03 -.394819914498347D+03 -.825774729108620D+02 0.382127754336423D+03
 0.164195747261189D+03 -.656262038221925D+00 0.156463241553686D+02 0.163447255343192D+03
 0.526009217096050D+03 0.148311586875282D+03 -.178248751921947D+03 -.472140606288851D+03
 0.355803498689922D+03 0.247164589661286D+03 0.245179900677441D+03 -.734344033907649D+02
0.124873147712D-01 0.000000000000D+00 0.000000000000D+00 0.399338960903D-04 0.000000000000D+00  6 1 -1 25 2 -2 21 0 0.41636219D+00 0.37091045D-01 0.22683620D+06 0.22683620D+06 0.22683620D+06 0.10936502D+01  1  2  2  4  6  5       -2 0.106921277298D-01 0.100000000000D+01
0.529301471584D-02 0.000000000000D+00 -.479545767071D-04 0.399338960903D-04 0.000000000000D+00  6 1 -1 25 2 -2 21 2 0.41636219D+00 0.37091045D-01 0.22683620D+06 0.22683620D+06 0.22683620D+06 0.10936502D+01  1  2  3  4  6  5       -2 0.542069571041D-02 0.100000000000D+01
-.725959500042D-02 0.000000000000D+00 0.000000000000D+00 0.399338960903D-04 0.000000000000D+00  6 1 -1 25 2 -2 21 2 0.41636219D+00 0.37091045D-01 0.22683620D+06 0.22683620D+06 0.22683620D+06 0.10936502D+01  1  2 15  4  6  5       -2 -.743471491971D-02 0.100000000000D+01
-.107763874792D-03 0.000000000000D+00 0.000000000000D+00 0.399338960903D-04 0.000000000000D+00  6 1 -1 25 2 -2 21 2 0.41636219D+00 0.37091045D-01 0.22683620D+06 0.22683620D+06 0.22683620D+06 0.10936502D+01  1  2  4  4  6  5       -2 -.110363413893D-03 0.100000000000D+01
-.629948114243D-02 0.000000000000D+00 0.000000000000D+00 0.399338960903D-04 0.000000000000D+00  6 1 -1 25 2 -2 21 2 0.41636219D+00 0.37091045D-01 0.22683620D+06 0.22683620D+06 0.22683620D+06 0.10936502D+01  1  2  5  4  6  5       -2 -.645144067036D-02 0.100000000000D+01
0.970862184969D-02 0.000000000000D+00 -.000000000000D+00 0.399338960903D-04 0.000000000000D+00  6 1 -1 25 2 -2 21 2 0.41636219D+00 0.37091045D-01 0.22683620D+06 0.22683620D+06 0.22683620D+06 0.10936502D+01  1  2  6  4  6  5       -2 0.994281853347D-02 0.100000000000D+01
  </mgrwgt>
  </event>
  <event>
  5     66 -.18148205E-05 0.13987151E+02 0.75467711E-02 0.92477890E-01
        1 -1    0    0  502    0 0.00000000E+00 0.00000000E+00 0.14284908E+04 0.14284908E+04 0.32000000E+00 0.0000E+00 0.9000E+01
       -1 -1    0    0    0  501 0.00000000E+00 0.00000000E+00 -.30992195E+03 0.30992212E+03 0.32000000E+00 0.0000E+00 0.9000E+01
       25  1    1    2    0    0 -.14059257E+03 0.58360723E+03 0.28310182E+03 0.67537790E+03 0.12500000E+03 0.0000E+00 0.9000E+01
        2  1    1    2  502    0 0.95515554E+00 -.13997024E+02 0.19156788E+03 0.19208119E+03 0.32000000E+00 0.0000E+00 0.9000E+01
       -2  1    1    2    0  501 0.13963741E+03 -.56961021E+03 0.64389911E+03 0.87095382E+03 0.32000000E+00 0.0000E+00 0.9000E+01
#aMCatNLO 1  0  0  4  5 0.10393422D+03 0.00000000D+00  -5  6  0 0.00000000D+00 0.00000000D+00 0.00000000D+00 0.00000000D+00 0.00000000D+00
  <mgrwgt>
 -.3299310280D-03    1    2    0
 0.665372692001166D+03 0.000000000000000D+00 0.000000000000000D+00 0.665372692001166D+03
 0.665372692001166D+03 -.000000000000000D+00 -.000000000000000D+00 -.665372692001166D+03
 0.644393229115668D+03 -.140625319996424D+03 0.583730465878524D+03 -.197739465740308D+03
 0.896279928281401D+02 0.952267158696310D+00 -.139546971307268D+02 0.885298634001503D+02
 0.596724162058525D+03 0.139673052837728D+03 -.569775768747797D+03 0.109209602340157D+03
 0.000000000000000D+00 0.000000000000000D+00 0.000000000000000D+00 0.000000000000000D+00
 0.665372692001166D+03 0.000000000000000D+00 0.000000000000000D+00 0.665372692001166D+03
 0.665372692001166D+03 -.000000000000000D+00 -.000000000000000D+00 -.665372692001166D+03
 0.631839869478524D+03 -.140313594567140D+03 0.579162384417478D+03 -.168759142917200D+03
 0.476667366174114D+02 -.261120867001505D+02 -.368953720544385D+02 0.151330178378951D+02
 0.606466942736191D+03 0.139966937445536D+03 -.574082407547529D+03 0.136531309223682D+03
 0.447718351702064D+02 0.264587438217542D+02 0.318153951844899D+02 0.170948158556228D+02
-.725610798506D-04 0.000000000000D+00 0.000000000000D+00 0.336140812675D-06 0.000000000000D+00  6 1 -1 25 2 -2 21 2 0.21976782D+00 0.47680316D-01 0.36841054D+06 0.36841054D+06 0.36841054D+06 0.10780127D+01  1  2 14  3  6  4        2 -.329931028049D-03 0.100000000000D+01
  </mgrwgt>
  </event>
  <event>
  6     66 0.18148205E-05 0.77724735E+01 0.75467711E-02 0.94642805E-01
        1 -1    0    0  502    0 0.00000000E+00 0.00000000E+00 0.23121307E+04 0.23121307E+04 0.32000000E+00 0.0000E+00 0.9000E+01
       -1 -1    0    0    0  501 0.00000000E+00 0.00000000E+00 -.33306927E+03 0.33306942E+03 0.32000000E+00 0.0000E+00 0.9000E+01
       25  1    1    2    0    0 0.43129500E+03 -.22978832E+03 0.79360182E+03 0.94034403E+03 0.12500000E+03 0.0000E+00 0.9000E+01
        2  1    1    2  503    0 -.21288645E+03 0.99011235E+02 0.67910889E+03 0.71854913E+03 0.32000000E+00 0.0000E+00 0.9000E+01
       -2  1    1    2    0  501 -.27568784E+01 0.14243564E+02 -.21960493E+03 0.22008386E+03 0.32000000E+00 0.0000E+00 0.9000E+01
       21  1    1    2  502  503 -.21565167E+03 0.11653352E+03 0.72595564E+03 0.76622311E+03 0.75000000E+00 0.0000E+00 0.9000E+01
#aMCatNLO 2  0  0  4  1 0.20529699D+02 0.00000000D+00  -5  6  0 0.00000000D+00 0.00000000D+00 0.00000000D+00 0.00000000D+00 0.00000000D+00
  <mgrwgt>
 0.4744916133D-01    1    2    0
 0.877553362249031D+03 0.000000000000000D+00 0.000000000000000D+00 0.877553362249031D+03
 0.877553362249031D+03 -.000000000000000D+00 -.000000000000000D+00 -.877553362249031D+03
 0.522349734034859D+03 0.431166860104751D+03 -.229731397287999D+03 0.136172201619132D+03
 0.653093443572017D+03 -.428447446286153D+03 0.215499145817495D+03 0.443310218650054D+03
 0.579663546891186D+03 -.271941381859833D+01 0.142322514705046D+02 -.579482420269186D+03
 0.000000000000000D+00 0.000000000000000D+00 0.000000000000000D+00 0.000000000000000D+00
 0.877553362249031D+03 0.000000000000000D+00 0.000000000000000D+00 0.877553362249031D+03
 0.877553362249031D+03 -.000000000000000D+00 -.000000000000000D+00 -.877553362249031D+03
 0.522322412561303D+03 0.431131690786586D+03 -.229713707935223D+03 0.136208590955235D+03
 0.317450926601619D+03 -.213043314342708D+03 0.991111039533170D+02 0.213458722209365D+03
 0.579623844508518D+03 -.275844170619511D+01 0.142518815943694D+02 -.579442038510504D+03
 0.335709540826622D+03 -.215329934737683D+03 0.116350722387536D+03 0.229774725345903D+03
0.443810824475D-01 0.000000000000D+00 0.000000000000D+00 0.760403705487D-04 0.250801072544D-05  6 1 -1 25 2 -2 21 2 0.35571243D+00 0.51241439D-01 0.24924517D+06 0.24924517D+06 0.24924517D+06 0.10905579D+01  1  2  1  3  6  4        2 0.474491613261D-01 0.100000000000D+01
  </mgrwgt>
  </event>
  <event>
  5     66 0.18148205E-05 0.76444572E+02 0.75467711E-02 0.94958096E-01
        1 -1    0    0  502    0 0.00000000E+00 0.00000000E+00 0.55377083E+03 0.55377093E+03 0.32000000E+00 0.0000E+00 0.9000E+01
       -1 -1    0    0    0  501 -.00000000E+00 -.00000000E+00 -.81487956E+03 0.81487963E+03 0.32000000E+00 0.0000E+00 0.9000E+01
       25  1    1    2    0    0 0.45165757E+03 -.45647627E+02 -.13239283E+03 0.48911259E+03 0.12500000E+03 0.0000E+00 0.9000E+01
        2  1    1    2  502    0 -.43775469E+02 -.62705554E+02 0.28107264E+03 0.29129059E+03 0.32000000E+00 0.0000E+00 0.9000E+01
       -2  1    1    2    0  501 -.40788210E+03 0.10835318E+03 -.40978854E+03 0.58824737E+03 0.32000000E+00 0.0000E+00 0.9000E+01
#aMCatNLO 1  0  0  5  2 0.29634369D+02 0.00000000D+00  -5  6  0 0.00000000D+00 0.00000000D+00 0.00000000D+00 0.00000000D+00 0.00000000D+00
  <mgrwgt>
 0.4956164032D-02    8    2    0
 0.671756386207290D+03 0.000000000000000D+00 0.000000000000000D+00 0.671756386207290D+03
 0.671756386207290D+03 -.000000000000000D+00 -.000000000000000D+00 -.671756386207290D+03
 0.472606247245894D+03 0.451738891902518D+03 -.456830701983219D+02 -.397076261666052D+02
 0.351231101800646D+03 -.437586031329997D+02 -.626813941287917D+02 0.342811193449128D+03
 0.519675423368041D+03 -.407980288769518D+03 0.108364464327114D+03 -.303103567282522D+03
 0.000000000000000D+00 -.000000000000000D+00 0.000000000000000D+00 0.000000000000000D+00
 0.671756386207290D+03 0.000000000000000D+00 0.000000000000000D+00 0.671756386207290D+03
 0.671756386207290D+03 -.000000000000000D+00 -.000000000000000D+00 -.671756386207290D+03
 0.471564599339545D+03 0.450604402943090D+03 -.453817363060786D+02 -.405504797556412D+02
 0.350685844997261D+03 -.446020066647415D+02 -.624573760219257D+02 0.342184597934181D+03
 0.369168304727698D+03 -.277013035845936D+03 0.103078328799293D+03 -.221187416728180D+03
 0.152094023350076D+03 -.128989360432413D+03 0.476078352871149D+01 -.804467014503596D+02
0.288488359627D-03 0.000000000000D+00 0.000000000000D+00 0.462152789127D-05 0.000000000000D+00  6 1 -1 25 2 -2 21 0 0.85195525D-01 0.12536610D+00 0.23498560D+06 0.23498560D+06 0.23498560D+06 0.10924885D+01  1  2  2  4  6  5       -2 0.794424813450D-03 0.100000000000D+01
0.614958482073D-04 0.000000000000D+00 -.110787126170D-05 0.462152789127D-05 0.000000000000D+00  6 1 -1 25 2 -2 21 2 0.85195525D-01 0.12536610D+00 0.23498560D+06 0.23498560D+06 0.23498560D+06 0.10924885D+01  1  2  3  4  6  5       -2 0.202117554079D-03 0.100000000000D+01
-.196557123545D-03 0.000000000000D+00 0.000000000000D+00 0.462152789127D-05 0.000000000000D+00  6 1 -1 25 2 -2 21 2 0.85195525D-01 0.12536610D+00 0.23498560D+06 0.23498560D+06 0.23498560D+06 0.10924885D+01  1  2 15  4  6  5       -2 -.646021580413D-03 0.100000000000D+01
0.428696538377D-07 0.000000000000D+00 0.000000000000D+00 0.462152789127D-05 0.000000000000D+00  6 1 -1 25 2 -2 21 2 0.85195525D-01 0.12536610D+00 0.23581351D+06 0.23581351D+06 0.23581351D+06 0.10923729D+01  1  2 12  4  6  5       -2 0.140845955110D-06 0.100000000000D+01
0.581641100811D-02 0.000000000000D+00 0.000000000000D+00 0.462152789127D-05 0.000000000000D+00  6 1 -1 25 2 -2 21 2 0.85195525D-01 0.12536610D+00 0.23581351D+06 0.23581351D+06 0.23581351D+06 0.10923729D+01  1  2 12  4  6  5       -2 0.191095073184D-01 0.100000000000D+01
-.636594660607D-02 0.000000000000D+00 0.000000000000D+00 0.462152789127D-05 0.000000000000D+00  6 1 -1 25 2 -2 21 2 0.85195525D-01 0.12536610D+00 0.23498560D+06 0.23498560D+06 0.23498560D+06 0.10924885D+01  1  2  4  4  6  5       -2 -.209228686964D-01 0.100000000000D+01
-.586387842753D-02 0.000000000000D+00 0.000000000000D+00 0.462152789127D-05 0.000000000000D+00  6 1 -1 25 2 -2 21 2 0.85195525D-01 0.12536610D+00 0.23498560D+06 0.23498560D+06 0.23498560D+06 0.10924885D+01  1  2  5  4  6  5       -2 -.192727281555D-01 0.100000000000D+01
0.781686798481D-02 0.000000000000D+00 -.000000000000D+00 0.462152789127D-05 0.000000000000D+00  6 1 -1 25 2 -2 21 2 0.85195525D-01 0.12536610D+00 0.23498560D+06 0.23498560D+06 0.23498560D+06 0.10924885D+01  1  2  6  4  6  5       -2 0.256915919319D-01 0.100000000000D+01
  </mgrwgt>
  </event>
  <event>
  5     66 0.18148205E-05 0.59440925E+02 0.75467711E-02 0.94221063E-01
        1 -1    0    0  502    0 0.00000000E+00 0.00000000E+00 0.36716464E+04 0.36716464E+04 0.32000000E+00 0.0000E+00 0.9000E+01
       -1 -1    0    0    0  501 0.00000000E+00 0.00000000E+00 -.28156097E+03 0.28156115E+03 0.32000000E+00 0.0000E+00 0.9000E+01
       25  1    1    2    0    0 -.29973815E+03 -.39279866E+03 0.30079095E+03 0.59180566E+03 0.12500000E+03 0.0000E+00 0.9000E+01
        2  1    1    2  502    0 0.32278630E+03 0.33800857E+03 0.32009599E+04 0.32349011E+04 0.32000000E+00 0.0000E+00 0.9000E+01
       -2  1    1    2    0  501 -.23048154E+02 0.54790096E+02 -.11166544E+03 0.12650077E+03 0.32000000E+00 0.0000E+00 0.9000E+01
#aMCatNLO 1  0  0  2  5 0.35539546D+02 0.00000000D+00  -5  6  0 0.00000000D+00 0.00000000D+00 0.00000000D+00 0.00000000D+00 0.00000000D+00
  <mgrwgt>
 0.4943569429D-02    7    4    0
 0.101675597129985D+04 0.000000000000000D+00 0.000000000000000D+00 0.101675597129985D+04
 0.101675597129985D+04 0.000000000000000D+00 0.000000000000000D+00 -.101675597129985D+04
 0.649034854832181D+03 -.299737984991787D+03 -.392798942153173D+03 -.401854916833727D+03
 0.952395069153974D+03 0.322786108551322D+03 0.338008363133241D+03 0.829828803023301D+03
 0.432082018613551D+03 -.230481235595349D+02 0.547905790199316D+02 -.427973886189574D+03
 0.000000000000000D+00 0.000000000000000D+00 -.000000000000000D+00 -.000000000000000D+00
 0.105327763176493D+04 0.000000000000000D+00 0.000000000000000D+00 0.105327763176493D+04
 0.144769344461254D+04 0.000000000000000D+00 0.000000000000000D+00 -.144769344461254D+04
 0.610166541662337D+03 -.301559226046779D+03 -.322882126428210D+03 -.401854916833727D+03
 0.995004892579811D+03 0.319969494171229D+03 0.446137217378785D+03 0.829828803023301D+03
 0.440926461254544D+03 -.243107959877249D+02 0.103264137882867D+03 -.427973886189574D+03
 0.454873180880782D+03 0.590052786327527D+01 -.226519228833442D+03 -.394415812847606D+03
 0.101675597129985D+04 0.000000000000000D+00 0.000000000000000D+00 0.101675597129985D+04
 0.101675597129985D+04 0.000000000000000D+00 0.000000000000000D+00 -.101675597129985D+04
 0.649034854832181D+03 -.299737984991787D+03 -.392798942153173D+03 -.401854916833727D+03
 0.952395069153974D+03 0.322786108551322D+03 0.338008363133241D+03 0.829828803023301D+03
 0.000000000000000D+00 0.000000000000000D+00 -.000000000000000D+00 -.000000000000000D+00
 0.432082018613551D+03 -.230481235595349D+02 0.547905790199316D+02 -.427973886189574D+03
 0.105327763176493D+04 0.000000000000000D+00 0.000000000000000D+00 0.105327763176493D+04
 0.144769344461254D+04 0.000000000000000D+00 0.000000000000000D+00 -.144769344461254D+04
 0.610166541662337D+03 -.301559226046779D+03 -.322882126428210D+03 -.401854916833727D+03
 0.995004892579811D+03 0.319969494171229D+03 0.446137217378785D+03 0.829828803023301D+03
 0.454873180880782D+03 0.590052786327527D+01 -.226519228833442D+03 -.394415812847606D+03
 0.440926461254544D+03 -.243107959877249D+02 0.103264137882867D+03 -.427973886189574D+03
0.182867343572D-01 0.000000000000D+00 0.000000000000D+00 0.554187825750D-04 0.000000000000D+00  6 1 -1 25 2 -2 21 0 0.56486869D+00 0.43317088D-01 0.26857404D+06 0.26857404D+06 0.26857404D+06 0.10881254D+01  1  2  2  2  6  2       -1 0.211232141349D-02 0.100000000000D+01
0.473398490556D-02 0.000000000000D+00 -.702258749393D-04 0.554187825750D-04 0.000000000000D+00  6 1 -1 25 2 -2 21 2 0.56486869D+00 0.43317088D-01 0.26857404D+06 0.26857404D+06 0.26857404D+06 0.10881254D+01  1  2  3  2  6  2       -1 0.647453489655D-03 0.100000000000D+01
-.115152251052D-01 0.000000000000D+00 0.000000000000D+00 0.554187825750D-04 0.000000000000D+00  6 1 -1 25 2 -2 21 2 0.56486869D+00 0.43317088D-01 0.26857404D+06 0.26857404D+06 0.26857404D+06 0.10881254D+01  1  2 15  2  6  2       -1 -.157490419325D-02 0.100000000000D+01
-.107653821877D-02 0.000000000000D+00 0.000000000000D+00 0.554187825750D-04 0.000000000000D+00  6 1 -1 25 2 -2 21 2 0.56486869D+00 0.43317088D-01 0.26857404D+06 0.26857404D+06 0.26857404D+06 0.10881254D+01  1  2  4  2  6  2       -1 -.147235033569D-03 0.100000000000D+01
-.800505491594D-01 0.000000000000D+00 -.149079855000D-01 0.554187825750D-04 0.000000000000D+00  6 1 -1 25 2 -2 21 2 0.56486869D+00 0.63962904D-01 0.26857404D+06 0.26857404D+06 0.26857404D+06 0.10881254D+01  1  2  5  2  6  2       -1 -.534471163040D-02 0.100000000000D+01
0.807170028858D-01 0.000000000000D+00 0.138431520428D-01 0.554187825750D-04 0.000000000000D+00  6 1 -1 25 2 -2 21 2 0.56486869D+00 0.43317088D-01 0.26857404D+06 0.26857404D+06 0.26857404D+06 0.10881254D+01  1  2  6  2  6  2       -1 0.110394321561D-01 0.100000000000D+01
-.324758309261D-02 0.000000000000D+00 -.696265636791D-03 0.554187825750D-04 0.000000000000D+00  6 1 21 25 2 1 -2 2 0.56486869D+00 0.63962904D-01 0.26857404D+06 0.26857404D+06 0.26857404D+06 0.10881254D+01  3  4  5  6  5  2       -1 -.178878677324D-02 0.100000000000D+01
  </mgrwgt>
  </event>
  <event>
  5     66 0.18148205E-05 0.10408756E+03 0.75467711E-02 0.94877760E-01
        1 -1    0    0  502    0 0.00000000E+00 0.00000000E+00 0.19409709E+04 0.19409709E+04 0.32000000E+00 0.0000E+00 0.9000E+01
       -1 -1    0    0    0  501 0.00000000E+00 0.00000000E+00 -.32957754E+03 0.32957770E+03 0.32000000E+00 0.0000E+00 0.9000E+01
       25  1    1    2    0    0 -.40162225E+03 0.25030543E+03 0.52332374E+03 0.71655144E+03 0.12500000E+03 0.0000E+00 0.9000E+01
        2  1    1    2  502    0 0.34991586E+03 -.15998935E+03 0.12795047E+04 0.13361026E+04 0.32000000E+00 0.0000E+00 0.9000E+01
       -2  1    1    2    0  501 0.51706382E+02 -.90316075E+02 -.19143511E+03 0.21789458E+03 0.32000000E+00 0.0000E+00 0.9000E+01
#aMCatNLO 1  0  0  5  2 0.13782059D+02 0.00000000D+00  -5  6  0 0.00000000D+00 0.00000000D+00 0.00000000D+00 0.00000000D+00 0.00000000D+00
  <mgrwgt>
 0.1077264467D-01    8    2    0
 0.799812869073147D+03 0.000000000000000D+00 0.000000000000000D+00 0.799812869073147D+03
 0.799812869073147D+03 -.000000000000000D+00 -.000000000000000D+00 -.799812869073147D+03
 0.489903637774232D+03 -.401599634591106D+03 0.250305370850682D+03 0.211075608259060D+02
 0.607523603103910D+03 0.349883470108144D+03 -.159974539359860D+03 0.470185742478482D+03
 0.502198497268152D+03 0.517161644829621D+02 -.903308314908218D+02 -.491293303304388D+03
 0.000000000000000D+00 0.000000000000000D+00 -.000000000000000D+00 0.000000000000000D+00
 0.799812869073147D+03 0.000000000000000D+00 0.000000000000000D+00 0.799812869073147D+03
 0.799812869073147D+03 -.000000000000000D+00 -.000000000000000D+00 -.799812869073147D+03
 0.489805354085310D+03 -.401553213423178D+03 0.250224288606094D+03 0.206665689394676D+02
 0.607160211453595D+03 0.349941024996181D+03 -.160075068487352D+03 0.469638982459682D+03
 0.425956351870933D+03 0.377405095856170D+02 -.645528699587006D+02 -.419341620418850D+03
 0.767038207364572D+02 0.138716788413799D+02 -.255963501600411D+02 -.709639309802997D+02
0.116153842821D-03 0.000000000000D+00 0.000000000000D+00 0.117601847979D-04 0.000000000000D+00  6 1 -1 25 2 -2 21 0 0.29861092D+00 0.50704251D-01 0.23924686D+06 0.23924686D+06 0.23924686D+06 0.10918984D+01  1  2  2  4  6  5       -2 0.189050738824D-03 0.100000000000D+01
0.214645879402D-04 0.000000000000D+00 -.446061340441D-06 0.117601847979D-04 0.000000000000D+00  6 1 -1 25 2 -2 21 2 0.29861092D+00 0.50704251D-01 0.23924686D+06 0.23924686D+06 0.23924686D+06 0.10918984D+01  1  2  3  4  6  5       -2 0.416516146382D-04 0.100000000000D+01
-.853257196275D-04 0.000000000000D+00 0.000000000000D+00 0.117601847979D-04 0.000000000000D+00  6 1 -1 25 2 -2 21 2 0.29861092D+00 0.50704251D-01 0.23924686D+06 0.23924686D+06 0.23924686D+06 0.10918984D+01  1  2 15  4  6  5       -2 -.165572896277D-03 0.100000000000D+01
0.972720509638D-08 0.000000000000D+00 0.000000000000D+00 0.117601847979D-04 0.000000000000D+00  6 1 -1 25 2 -2 21 2 0.29861092D+00 0.50704251D-01 0.23915703D+06 0.23915703D+06 0.23915703D+06 0.10919108D+01  1  2 12  4  6  5       -2 0.188762874483D-07 0.100000000000D+01
0.645658725212D-02 0.000000000000D+00 0.000000000000D+00 0.117601847979D-04 0.000000000000D+00  6 1 -1 25 2 -2 21 2 0.29861092D+00 0.50704251D-01 0.23915703D+06 0.23915703D+06 0.23915703D+06 0.10919108D+01  1  2 12  4  6  5       -2 0.125294363281D-01 0.100000000000D+01
-.236573521763D-02 0.000000000000D+00 0.000000000000D+00 0.117601847979D-04 0.000000000000D+00  6 1 -1 25 2 -2 21 2 0.29861092D+00 0.50704251D-01 0.23924686D+06 0.23924686D+06 0.23924686D+06 0.10918984D+01  1  2  4  4  6  5       -2 -.459066309102D-02 0.100000000000D+01
-.868733359552D-02 0.000000000000D+00 0.000000000000D+00 0.117601847979D-04 0.000000000000D+00  6 1 -1 25 2 -2 21 2 0.29861092D+00 0.50704251D-01 0.23924686D+06 0.23924686D+06 0.23924686D+06 0.10918984D+01  1  2  5  4  6  5       -2 -.168576015604D-01 0.100000000000D+01
0.101141570431D-01 0.000000000000D+00 -.000000000000D+00 0.117601847979D-04 0.000000000000D+00  6 1 -1 25 2 -2 21 2 0.29861092D+00 0.50704251D-01 0.23924686D+06 0.23924686D+06 0.23924686D+06 0.10918984D+01  1  2  6  4  6  5       -2 0.196263246573D-01 0.100000000000D+01
  </mgrwgt>
  </event>
  <event>
  5     66 0.18148205E-05 0.15837631E+02 0.75467711E-02 0.91032209E-01
        1 -1    0    0  502    0 0.00000000E+00 0.00000000E+00 0.21196340E+04 0.21196340E+04 0.32000000E+00 0.0000E+00 0.9000E+01
       -1 -1    0    0    0  501 0.00000000E+00 0.00000000E+00 -.67114097E+03 0.67114105E+03 0.32000000E+00 0.0000E+00 0.9000E+01
       25  1    1    2    0    0 0.51303789E+03 0.74463122E+02 0.40358396E+03 0.66877323E+03 0.12500000E+03 0.0000E+00 0.9000E+01
        2  1    1    2  502    0 -.49735265E+03 -.72284001E+02 0.15434477E+04 0.16232115E+04 0.32000000E+00 0.0000E+00 0.9000E+01
       -2  1    1    2    0  501 -.15685235E+02 -.21791214E+01 -.49853871E+03 0.49879026E+03 0.32000000E+00 0.0000E+00 0.9000E+01
#aMCatNLO 1  0  0  1  4 0.10209479D+02 0.00000000D+00  -5  6  0 0.00000000D+00 0.00000000D+00 0.00000000D+00 0.00000000D+00 0.00000000D+00
  <mgrwgt>
 0.1200256925D-01    7    2    0
 0.119271678635705D+04 0.000000000000000D+00 0.000000000000000D+00 0.119271678635705D+04
 0.119271678635705D+04 0.000000000000000D+00 0.000000000000000D+00 -.119271678635705D+04
 0.537337442175271D+03 0.513014983980310D+03 0.744597831250577D+02 0.661656532659873D+02
 0.961766966070187D+03 -.497328017426626D+03 -.722804206511347D+02 0.820022000251730D+03
 0.886329164468646D+03 -.156869665536842D+02 -.217936247392304D+01 -.886187653517717D+03
 0.000000000000000D+00 0.000000000000000D+00 -.000000000000000D+00 0.000000000000000D+00
 0.140962963523936D+04 0.000000000000000D+00 0.000000000000000D+00 0.140962963523936D+04
 0.125833315248956D+04 0.000000000000000D+00 0.000000000000000D+00 -.125833315248956D+04
 0.508961954586077D+03 0.476814079092322D+03 0.108109719837331D+03 0.661656532659873D+02
 0.995900221304144D+03 -.565061329585495D+03 -.932006994965502D+01 0.820022000251730D+03
 0.891240985602685D+03 -.771891026856965D+02 0.549889043115451D+02 -.886187653517717D+03
 0.271859626236015D+03 0.165436353178870D+03 -.153778554199222D+03 0.151296482749795D+03
0.129671820919D-01 0.000000000000D+00 0.000000000000D+00 0.410335572461D-03 0.000000000000D+00  6 1 -1 25 2 -2 21 0 0.32609754D+00 0.10325246D+00 0.27648610D+06 0.27648610D+06 0.27648610D+06 0.10871842D+01  1  2  2  1  6  1        1 0.382556693788D-02 0.100000000000D+01
0.126999895405D-01 0.000000000000D+00 -.497973935705D-04 0.410335572461D-03 0.000000000000D+00  6 1 -1 25 2 -2 21 2 0.32609754D+00 0.10325246D+00 0.27648610D+06 0.27648610D+06 0.27648610D+06 0.10871842D+01  1  2  3  1  6  1        1 0.442853271702D-02 0.100000000000D+01
-.846208039033D-02 0.000000000000D+00 0.000000000000D+00 0.410335572461D-03 0.000000000000D+00  6 1 -1 25 2 -2 21 2 0.32609754D+00 0.10325246D+00 0.27648610D+06 0.27648610D+06 0.27648610D+06 0.10871842D+01  1  2 15  1  6  1        1 -.295075832490D-02 0.100000000000D+01
-.224047701196D-02 0.000000000000D+00 0.000000000000D+00 0.410335572461D-03 0.000000000000D+00  6 1 -1 25 2 -2 21 2 0.32609754D+00 0.10325246D+00 0.27648610D+06 0.27648610D+06 0.27648610D+06 0.10871842D+01  1  2  4  1  6  1        1 -.781262513452D-03 0.100000000000D+01
-.399616172009D-01 0.000000000000D+00 -.129705854962D-01 0.410335572461D-03 0.000000000000D+00  6 1 -1 25 2 -2 21 2 0.39270509D+00 0.10325246D+00 0.27648610D+06 0.27648610D+06 0.27648610D+06 0.10871842D+01  1  2  5  1  6  1        1 -.706424506214D-02 0.100000000000D+01
0.418679694607D-01 0.000000000000D+00 0.127497321635D-01 0.410335572461D-03 0.000000000000D+00  6 1 -1 25 2 -2 21 2 0.32609754D+00 0.10325246D+00 0.27648610D+06 0.27648610D+06 0.27648610D+06 0.10871842D+01  1  2  6  1  6  1        1 0.145995137997D-01 0.100000000000D+01
-.949051864436D-03 0.000000000000D+00 -.350745066345D-03 0.410335572461D-03 0.000000000000D+00  6 21 -1 25 2 -2 -1 2 0.39270509D+00 0.10325246D+00 0.27648610D+06 0.27648610D+06 0.27648610D+06 0.10871842D+01  1  2  5  5  6  1        1 -.547783058227D-04 0.100000000000D+01
  </mgrwgt>
  </event>
  <event>
  5     66 -.18148205E-05 0.56784562E+02 0.75467711E-02 0.89728026E-01
        1 -1    0    0  502    0 0.00000000E+00 0.00000000E+00 0.34043167E+04 0.34043167E+04 0.32000000E+00 0.0000E+00 0.9000E+01
       -1 -1    0    0    0  501 0.00000000E+00 0.00000000E+00 -.13300047E+04 0.13300047E+04 0.32000000E+00 0.0000E+00 0.9000E+01
       25  1    1    2    0    0 0.67209159E+03 -.37818046E+03 0.35830175E+03 0.85949562E+03 0.12500000E+03 0.0000E+00 0.9000E+01
        2  1    1    2  502    0 -.63687834E+01 0.56428385E+02 0.26684575E+04 0.26690617E+04 0.32000000E+00 0.0000E+00 0.9000E+01
       -2  1    1    2    0  501 -.66572281E+03 0.32175208E+03 -.95244724E+03 0.12057641E+04 0.32000000E+00 0.0000E+00 0.9000E+01
#aMCatNLO 1  0  0  4  1 0.53759482D+00 0.00000000D+00  -5  6  0 0.00000000D+00 0.00000000D+00 0.00000000D+00 0.00000000D+00 0.00000000D+00
  <mgrwgt>
 -.2021678622D-01    9    2    0
 0.212785272969098D+04 0.000000000000000D+00 0.000000000000000D+00 0.212785272969098D+04
 0.212785272969098D+04 -.000000000000000D+00 -.000000000000000D+00 -.212785272969098D+04
 0.781562394547049D+03 0.672136400681347D+03 -.378201105220381D+03 -.202819984055419D+02
 0.166851791074357D+04 -.636854880642406D+01 0.564263065969827D+02 0.166755135812424D+04
 0.180562515409133D+04 -.665767851874924D+03 0.321774798623399D+03 -.164726935971870D+04
 0.000000000000000D+00 0.000000000000000D+00 0.000000000000000D+00 0.000000000000000D+00
 0.212785272969098D+04 0.000000000000000D+00 0.000000000000000D+00 0.212785272969098D+04
 0.212785272969098D+04 -.000000000000000D+00 -.000000000000000D+00 -.212785272969098D+04
 0.781562370478432D+03 0.672136398665940D+03 -.378201087363565D+03 -.202814706879012D+02
 0.161664538570020D+04 -.650667417089457D+01 0.550913449466684D+02 0.161569332176901D+04
 0.180562405090990D+04 -.665767856531071D+03 0.321774839877567D+03 -.164726814054545D+04
 0.518736522934171D+02 0.138132036025117D+00 0.133490253933051D+01 0.518562894643403D+02
0.602631128794D-03 0.000000000000D+00 0.000000000000D+00 0.505581911290D-03 0.000000000000D+00  6 1 -1 25 2 -2 21 0 0.52374103D+00 0.20461611D+00 0.62215294D+06 0.62215294D+06 0.62215294D+06 0.10618654D+01  1  2  2  3  6  4        2 0.263062181108D-05 0.100000000000D+01
0.360487057300D-03 0.000000000000D+00 -.231426221099D-05 0.505581911290D-03 0.000000000000D+00  6 1 -1 25 2 -2 21 2 0.52374103D+00 0.20461611D+00 0.62215294D+06 0.62215294D+06 0.62215294D+06 0.10618654D+01  1  2  3  3  6  4        2 0.177433451184D-05 0.100000000000D+01
-.397970902372D-03 0.000000000000D+00 0.000000000000D+00 0.505581911290D-03 0.000000000000D+00  6 1 -1 25 2 -2 21 2 0.52374103D+00 0.20461611D+00 0.62215294D+06 0.62215294D+06 0.62215294D+06 0.10618654D+01  1  2 15  3  6  4        2 -.195883178740D-05 0.100000000000D+01
0.648659829630D-18 0.000000000000D+00 0.000000000000D+00 0.505581911290D-03 0.000000000000D+00  6 1 -1 25 2 -2 21 2 0.52374103D+00 0.20461611D+00 0.62217797D+06 0.62217797D+06 0.62217797D+06 0.10618642D+01  1  2 12  3  6  4        2 0.319271113041D-20 0.100000000000D+01
0.218453782893D-08 0.000000000000D+00 0.000000000000D+00 0.505581911290D-03 0.000000000000D+00  6 1 -1 25 2 -2 21 2 0.52374103D+00 0.20461611D+00 0.62217797D+06 0.62217797D+06 0.62217797D+06 0.10618642D+01  1  2 12  3  6  4        2 0.107523202804D-10 0.100000000000D+01
-.161204712192D+03 0.000000000000D+00 0.000000000000D+00 0.505581911290D-03 0.000000000000D+00  6 1 -1 25 2 -2 21 2 0.52374103D+00 0.20461611D+00 0.62215294D+06 0.62215294D+06 0.62215294D+06 0.10618654D+01  1  2  4  3  6  4        2 -.793457292077D+00 0.100000000000D+01
-.931265566782D+02 0.000000000000D+00 0.000000000000D+00 0.505581911290D-03 0.000000000000D+00  6 1 -1 25 2 -2 21 2 0.52374103D+00 0.20461611D+00 0.62215294D+06 0.62215294D+06 0.62215294D+06 0.10618654D+01  1  2  5  3  6  4        2 -.458373359422D+00 0.100000000000D+01
0.960668136212D+02 0.000000000000D+00 -.000000000000D+00 0.505581911290D-03 0.000000000000D+00  6 1 -1 25 2 -2 21 2 0.52374103D+00 0.20461611D+00 0.62215294D+06 0.62215294D+06 0.62215294D+06 0.10618654D+01  1  2  6  3  6  4        2 0.472845444514D+00 0.100000000000D+01
0.154157701004D+03 0.000000000000D+00 0.000000000000D+00 0.505581911290D-03 0.171214791830D-01  6 1 -1 25 2 -2 21 2 0.52374103D+00 0.20461611D+00 0.62217797D+06 0.62217797D+06 0.62217797D+06 0.10618642D+01  1  2 11  3  6  4        2 0.758765974632D+00 0.100000000000D+01
  </mgrwgt>
  </event>
  <event>
  6     66 0.18148205E-05 0.19207434E+03 0.75467711E-02 0.93675247E-01
        1 -1    0    0  502    0 0.00000000E+00 0.00000000E+00 0.23653627E+03 0.23653649E+03 0.32000000E+00 0.0000E+00 0.9000E+01
       -1 -1    0    0    0  503 0.00000000E+00 0.00000000E+00 -.24659441E+04 0.24659442E+04 0.32000000E+00 0.0000E+00 0.9000E+01
       25  1    1    2    0    0 0.27269052E+03 0.36941896E+03 -.35553472E+03 0.59402056E+03 0.12500000E+03 0.0000E+00 0.9000E+01
        2  1    1    2  502    0 0.56193566E+02 -.22272343E+03 -.40412174E+02 0.23323098E+03 0.32000000E+00 0.0000E+00 0.9000E+01
       -2  1    1    2    0  501 -.25722084E+03 -.16898015E+03 -.16195897E+04 0.16485715E+04 0.32000000E+00 0.0000E+00 0.9000E+01
       21  1    1    2  501  503 -.71663247E+02 0.22284630E+02 -.21387122E+03 0.22665764E+03 0.75000000E+00 0.0000E+00 0.9000E+01
#aMCatNLO 2  0  0  2  1 0.75048156D+02 0.00000000D+00  -5  6  0 0.00000000D+00 0.00000000D+00 0.00000000D+00 0.00000000D+00 0.00000000D+00
  <mgrwgt>
 0.2041616828D-04    2    2    0
 0.717927464828565D+03 0.000000000000000D+00 0.000000000000000D+00 0.717927464828565D+03
 0.717927464828565D+03 0.000000000000000D+00 0.000000000000000D+00 -.717927464828565D+03
 0.517385017938995D+03 0.246785227556236D+03 0.377449788047922D+03 0.220660294911273D+03
 0.339013543457876D+03 0.391150913087888D+02 -.217319259225051D+03 0.257240222068100D+03
 0.579456368260258D+03 -.285900318865025D+03 -.160130528822872D+03 -.477900516979374D+03
 0.000000000000000D+00 -.000000000000000D+00 0.000000000000000D+00 -.000000000000000D+00
 0.738876633547528D+03 0.000000000000000D+00 0.000000000000000D+00 0.738876633547528D+03
 0.789418852295429D+03 0.000000000000000D+00 0.000000000000000D+00 -.789418852295429D+03
 0.524550189006565D+03 0.272768887845221D+03 0.369369826678052D+03 0.220660294911273D+03
 0.344801343096117D+03 0.561679882589330D+02 -.222622082117172D+03 0.257240222068100D+03
 0.568463339400602D+03 -.257273629293483D+03 -.169032374956666D+03 -.477900516979374D+03
 0.904806143396733D+02 -.716632468106714D+02 0.222846303957850D+02 -.505422187479017D+02
-.240033725744D-06 0.000000000000D+00 0.000000000000D+00 0.456415347628D-06 0.000000000000D+00  6 1 -1 25 2 -2 21 2 0.35358379D-01 0.38406278D+00 0.29613218D+06 0.29613218D+06 0.29613218D+06 0.10849691D+01  1  2 13  2  6  2       -1 -.148343188260D-07 0.100000000000D+01
0.313018895624D-03 0.000000000000D+00 0.000000000000D+00 0.456415347628D-06 0.194784724515D-09  6 1 -1 25 2 -2 21 2 0.36390139D-01 0.37937525D+00 0.29613218D+06 0.29613218D+06 0.29613218D+06 0.10849691D+01  1  2  1  2  6  2       -1 0.204310025972D-04 0.100000000000D+01
  </mgrwgt>
  </event>
  <event>
  5     66 0.18148205E-05 0.11026931E+03 0.75467711E-02 0.93360354E-01
        1 -1    0    0  502    0 0.00000000E+00 0.00000000E+00 0.11845119E+04 0.11845119E+04 0.32000000E+00 0.0000E+00 0.9000E+01
       -1 -1    0    0    0  501 0.00000000E+00 0.00000000E+00 -.11660779E+04 0.11660779E+04 0.32000000E+00 0.0000E+00 0.9000E+01
       25  1    1    2    0    0 0.48435803E+03 -.15996141E+03 0.24463922E+03 0.57936491E+03 0.12500000E+03 0.0000E+00 0.9000E+01
        2  1    1    2  502    0 -.47381047E+03 0.50211124E+02 0.69544272E+03 0.84300545E+03 0.32000000E+00 0.0000E+00 0.9000E+01
       -2  1    1    2    0  501 -.10547558E+02 0.10975029E+03 -.92164794E+03 0.92821948E+03 0.32000000E+00 0.0000E+00 0.9000E+01
#aMCatNLO 1  0  0  5  2 0.13367200D+02 0.00000000D+00  -5  6  0 0.00000000D+00 0.00000000D+00 0.00000000D+00 0.00000000D+00 0.00000000D+00
  <mgrwgt>
 0.3883973747D-02    8    2    0
 0.117525877951497D+04 0.000000000000000D+00 0.000000000000000D+00 0.117525877951497D+04
 0.117525877951497D+04 -.000000000000000D+00 -.000000000000000D+00 -.117525877951497D+04
 0.577482560962519D+03 0.484315368903698D+03 -.159969881489125D+03 0.240227743351718D+03
 0.837498189442682D+03 -.473765725368743D+03 0.502063823653534D+02 0.688787756827445D+03
 0.935536808624732D+03 -.105496435349552D+02 0.109763499123772D+03 -.929015500179163D+03
 0.000000000000000D+00 0.000000000000000D+00 0.000000000000000D+00 -.000000000000000D+00
 0.117525877951497D+04 0.000000000000000D+00 0.000000000000000D+00 0.117525877951497D+04
 0.117525877951497D+04 -.000000000000000D+00 -.000000000000000D+00 -.117525877951497D+04
 0.577373345139286D+03 0.484312661451125D+03 -.159941711867358D+03 0.239989321513264D+03
 0.837218529873398D+03 -.473769651586782D+03 0.502472326015618D+02 0.688442008897335D+03
 0.832783259291647D+03 -.215020619199933D+02 0.103292946812172D+03 -.826072748266437D+03
 0.103142424725601D+03 0.109590520556508D+02 0.640153245362423D+01 -.102358582144162D+03
0.221636180961D-03 0.000000000000D+00 0.000000000000D+00 0.327969220377D-04 0.000000000000D+00  6 1 -1 25 2 -2 21 0 0.18223260D+00 0.17939660D+00 0.30904280D+06 0.30904280D+06 0.30904280D+06 0.10835989D+01  1  2  2  4  6  5       -2 0.616164381181D-04 0.100000000000D+01
0.541540511085D-04 0.000000000000D+00 -.851141293038D-06 0.327969220377D-04 0.000000000000D+00  6 1 -1 25 2 -2 21 2 0.18223260D+00 0.17939660D+00 0.30904280D+06 0.30904280D+06 0.30904280D+06 0.10835989D+01  1  2  3  4  6  5       -2 0.176776297072D-04 0.100000000000D+01
-.144985075295D-03 0.000000000000D+00 0.000000000000D+00 0.327969220377D-04 0.000000000000D+00  6 1 -1 25 2 -2 21 2 0.18223260D+00 0.17939660D+00 0.30904280D+06 0.30904280D+06 0.30904280D+06 0.10835989D+01  1  2 15  4  6  5       -2 -.473278069079D-04 0.100000000000D+01
0.308278165292D-08 0.000000000000D+00 0.000000000000D+00 0.327969220377D-04 0.000000000000D+00  6 1 -1 25 2 -2 21 2 0.18223260D+00 0.17939660D+00 0.31346514D+06 0.31346514D+06 0.31346514D+06 0.10831439D+01  1  2 12  4  6  5       -2 0.100438469892D-08 0.100000000000D+01
0.287488480477D-01 0.000000000000D+00 0.000000000000D+00 0.327969220377D-04 0.000000000000D+00  6 1 -1 25 2 -2 21 2 0.18223260D+00 0.17939660D+00 0.31346514D+06 0.31346514D+06 0.31346514D+06 0.10831439D+01  1  2 12  4  6  5       -2 0.936650932231D-02 0.100000000000D+01
-.227076474386D-01 0.000000000000D+00 0.000000000000D+00 0.327969220377D-04 0.000000000000D+00  6 1 -1 25 2 -2 21 2 0.18223260D+00 0.17939660D+00 0.30904280D+06 0.30904280D+06 0.30904280D+06 0.10835989D+01  1  2  4  4  6  5       -2 -.741250884698D-02 0.100000000000D+01
-.500009435356D-01 0.000000000000D+00 0.000000000000D+00 0.327969220377D-04 0.000000000000D+00  6 1 -1 25 2 -2 21 2 0.18223260D+00 0.17939660D+00 0.30904280D+06 0.30904280D+06 0.30904280D+06 0.10835989D+01  1  2  5  4  6  5       -2 -.163219213843D-01 0.100000000000D+01
0.558153381117D-01 0.000000000000D+00 -.000000000000D+00 0.327969220377D-04 0.000000000000D+00  6 1 -1 25 2 -2 21 2 0.18223260D+00 0.17939660D+00 0.30904280D+06 0.30904280D+06 0.30904280D+06 0.10835989D+01  1  2  6  4  6  5       -2 0.182199273910D-01 0.100000000000D+01
  </mgrwgt>
  </event>
  <event>
  5     66 0.18148205E-05 0.14486767E+02 0.75467711E-02 0.93174970E-01
        1 -1    0    0  502    0 0.00000000E+00 0.00000000E+00 0.66416452E+03 0.66416460E+03 0.32000000E+00 0.0000E+00 0.9000E+01
       -1 -1    0    0    0  501 -.00000000E+00 -.00000000E+00 -.92559439E+03 0.92559444E+03 0.32000000E+00 0.0000E+00 0.9000E+01
       25  1    1    2    0    0 -.20336253E+03 -.48420307E+03 -.23483571E+03 0.58871193E+03 0.12500000E+03 0.0000E+00 0.9000E+01
        2  1    1    2  502    0 0.64266383E+01 0.12988237E+02 0.36013888E+03 0.36043045E+03 0.32000000E+00 0.0000E+00 0.9000E+01
       -2  1    1    2    0  501 0.19693589E+03 0.47121483E+03 -.38673303E+03 0.64061666E+03 0.32000000E+00 0.0000E+00 0.9000E+01
#aMCatNLO 1  0  0  4  1 0.41195347D+02 0.00000000D+00  -5  6  0 0.00000000D+00 0.00000000D+00 0.00000000D+00 0.00000000D+00 0.00000000D+00
  <mgrwgt>
 0.4437436343D-03    6    2    0
 0.784058070202472D+03 0.000000000000000D+00 0.000000000000000D+00 0.784058070202472D+03
 0.784058070202472D+03 -.000000000000000D+00 -.000000000000000D+00 -.784058070202472D+03
 0.557754778210181D+03 -.203398965805551D+03 -.484290489199453D+03 -.139846256283374D+03
 0.425314548750916D+03 0.642465550022936D+01 0.129842300442685D+02 0.425067758070471D+03
 0.585046813443847D+03 0.196974310305322D+03 0.471306259155185D+03 -.285221501787097D+03
 0.000000000000000D+00 0.000000000000000D+00 0.000000000000000D+00 0.000000000000000D+00
 0.784058070202472D+03 0.000000000000000D+00 0.000000000000000D+00 0.784058070202472D+03
 0.784058070202472D+03 -.000000000000000D+00 -.000000000000000D+00 -.784058070202472D+03
 0.556183879632298D+03 -.203313585270737D+03 -.484117935121605D+03 -.134197313314340D+03
 0.330348412072302D+03 -.455755307669269D+01 -.369656901999432D+02 0.328242044559631D+03
 0.582360281554574D+03 0.197063789058408D+03 0.471487095732974D+03 -.279301412691649D+03
 0.992235671457702D+02 0.108073492890222D+02 0.495965295885745D+02 0.852566814463588D+02
0.130355829199D-03 0.000000000000D+00 0.000000000000D+00 0.213943032168D-04 0.000000000000D+00  6 1 -1 25 2 -2 21 0 0.10217917D+00 0.14239915D+00 0.28368230D+06 0.28368230D+06 0.28368230D+06 0.10863535D+01  1  2  2  3  6  4        2 0.194848897587D-03 0.100000000000D+01
0.114234930051D-03 0.000000000000D+00 -.500600707603D-06 0.213943032168D-04 0.000000000000D+00  6 1 -1 25 2 -2 21 2 0.10217917D+00 0.14239915D+00 0.28368230D+06 0.28368230D+06 0.28368230D+06 0.10863535D+01  1  2  3  3  6  4        2 0.201515622424D-03 0.100000000000D+01
-.940021765055D-04 0.000000000000D+00 0.000000000000D+00 0.213943032168D-04 0.000000000000D+00  6 1 -1 25 2 -2 21 2 0.10217917D+00 0.14239915D+00 0.28368230D+06 0.28368230D+06 0.28368230D+06 0.10863535D+01  1  2 15  3  6  4        2 -.165824123140D-03 0.100000000000D+01
-.394249817751D-04 0.000000000000D+00 0.000000000000D+00 0.213943032168D-04 0.000000000000D+00  6 1 -1 25 2 -2 21 2 0.10217917D+00 0.14239915D+00 0.28368230D+06 0.28368230D+06 0.28368230D+06 0.10863535D+01  1  2  4  3  6  4        2 -.695474644920D-04 0.100000000000D+01
-.617491708682D-03 0.000000000000D+00 0.000000000000D+00 0.213943032168D-04 0.000000000000D+00  6 1 -1 25 2 -2 21 2 0.10217917D+00 0.14239915D+00 0.28368230D+06 0.28368230D+06 0.28368230D+06 0.10863535D+01  1  2  5  3  6  4        2 -.108928351390D-02 0.100000000000D+01
0.777777081459D-03 0.000000000000D+00 -.000000000000D+00 0.213943032168D-04 0.000000000000D+00  6 1 -1 25 2 -2 21 2 0.10217917D+00 0.14239915D+00 0.28368230D+06 0.28368230D+06 0.28368230D+06 0.10863535D+01  1  2  6  3  6  4        2 0.137203421587D-02 0.100000000000D+01
  </mgrwgt>
  </event>
  <event>
  5     66 0.18148205E-05 0.10238567E+03 0.75467711E-02 0.95407086E-01
        1 -1    0    0  502    0 0.00000000E+00 0.00000000E+00 0.16060579E+04 0.16060580E+04 0.32000000E+00 0.0000E+00 0.9000E+01
       -1 -1    0    0    0  501 0.00000000E+00 0.00000000E+00 -.69904523E+03 0.69904530E+03 0.32000000E+00 0.0000E+00 0.9000E+01
       25  1    1    2    0    0 0.44920248E+03 0.29651408E+02 -.42118683E+03 0.62903531E+03 0.12500000E+03 0.0000E+00 0.9000E+01
        2  1    1    2  502    0 -.34815194E+03 -.13123955E+02 0.14646242E+04 0.15054920E+04 0.32000000E+00 0.0000E+00 0.9000E+01
       -2  1    1    2    0  501 -.10105054E+03 -.16527453E+02 -.13642465E+03 0.17057595E+03 0.32000000E+00 0.0000E+00 0.9000E+01
#aMCatNLO 1  0  0  1  2 0.19845625D+02 0.00000000D+00  -5  6  0 0.00000000D+00 0.00000000D+00 0.00000000D+00 0.00000000D+00 0.00000000D+00
  <mgrwgt>
 0.8460556233D-03    9    2    0
 0.105957881200502D+04 0.000000000000000D+00 0.000000000000000D+00 0.105957881200502D+04
 0.105957881200502D+04 0.000000000000000D+00 0.000000000000000D+00 -.105957881200502D+04
 0.864518621791999D+03 0.449196529413668D+03 0.296505248865554D+02 -.727400008084826D+03
 0.101072757861815D+04 -.348153471045796D+03 -.131240124879034D+02 0.948781934416065D+03
 0.243911423599892D+03 -.101043058367871D+03 -.165265123986520D+02 -.221381926331239D+03
 0.000000000000000D+00 -.000000000000000D+00 -.000000000000000D+00 0.000000000000000D+00
 0.108247653886232D+04 0.000000000000000D+00 0.000000000000000D+00 0.108247653886232D+04
 0.106393410359656D+04 0.000000000000000D+00 0.000000000000000D+00 -.106393410359656D+04
 0.868770890777153D+03 0.457277876009487D+03 0.303979113127013D+02 -.727400008084826D+03
 0.100751402433465D+04 -.338743554358890D+03 -.122537560375000D+02 0.948781934416065D+03
 0.242965632661538D+03 -.987730266087979D+02 -.163165732624529D+02 -.221381926331239D+03
 0.271600946855375D+02 -.197612950417991D+02 -.182758201274841D+01 0.185424352657630D+02
0.311492090456D-03 0.000000000000D+00 0.000000000000D+00 0.921903899093D-05 0.000000000000D+00  6 1 -1 25 2 -2 21 0 0.24708585D+00 0.10754543D+00 0.21067763D+06 0.21067763D+06 0.21067763D+06 0.10960947D+01  1  2  2  1  6  1        1 0.187210890204D-03 0.100000000000D+01
0.192501894715D-04 0.000000000000D+00 -.119621164510D-05 0.921903899093D-05 0.000000000000D+00  6 1 -1 25 2 -2 21 2 0.24708585D+00 0.10754543D+00 0.21067763D+06 0.21067763D+06 0.21067763D+06 0.10960947D+01  1  2  3  1  6  1        1 0.139000152784D-04 0.100000000000D+01
-.215461095533D-03 0.000000000000D+00 0.000000000000D+00 0.921903899093D-05 0.000000000000D+00  6 1 -1 25 2 -2 21 2 0.24708585D+00 0.10754543D+00 0.21067763D+06 0.21067763D+06 0.21067763D+06 0.10960947D+01  1  2 15  1  6  1        1 -.155578339852D-03 0.100000000000D+01
0.854383541399D-09 0.000000000000D+00 0.000000000000D+00 0.921903899093D-05 0.000000000000D+00  6 1 -1 25 2 -2 21 2 0.25292657D+00 0.10754543D+00 0.21806607D+06 0.21806607D+06 0.21806607D+06 0.10949524D+01  1  2 12  1  6  1        1 0.579508087015D-09 0.100000000000D+01
-.603176581510D-04 0.000000000000D+00 0.000000000000D+00 0.921903899093D-05 0.000000000000D+00  6 1 -1 25 2 -2 21 2 0.24708585D+00 0.10754543D+00 0.21067763D+06 0.21067763D+06 0.21067763D+06 0.10960947D+01  1  2  4  1  6  1        1 -.435536684509D-04 0.100000000000D+01
-.209597741959D-01 0.000000000000D+00 -.253462176506D-02 0.921903899093D-05 0.000000000000D+00  6 1 -1 25 2 -2 21 2 0.25287776D+00 0.10754543D+00 0.21067763D+06 0.21067763D+06 0.21067763D+06 0.10960947D+01  1  2  5  1  6  1        1 -.142880102205D-01 0.100000000000D+01
0.210135415566D-01 0.000000000000D+00 0.253394154122D-02 0.921903899093D-05 0.000000000000D+00  6 1 -1 25 2 -2 21 2 0.24708585D+00 0.10754543D+00 0.21067763D+06 0.21067763D+06 0.21067763D+06 0.10960947D+01  1  2  6  1  6  1        1 0.151732817552D-01 0.100000000000D+01
0.355999753711D-10 0.000000000000D+00 0.000000000000D+00 0.921903899093D-05 0.000000000000D+00  6 21 -1 25 2 -2 -1 2 0.25292657D+00 0.10754543D+00 0.21806607D+06 0.21806607D+06 0.21806607D+06 0.10949524D+01  1  2 12  5  6  1        1 0.166503073812D-10 0.100000000000D+01
-.874791854393D-04 0.000000000000D+00 -.106386106327D-04 0.921903899093D-05 0.000000000000D+00  6 21 -1 25 2 -2 -1 2 0.25287776D+00 0.10754543D+00 0.21067763D+06 0.21067763D+06 0.21067763D+06 0.10960947D+01  1  2  5  5  6  1        1 -.411954046943D-04 0.100000000000D+01
  </mgrwgt>
  </event>
  <event>
  5     66 0.18148205E-05 0.27661428E+03 0.75467711E-02 0.88037025E-01
        1 -1    0    0  502    0 0.00000000E+00 0.00000000E+00 0.31160324E+04 0.31160324E+04 0.32000000E+00 0.0000E+00 0.9000E+01
       -1 -1    0    0    0  501 0.00000000E+00 0.00000000E+00 -.84385360E+03 0.84385366E+03 0.32000000E+00 0.0000E+00 0.9000E+01
       25  1    1    2    0    0 0.89692612E+03 -.23716040E+03 -.21454942E+03 0.96040511E+03 0.12500000E+03 0.0000E+00 0.9000E+01
        2  1    1    2  502    0 -.62175557E+03 0.20920677E+03 0.26139695E+04 0.26950295E+04 0.32000000E+00 0.0000E+00 0.9000E+01
       -2  1    1    2    0  501 -.27517054E+03 0.27953628E+02 -.12724129E+03 0.30445144E+03 0.32000000E+00 0.0000E+00 0.9000E+01
#aMCatNLO 1  0  0  1  2 0.19845625D+02 0.00000000D+00  -5  6  0 0.00000000D+00 0.00000000D+00 0.00000000D+00 0.00000000D+00 0.00000000D+00
  <mgrwgt>
 0.2939457587D-05    1    2    0
 0.162156569624845D+04 0.000000000000000D+00 0.000000000000000D+00 0.162156569624845D+04
 0.162156569624845D+04 0.000000000000000D+00 0.000000000000000D+00 -.162156569624845D+04
 0.132294614723030D+04 0.896944570143387D+03 -.237162399693962D+03 -.934775878343672D+03
 0.145924934381049D+04 -.621746860114622D+03 0.209203836400223D+03 0.130348503795954D+04
 0.460935901456119D+03 -.275197710028765D+03 0.279585632937390D+02 -.368709159615866D+03
 0.000000000000000D+00 -.000000000000000D+00 -.000000000000000D+00 0.000000000000000D+00
 0.198122813888660D+04 0.000000000000000D+00 0.000000000000000D+00 0.198122813888660D+04
 0.190409481857033D+04 0.000000000000000D+00 0.000000000000000D+00 -.190409481857033D+04
 0.137581545024990D+04 0.100152511312544D+04 -.196127048678100D+02 -.934775878343672D+03
 0.146820961596007D+04 -.508303995114496D+03 0.445189039357315D+03 0.130348503795954D+04
 0.451413491155002D+03 -.239842977340371D+03 0.101503900578327D+03 -.368709159615866D+03
 0.589884400091957D+03 -.253378140670569D+03 -.527080235067831D+03 0.771333203162766D+02
0.892499962089D-04 0.000000000000D+00 0.000000000000D+00 0.123593588669D-06 0.000000000000D+00  6 1 -1 25 2 -2 21 2 0.47938960D+00 0.12982364D+00 0.87307143D+06 0.87307143D+06 0.87307143D+06 0.10518108D+01  1  2 14  1  6  1        1 0.293945758750D-05 0.100000000000D+01
  </mgrwgt>
  </event>
  <event>
  5     66 0.18148205E-05 0.35556325E+02 0.75467711E-02 0.90790329E-01
        1 -1    0    0  502    0 0.00000000E+00 0.00000000E+00 0.25142463E+04 0.25142463E+04 0.32000000E+00 0.0000E+00 0.9000E+01
       -1 -1    0    0    0  501 0.00000000E+00 0.00000000E+00 -.10918176E+04 0.10918177E+04 0.32000000E+00 0.0000E+00 0.9000E+01
       25  1    1    2    0    0 0.50516566E+03 0.24977023E+03 -.40913000E+03 0.70752376E+03 0.12500000E+03 0.0000E+00 0.9000E+01
        2  1    1    2  502    0 -.48188570E+03 -.27664716E+03 0.23317731E+04 0.23970635E+04 0.32000000E+00 0.0000E+00 0.9000E+01
       -2  1    1    2    0  501 -.23279957E+02 0.26876930E+02 -.50021444E+03 0.50147673E+03 0.32000000E+00 0.0000E+00 0.9000E+01
#aMCatNLO 1  0  0  2  1 0.32881730D+02 0.00000000D+00  -5  6  0 0.00000000D+00 0.00000000D+00 0.00000000D+00 0.00000000D+00 0.00000000D+00
  <mgrwgt>
 0.1280381788D-01    7    4    0
 0.165683389556440D+04 0.000000000000000D+00 0.000000000000000D+00 0.165683389556440D+04
 0.165683389556440D+04 0.000000000000000D+00 0.000000000000000D+00 -.165683389556440D+04
 0.945600598006139D+03 0.505165876290760D+03 0.249771555405333D+03 -.748970692678530D+03
 0.160764224344787D+04 -.481886510580897D+03 -.276647629947127D+03 0.150856390739104D+04
 0.760424949674794D+03 -.232793657098632D+02 0.268760745417947D+02 -.759593214712508D+03
 0.000000000000000D+00 0.000000000000000D+00 -.000000000000000D+00 -.000000000000000D+00
 0.171793998063962D+04 0.000000000000000D+00 0.000000000000000D+00 0.171793998063962D+04
 0.180428066330478D+04 0.000000000000000D+00 0.000000000000000D+00 -.180428066330478D+04
 0.919425005804136D+03 0.453392894879184D+03 0.251386407109955D+03 -.748970692678530D+03
 0.163641979017602D+04 -.571941447640032D+03 -.273838725289628D+03 0.150856390739104D+04
 0.762939025996459D+03 -.655678440204891D+02 0.281950949926921D+02 -.759593214712508D+03
 0.203436821967784D+03 0.184116396781338D+03 -.574277681301941D+01 -.863406826651530D+02
 0.165683389556440D+04 0.000000000000000D+00 0.000000000000000D+00 0.165683389556440D+04
 0.165683389556440D+04 0.000000000000000D+00 0.000000000000000D+00 -.165683389556440D+04
 0.945600598006139D+03 0.505165876290760D+03 0.249771555405333D+03 -.748970692678530D+03
 0.160764224344787D+04 -.481886510580897D+03 -.276647629947127D+03 0.150856390739104D+04
 0.000000000000000D+00 0.000000000000000D+00 -.000000000000000D+00 -.000000000000000D+00
 0.760424949674794D+03 -.232793657098632D+02 0.268760745417947D+02 -.759593214712508D+03
 0.171793998063962D+04 0.000000000000000D+00 0.000000000000000D+00 0.171793998063962D+04
 0.180428066330478D+04 0.000000000000000D+00 0.000000000000000D+00 -.180428066330478D+04
 0.919425005804136D+03 0.453392894879184D+03 0.251386407109955D+03 -.748970692678530D+03
 0.163641979017602D+04 -.571941447640032D+03 -.273838725289628D+03 0.150856390739104D+04
 0.203436821967784D+03 0.184116396781338D+03 -.574277681301941D+01 -.863406826651530D+02
 0.762939025996459D+03 -.655678440204891D+02 0.281950949926921D+02 -.759593214712508D+03
0.104807823569D+00 0.000000000000D+00 0.000000000000D+00 0.685045326197D-03 0.000000000000D+00  6 1 -1 25 2 -2 21 0 0.38680713D+00 0.16797195D+00 0.34131622D+06 0.34131622D+06 0.34131622D+06 0.10804303D+01  1  2  2  2  6  2       -1 0.450120863529D-02 0.100000000000D+01
0.487389228238D-01 0.000000000000D+00 -.402489639039D-03 0.685045326197D-03 0.000000000000D+00  6 1 -1 25 2 -2 21 2 0.38680713D+00 0.16797195D+00 0.34131622D+06 0.34131622D+06 0.34131622D+06 0.10804303D+01  1  2  3  2  6  2       -1 0.244345794618D-02 0.100000000000D+01
-.709530216129D-01 0.000000000000D+00 0.000000000000D+00 0.685045326197D-03 0.000000000000D+00  6 1 -1 25 2 -2 21 2 0.38680713D+00 0.16797195D+00 0.34131622D+06 0.34131622D+06 0.34131622D+06 0.10804303D+01  1  2 15  2  6  2       -1 -.355713081909D-02 0.100000000000D+01
-.142804197375D-02 0.000000000000D+00 0.000000000000D+00 0.685045326197D-03 0.000000000000D+00  6 1 -1 25 2 -2 21 2 0.38680713D+00 0.16797195D+00 0.34131622D+06 0.34131622D+06 0.34131622D+06 0.10804303D+01  1  2  4  2  6  2       -1 -.715928934429D-04 0.100000000000D+01
-.729726732609D+00 0.000000000000D+00 -.218431671203D+00 0.685045326197D-03 0.000000000000D+00  6 1 -1 25 2 -2 21 2 0.38680713D+00 0.18716841D+00 0.34131622D+06 0.34131622D+06 0.34131622D+06 0.10804303D+01  1  2  5  2  6  2       -1 -.255226085674D-01 0.100000000000D+01
0.750239437541D+00 0.000000000000D+00 0.217158986782D+00 0.685045326197D-03 0.000000000000D+00  6 1 -1 25 2 -2 21 2 0.38680713D+00 0.16797195D+00 0.34131622D+06 0.34131622D+06 0.34131622D+06 0.10804303D+01  1  2  6  2  6  2       -1 0.376122082515D-01 0.100000000000D+01
-.118493819011D-01 0.000000000000D+00 -.379670941239D-02 0.685045326197D-03 0.000000000000D+00  6 1 21 25 2 1 -2 2 0.38680713D+00 0.18716841D+00 0.34131622D+06 0.34131622D+06 0.34131622D+06 0.10804303D+01  3  4  5  6  5  2       -1 -.260172467648D-02 0.100000000000D+01
  </mgrwgt>
  </event>
  <event>
  5     66 0.18148205E-05 0.40861729E+02 0.75467711E-02 0.87570762E-01
        1 -1    0    0  502    0 0.00000000E+00 0.00000000E+00 0.24374419E+04 0.24374420E+04 0.32000000E+00 0.0000E+00 0.9000E+01
       -1 -1    0    0    0  501 0.00000000E+00 0.00000000E+00 -.10434825E+04 0.10434825E+04 0.32000000E+00 0.0000E+00 0.9000E+01
       25  1    1    2    0    0 0.21245734E+03 0.53495024E+03 0.28651003E+03 0.65499838E+03 0.12500000E+03 0.0000E+00 0.9000E+01
        2  1    1    2  502    0 -.24126054E+02 0.32981717E+02 0.18622699E+04 0.18627182E+04 0.32000000E+00 0.0000E+00 0.9000E+01
       -2  1    1    2    0  501 -.18833128E+03 -.56793196E+03 -.75482045E+03 0.96320787E+03 0.32000000E+00 0.0000E+00 0.9000E+01
#aMCatNLO 1  0  0  1  1 0.32466210D+00 0.00000000D+00  -5  6  0 0.00000000D+00 0.00000000D+00 0.00000000D+00 0.00000000D+00 0.00000000D+00
  <mgrwgt>
 0.3200242365D-01    7    2    0
 0.159481284886503D+04 0.000000000000000D+00 0.000000000000000D+00 0.159481284886503D+04
 0.159481284886503D+04 0.000000000000000D+00 0.000000000000000D+00 -.159481284886503D+04
 0.589658548732649D+03 0.212473275922241D+03 0.535001280524575D+03 0.264752894116348D+02
 0.121890285136240D+04 -.241247597668926D+02 0.329799469199486D+02 0.121821774741904D+04
 0.138106429763501D+04 -.188348516155348D+03 -.567981227444523D+03 -.124469303683068D+04
 0.000000000000000D+00 -.000000000000000D+00 -.000000000000000D+00 0.000000000000000D+00
 0.240565473403167D+04 0.000000000000000D+00 0.000000000000000D+00 0.240565473403167D+04
 0.174867495737509D+04 0.000000000000000D+00 0.000000000000000D+00 -.174867495737509D+04
 0.705299254193682D+03 0.213158743144455D+03 0.660063972079836D+03 0.264752894116348D+02
 0.124825953544014D+04 -.228188029672113D+02 0.271250234878499D+03 0.121821774741904D+04
 0.129612850714461D+04 -.186931382785384D+03 -.309426904499402D+03 -.124469303683068D+04
 0.904642394628325D+03 -.340855739185971D+01 -.621887302458933D+03 0.656979776656579D+03
0.280284718785D+00 0.000000000000D+00 0.000000000000D+00 0.560388841357D-03 0.000000000000D+00  6 1 -1 25 2 -2 21 0 0.37499107D+00 0.16053577D+00 0.37719353D+06 0.37719353D+06 0.37719353D+06 0.10772704D+01  1  2  2  1  6  1        1 0.155028141787D-01 0.100000000000D+01
0.173696593693D+00 0.000000000000D+00 -.107636712080D-02 0.560388841357D-03 0.000000000000D+00  6 1 -1 25 2 -2 21 2 0.37499107D+00 0.16053577D+00 0.37719353D+06 0.37719353D+06 0.37719353D+06 0.10772704D+01  1  2  3  1  6  1        1 0.111494102387D-01 0.100000000000D+01
-.174695482906D+00 0.000000000000D+00 0.000000000000D+00 0.560388841357D-03 0.000000000000D+00  6 1 -1 25 2 -2 21 2 0.37499107D+00 0.16053577D+00 0.37719353D+06 0.37719353D+06 0.37719353D+06 0.10772704D+01  1  2 15  1  6  1        1 -.112135279360D-01 0.100000000000D+01
-.241191189816D-02 0.000000000000D+00 0.000000000000D+00 0.560388841357D-03 0.000000000000D+00  6 1 -1 25 2 -2 21 2 0.37499107D+00 0.16053577D+00 0.37719353D+06 0.37719353D+06 0.37719353D+06 0.10772704D+01  1  2  4  1  6  1        1 -.154818207084D-03 0.100000000000D+01
-.241188181494D+00 0.000000000000D+00 -.135705641482D+00 0.560388841357D-03 0.000000000000D+00  6 1 -1 25 2 -2 21 2 0.57640153D+00 0.16053577D+00 0.37719353D+06 0.37719353D+06 0.37719353D+06 0.10772704D+01  1  2  5  1  6  1        1 -.153712307479D-02 0.100000000000D+01
0.284475307215D+00 0.000000000000D+00 0.124063521238D+00 0.560388841357D-03 0.000000000000D+00  6 1 -1 25 2 -2 21 2 0.37499107D+00 0.16053577D+00 0.37719353D+06 0.37719353D+06 0.37719353D+06 0.10772704D+01  1  2  6  1  6  1        1 0.182601848170D-01 0.100000000000D+01
-.701375625233D-02 0.000000000000D+00 -.681360882603D-02 0.560388841357D-03 0.000000000000D+00  6 21 -1 25 2 -2 -1 2 0.57640153D+00 0.16053577D+00 0.37719353D+06 0.37719353D+06 0.37719353D+06 0.10772704D+01  1  2  5  5  6  1        1 -.451636382625D-05 0.100000000000D+01
  </mgrwgt>
  </event>
  <event>
  5     66 -.18148205E-05 0.24074560E+02 0.75467711E-02 0.95175643E-01
        1 -1    0    0  502    0 0.00000000E+00 0.00000000E+00 0.20629229E+04 0.20629229E+04 0.32000000E+00 0.0000E+00 0.9000E+01
       -1 -1    0    0    0  501 0.00000000E+00 0.00000000E+00 -.48964092E+03 0.48964102E+03 0.32000000E+00 0.0000E+00 0.9000E+01
       25  1    1    2    0    0 0.44698122E+03 -.13924354E+03 0.69662163E+03 0.84857980E+03 0.12500000E+03 0.0000E+00 0.9000E+01
        2  1    1    2  502    0 -.23472251E+02 0.53753312E+01 0.11709346E+04 0.11711822E+04 0.32000000E+00 0.0000E+00 0.9000E+01
       -2  1    1    2    0  501 -.42350897E+03 0.13386821E+03 -.29427420E+03 0.53280198E+03 0.32000000E+00 0.0000E+00 0.9000E+01
#aMCatNLO 1  0  0  4  1 0.15743632D+02 0.00000000D+00  -5  6  0 0.00000000D+00 0.00000000D+00 0.00000000D+00 0.00000000D+00 0.00000000D+00
  <mgrwgt>
 -.5604176002D-02    1    2    0
 0.100503315144579D+04 0.000000000000000D+00 0.000000000000000D+00 0.100503315144579D+04
 0.100503315144579D+04 -.000000000000000D+00 -.000000000000000D+00 -.100503315144579D+04
 0.532458787737931D+03 0.447039868066082D+03 -.139262430647190D+03 0.220564485829074D+03
 0.570654497970697D+03 -.234670624131279D+02 0.537414300981795D+01 0.570146447522737D+03
 0.906953017182960D+03 -.423572805652954D+03 0.133888287637372D+03 -.790710933351811D+03
 0.000000000000000D+00 0.000000000000000D+00 -.000000000000000D+00 0.000000000000000D+00
 0.100503315144579D+04 0.000000000000000D+00 0.000000000000000D+00 0.100503315144579D+04
 0.100503315144579D+04 -.000000000000000D+00 -.000000000000000D+00 -.100503315144579D+04
 0.583158387340345D+03 0.442495612761839D+03 -.138221760219498D+03 0.330969911644155D+03
 0.458859701403882D+03 -.229607586663040D+02 0.138245867878128D+03 0.436936046977759D+03
 0.770609358940704D+03 -.430406038321108D+03 0.135453151996256D+03 -.624693420709720D+03
 0.197438855206657D+03 0.108711842255729D+02 -.135477259654886D+03 -.143212537912194D+03
-.734045020205D-02 0.000000000000D+00 0.000000000000D+00 0.303850994054D-03 0.000000000000D+00  6 1 -1 25 2 -2 21 2 0.31737277D+00 0.75329382D-01 0.22701965D+06 0.22701965D+06 0.22701965D+06 0.10936235D+01  1  2 14  3  6  4        2 -.560417600204D-02 0.100000000000D+01
  </mgrwgt>
  </event>
  <event>
  6     66 0.18148205E-05 0.19380140E+03 0.75467711E-02 0.94818787E-01
        1 -1    0    0  502    0 0.00000000E+00 0.00000000E+00 0.13661405E+04 0.13661405E+04 0.32000000E+00 0.0000E+00 0.9000E+01
       -1 -1    0    0    0  503 0.00000000E+00 0.00000000E+00 -.11589785E+04 0.11589785E+04 0.32000000E+00 0.0000E+00 0.9000E+01
       25  1    1    2    0    0 0.42726616E+03 -.14730171E+03 0.13823040E+02 0.46911644E+03 0.12500000E+03 0.0000E+00 0.9000E+01
        2  1    1    2  502    0 -.11001571E+03 0.16279877E+03 0.10838232E+04 0.11014898E+04 0.32000000E+00 0.0000E+00 0.9000E+01
       -2  1    1    2    0  501 -.31193284E+03 -.16090591E+02 -.73097689E+03 0.79491404E+03 0.32000000E+00 0.0000E+00 0.9000E+01
       21  1    1    2  501  503 -.53176106E+01 0.59352277E+00 -.15950733E+03 0.15959881E+03 0.75000000E+00 0.0000E+00 0.9000E+01
#aMCatNLO 2  0  0  2  5 0.53506310D+01 0.00000000D+00  -5  6  0 0.00000000D+00 0.00000000D+00 0.00000000D+00 0.00000000D+00 0.00000000D+00
  <mgrwgt>
 0.5181251554D-02    3    2    0
 0.116846169565905D+04 0.000000000000000D+00 0.000000000000000D+00 0.116846169565905D+04
 0.116846169565905D+04 0.000000000000000D+00 0.000000000000000D+00 -.116846169565905D+04
 0.471695679956197D+03 0.426221983979218D+03 -.147175042383436D+03 -.595494900195768D+02
 0.945159137381829D+03 -.112160647073941D+03 0.163030780788090D+03 0.924211419935906D+03
 0.920068573980069D+03 -.314061336905278D+03 -.158557384046538D+02 -.864661929916329D+03
 0.000000000000000D+00 -.000000000000000D+00 0.000000000000000D+00 -.000000000000000D+00
 0.116850312746668D+04 0.000000000000000D+00 0.000000000000000D+00 0.116850312746668D+04
 0.135500320305921D+04 0.000000000000000D+00 0.000000000000000D+00 -.135500320305921D+04
 0.472704152730106D+03 0.427296461648715D+03 -.147294969734826D+03 -.595494900195768D+02
 0.944864990108579D+03 -.110010298620338D+03 0.162790770593437D+03 0.924211419935906D+03
 0.919360373886552D+03 -.311968552407967D+03 -.160893236237029D+02 -.864661929916329D+03
 0.186576813800651D+03 -.531761062041032D+01 0.593522765092268D+00 -.186500075592532D+03
-.395260392416D-08 0.000000000000D+00 0.000000000000D+00 0.403153392472D-04 0.000000000000D+00  6 1 -1 25 2 -2 21 2 0.21016788D+00 0.17830673D+00 0.24164537D+06 0.24164537D+06 0.24164537D+06 0.10915714D+01  1  2 13  2  6  2       -1 -.101810510190D-08 0.100000000000D+01
-.888714022653D-01 0.000000000000D+00 0.000000000000D+00 0.403153392472D-04 0.000000000000D+00  6 1 -1 25 2 -2 21 2 0.21016788D+00 0.17842720D+00 0.24164537D+06 0.24164537D+06 0.24164537D+06 0.10915714D+01  1  2 13  2  6  2       -1 -.228399026386D-01 0.100000000000D+01
0.108790223339D+00 0.000000000000D+00 0.000000000000D+00 0.403153392472D-04 0.110276369551D-04  6 1 -1 25 2 -2 21 2 0.21017533D+00 0.17830427D+00 0.24164537D+06 0.24164537D+06 0.24164537D+06 0.10915714D+01  1  2  1  2  6  2       -1 0.280211552105D-01 0.100000000000D+01
  </mgrwgt>
  </event>
  <event>
  6     66 0.18148205E-05 0.13043474E+03 0.75467711E-02 0.93219636E-01
        1 -1    0    0  502    0 0.00000000E+00 0.00000000E+00 0.19651820E+04 0.19651821E+04 0.32000000E+00 0.0000E+00 0.9000E+01
       -1 -1    0    0    0  501 0.00000000E+00 0.00000000E+00 -.76400624E+03 0.76400631E+03 0.32000000E+00 0.0000E+00 0.9000E+01
       25  1    1    2    0    0 -.44799449E+03 -.30388070E+03 0.25179095E+03 0.60997231E+03 0.12500000E+03 0.0000E+00 0.9000E+01
        2  1    1    2  503    0 0.34531434E+03 0.12529526E+03 0.12251276E+04 0.12790147E+04 0.32000000E+00 0.0000E+00 0.9000E+01
       -2  1    1    2    0  501 0.52193408E+02 0.13438257E+03 -.54446460E+03 0.56322698E+03 0.32000000E+00 0.0000E+00 0.9000E+01
       21  1    1    2  502  503 0.50486733E+02 0.44202871E+02 0.26872186E+03 0.27697438E+03 0.75000000E+00 0.0000E+00 0.9000E+01
#aMCatNLO 2  0  0  4  1 0.24464491D+02 0.00000000D+00  -5  6  0 0.00000000D+00 0.00000000D+00 0.00000000D+00 0.00000000D+00 0.00000000D+00
  <mgrwgt>
 0.2181474120D-02    3    2    0
 0.122532096385017D+04 0.000000000000000D+00 0.000000000000000D+00 0.122532096385017D+04
 0.122532096385017D+04 -.000000000000000D+00 -.000000000000000D+00 -.122532096385017D+04
 0.556061686433723D+03 -.448134826738092D+03 -.303987151858257D+03 -.186168657147599D+02
 0.999616889837171D+03 0.396213731013304D+03 0.169674848408560D+03 0.901919648096097D+03
 0.894963351429452D+03 0.519210957247881D+02 0.134312303449696D+03 -.883302782381337D+03
 0.000000000000000D+00 0.000000000000000D+00 0.000000000000000D+00 0.000000000000000D+00
 0.122532096385017D+04 0.000000000000000D+00 0.000000000000000D+00 0.122532096385017D+04
 0.122532096385017D+04 -.000000000000000D+00 -.000000000000000D+00 -.122532096385017D+04
 0.555854527018500D+03 -.447949096023429D+03 -.303907614405644D+03 -.181940782955040D+02
 0.823704561966348D+03 0.345245189655343D+03 0.125256619380451D+03 0.737296238784249D+03
 0.894328507846597D+03 0.522199729708811D+02 0.134440294852957D+03 -.882622434277472D+03
 0.176754330868902D+03 0.504839333972057D+02 0.442107001722353D+02 0.163520273788728D+03
-.114298922996D-08 0.000000000000D+00 0.000000000000D+00 0.343537604139D-04 0.000000000000D+00  6 1 -1 25 2 -2 21 2 0.30233571D+00 0.11753943D+00 0.32157601D+06 0.32157601D+06 0.32157601D+06 0.10823274D+01  1  2 13  3  6  4        2 -.364835270993D-09 0.100000000000D+01
-.230488513662D-01 0.000000000000D+00 0.000000000000D+00 0.343537604139D-04 0.000000000000D+00  6 1 -1 25 2 -2 21 2 0.30233571D+00 0.11753943D+00 0.32157601D+06 0.32157601D+06 0.32157601D+06 0.10823274D+01  1  2 13  3  6  4        2 -.735705439199D-02 0.100000000000D+01
0.298831737010D-01 0.000000000000D+00 0.000000000000D+00 0.343537604139D-04 0.319029457220D-06  6 1 -1 25 2 -2 21 2 0.30233571D+00 0.11753943D+00 0.32157601D+06 0.32157601D+06 0.32157601D+06 0.10823274D+01  1  2  1  3  6  4        2 0.953852887637D-02 0.100000000000D+01
  </mgrwgt>
  </event>
  <event>
  5     66 0.18148205E-05 0.27130270E+02 0.75467711E-02 0.84794021E-01
        1 -1    0    0  502    0 0.00000000E+00 0.00000000E+00 0.19355006E+04 0.19355007E+04 0.32000000E+00 0.0000E+00 0.9000E+01
       -1 -1    0    0    0  501 0.00000000E+00 0.00000000E+00 -.27480922E+03 0.27480941E+03 0.32000000E+00 0.0000E+00 0.9000E+01
       25  1    1    2    0    0 -.48510343E+03 -.94314884E+02 0.64339580E+03 0.82085552E+03 0.12500000E+03 0.0000E+00 0.9000E+01
        2  1    1    2  502    0 0.85865361E+01 -.25749509E+02 0.87836288E+03 0.87878224E+03 0.32000000E+00 0.0000E+00 0.9000E+01
       -2  1    1    2    0  501 0.47651689E+03 0.12006439E+03 0.13893273E+03 0.51067231E+03 0.32000000E+00 0.0000E+00 0.9000E+01
#aMCatNLO 1  0  0  1  4 0.20836823D+01 0.00000000D+00  -5  6  0 0.00000000D+00 0.00000000D+00 0.00000000D+00 0.00000000D+00 0.00000000D+00
  <mgrwgt>
 0.4715715207D-02    3    2    0
 0.729310401242331D+03 0.000000000000000D+00 0.000000000000000D+00 0.729310401242331D+03
 0.729310401242331D+03 0.000000000000000D+00 0.000000000000000D+00 -.729310401242331D+03
 0.511455060387068D+03 -.485200139255064D+03 -.943468893823072D+02 0.405063961157736D+02
 0.331447888381964D+03 0.858237282966351D+01 -.257370239959027D+02 0.330335664416226D+03
 0.615717853715631D+03 0.476617766425401D+03 0.120083913378210D+03 -.370842060532000D+03
 0.000000000000000D+00 0.000000000000000D+00 -.000000000000000D+00 -.000000000000000D+00
 0.107463073816482D+04 0.000000000000000D+00 0.000000000000000D+00 0.107463073816482D+04
 0.323989743283399D+04 0.000000000000000D+00 0.000000000000000D+00 -.323989743283399D+04
 0.101849984864767D+04 -.100997704269309D+04 -.474834728604148D+01 0.405063961157736D+02
 0.412639776435368D+03 -.246640848667518D+03 0.178388811276738D+02 0.330335664416226D+03
 0.429359077029182D+03 0.118154760534076D+03 0.181286612111503D+03 -.370842060532000D+03
 0.245402946888659D+04 0.113846313082653D+04 -.194377145953135D+03 -.216526669466917D+04
0.254601236734D-02 0.000000000000D+00 0.000000000000D+00 0.201414837240D-04 0.000000000000D+00  6 1 -1 25 2 -2 21 0 0.29776934D+00 0.42278358D-01 0.26444864D+06 0.26444864D+06 0.26444864D+06 0.10886281D+01  1  2  2  1  6  1        1 0.575659102448D-02 0.100000000000D+01
0.134065916249D-02 0.000000000000D+00 -.977735787104D-05 0.201414837240D-04 0.000000000000D+00  6 1 -1 25 2 -2 21 2 0.29776934D+00 0.42278358D-01 0.26444864D+06 0.26444864D+06 0.26444864D+06 0.10886281D+01  1  2  3  1  6  1        1 0.359238075133D-02 0.100000000000D+01
-.172910899515D-02 0.000000000000D+00 0.000000000000D+00 0.201414837240D-04 0.000000000000D+00  6 1 -1 25 2 -2 21 2 0.29776934D+00 0.42278358D-01 0.26444864D+06 0.26444864D+06 0.26444864D+06 0.10886281D+01  1  2 15  1  6  1        1 -.463325656880D-02 0.100000000000D+01
  </mgrwgt>
  </event>
  <event>
  5     66 0.18148205E-05 0.43532552E+02 0.75467711E-02 0.92950507E-01
        1 -1    0    0  502    0 0.00000000E+00 0.00000000E+00 0.85150719E+03 0.85150725E+03 0.32000000E+00 0.0000E+00 0.9000E+01
       -1 -1    0    0    0  501 0.00000000E+00 0.00000000E+00 -.85618105E+03 0.85618111E+03 0.32000000E+00 0.0000E+00 0.9000E+01
       25  1    1    2    0    0 0.33920654E+03 -.33035670E+03 -.19511801E+03 0.52715526E+03 0.12500000E+03 0.0000E+00 0.9000E+01
        2  1    1    2  502    0 -.38209024E+03 0.32287786E+03 0.59289379E+03 0.77573592E+03 0.32000000E+00 0.0000E+00 0.9000E+01
       -2  1    1    2    0  501 0.42883697E+02 0.74788401E+01 -.40244964E+03 0.40479718E+03 0.32000000E+00 0.0000E+00 0.9000E+01
#aMCatNLO 1  0  0  2  5 0.60791502D+02 0.00000000D+00  -5  6  0 0.00000000D+00 0.00000000D+00 0.00000000D+00 0.00000000D+00 0.00000000D+00
  <mgrwgt>
 0.1282162661D-01    7    4    0
 0.853840981885569D+03 0.000000000000000D+00 0.000000000000000D+00 0.853840981885569D+03
 0.853840981885569D+03 0.000000000000000D+00 0.000000000000000D+00 -.853840981885569D+03
 0.526611281591660D+03 0.339202271348534D+03 -.330354928451172D+03 -.193654027222847D+03
 0.777355895570540D+03 -.382087488635145D+03 0.322875540527487D+03 0.595014894549579D+03
 0.403714786608937D+03 0.428852172866102D+02 0.747938792368581D+01 -.401360867326733D+03
 0.000000000000000D+00 -.000000000000000D+00 -.000000000000000D+00 -.000000000000000D+00
 0.863185965366898D+03 0.000000000000000D+00 0.000000000000000D+00 0.863185965366898D+03
 0.121783363512075D+04 0.000000000000000D+00 0.000000000000000D+00 -.121783363512075D+04
 0.520848846120081D+03 0.355830521843042D+03 -.302557891931281D+03 -.193654027222847D+03
 0.783854317689426D+03 -.357303543343229D+03 0.364306251029107D+03 0.595014894549579D+03
 0.406247875688751D+03 0.557432361109705D+02 0.289738210844232D+02 -.401360867326733D+03
 0.370068560989390D+03 -.542702146107835D+02 -.907221801822491D+02 -.354647669753851D+03
 0.853840981885569D+03 0.000000000000000D+00 0.000000000000000D+00 0.853840981885569D+03
 0.853840981885569D+03 0.000000000000000D+00 0.000000000000000D+00 -.853840981885569D+03
 0.526611281591660D+03 0.339202271348534D+03 -.330354928451172D+03 -.193654027222847D+03
 0.777355895570540D+03 -.382087488635145D+03 0.322875540527487D+03 0.595014894549579D+03
 0.000000000000000D+00 -.000000000000000D+00 -.000000000000000D+00 -.000000000000000D+00
 0.403714786608937D+03 0.428852172866102D+02 0.747938792368581D+01 -.401360867326733D+03
 0.863185965366898D+03 0.000000000000000D+00 0.000000000000000D+00 0.863185965366898D+03
 0.121783363512075D+04 0.000000000000000D+00 0.000000000000000D+00 -.121783363512075D+04
 0.520848846120081D+03 0.355830521843042D+03 -.302557891931281D+03 -.193654027222847D+03
 0.783854317689426D+03 -.357303543343229D+03 0.364306251029107D+03 0.595014894549579D+03
 0.370068560989390D+03 -.542702146107835D+02 -.907221801822491D+02 -.354647669753851D+03
 0.406247875688751D+03 0.557432361109705D+02 0.289738210844232D+02 -.401360867326733D+03
0.115294009174D-02 0.000000000000D+00 0.000000000000D+00 0.364080400614D-04 0.000000000000D+00  6 1 -1 25 2 -2 21 0 0.13100112D+00 0.13172017D+00 0.26702212D+06 0.26702212D+06 0.26702212D+06 0.10883135D+01  1  2  2  2  6  2       -1 0.144564007153D-02 0.100000000000D+01
0.431856922670D-03 0.000000000000D+00 -.442759352838D-05 0.364080400614D-04 0.000000000000D+00  6 1 -1 25 2 -2 21 2 0.13100112D+00 0.13172017D+00 0.26702212D+06 0.26702212D+06 0.26702212D+06 0.10883135D+01  1  2  3  2  6  2       -1 0.641359239569D-03 0.100000000000D+01
-.756381262947D-03 0.000000000000D+00 0.000000000000D+00 0.364080400614D-04 0.000000000000D+00  6 1 -1 25 2 -2 21 2 0.13100112D+00 0.13172017D+00 0.26702212D+06 0.26702212D+06 0.26702212D+06 0.10883135D+01  1  2 15  2  6  2       -1 -.112331674256D-02 0.100000000000D+01
-.382617999558D-03 0.000000000000D+00 0.000000000000D+00 0.364080400614D-04 0.000000000000D+00  6 1 -1 25 2 -2 21 2 0.13100112D+00 0.13172017D+00 0.26702212D+06 0.26702212D+06 0.26702212D+06 0.10883135D+01  1  2  4  2  6  2       -1 -.568233543008D-03 0.100000000000D+01
-.157408686688D-01 0.000000000000D+00 -.902865585433D-03 0.364080400614D-04 0.000000000000D+00  6 1 -1 25 2 -2 21 2 0.13100112D+00 0.18861293D+00 0.26702212D+06 0.26702212D+06 0.26702212D+06 0.10883135D+01  1  2  5  2  6  2       -1 -.792683101383D-02 0.100000000000D+01
0.151343504563D-01 0.000000000000D+00 0.847648200212D-03 0.364080400614D-04 0.000000000000D+00  6 1 -1 25 2 -2 21 2 0.13100112D+00 0.13172017D+00 0.26702212D+06 0.26702212D+06 0.26702212D+06 0.10883135D+01  1  2  6  2  6  2       -1 0.224763225746D-01 0.100000000000D+01
-.666099670658D-03 0.000000000000D+00 -.397256966610D-04 0.364080400614D-04 0.000000000000D+00  6 1 21 25 2 1 -2 2 0.13100112D+00 0.18861293D+00 0.26702212D+06 0.26702212D+06 0.26702212D+06 0.10883135D+01  3  4  5  6  5  2       -1 -.212331397833D-02 0.100000000000D+01
  </mgrwgt>
  </event>
  <event>
  5     66 -.18148205E-05 0.21492938E+02 0.75467711E-02 0.94953049E-01
        1 -1    0    0  502    0 0.00000000E+00 0.00000000E+00 0.17193859E+04 0.17193859E+04 0.32000000E+00 0.0000E+00 0.9000E+01
       -1 -1    0    0    0  501 0.00000000E+00 0.00000000E+00 -.12031590E+04 0.12031591E+04 0.32000000E+00 0.0000E+00 0.9000E+01
       25  1    1    2    0    0 -.35028290E+03 -.30707616E+03 0.88384043E+03 0.10068728E+04 0.12500000E+03 0.0000E+00 0.9000E+01
        2  1    1    2  502    0 -.15212945E+02 0.15191591E+02 0.72595361E+03 0.72627196E+03 0.32000000E+00 0.0000E+00 0.9000E+01
       -2  1    1    2    0  501 0.36549585E+03 0.29188457E+03 -.10935672E+04 0.11894003E+04 0.32000000E+00 0.0000E+00 0.9000E+01
#aMCatNLO 1  0  0  2  5 0.60791502D+02 0.00000000D+00  -5  6  0 0.00000000D+00 0.00000000D+00 0.00000000D+00 0.00000000D+00 0.00000000D+00
  <mgrwgt>
 -.3575740818D-02    1    2    0
 0.143829580192129D+04 0.000000000000000D+00 0.000000000000000D+00 0.143829580192129D+04
 0.143829580192129D+04 0.000000000000000D+00 0.000000000000000D+00 -.143829580192129D+04
 0.864514642037215D+03 -.350326654380127D+03 -.307103593621732D+03 0.717439324481296D+03
 0.607417349960025D+03 -.152084726156583D+02 0.151871249567737D+02 0.607036976327394D+03
 0.140465961184535D+04 0.365535126995785D+03 0.291916468664958D+03 -.132447630080869D+04
 0.000000000000000D+00 0.000000000000000D+00 -.000000000000000D+00 0.000000000000000D+00
 0.147563611848342D+04 0.000000000000000D+00 0.000000000000000D+00 0.147563611848342D+04
 0.147076246277521D+04 0.000000000000000D+00 0.000000000000000D+00 -.147076246277521D+04
 0.866343379392109D+03 -.366042127792998D+03 -.293632129347480D+03 0.717439324481296D+03
 0.608103768083837D+03 -.262449005472958D+02 0.246476636685532D+02 0.607036976327394D+03
 0.140296736973736D+04 0.340043037733671D+03 0.313768547870497D+03 -.132447630080869D+04
 0.689840640453167D+02 0.522439906066222D+02 -.447840821915702D+02 0.487365570821327D+01
-.270879579959D-01 0.000000000000D+00 0.000000000000D+00 0.107118861647D-02 0.000000000000D+00  6 1 -1 25 2 -2 21 2 0.26452092D+00 0.18510140D+00 0.23602199D+06 0.23602199D+06 0.23602199D+06 0.10923439D+01  1  2 14  2  6  2       -1 -.357574081838D-02 0.100000000000D+01
  </mgrwgt>
  </event>
  <event>
  5     66 0.18148205E-05 0.64218731E+02 0.75467711E-02 0.92809605E-01
        1 -1    0    0  502    0 0.00000000E+00 0.00000000E+00 0.73948991E+03 0.73948998E+03 0.32000000E+00 0.0000E+00 0.9000E+01
       -1 -1    0    0    0  501 -.00000000E+00 -.00000000E+00 -.12560659E+04 0.12560660E+04 0.32000000E+00 0.0000E+00 0.9000E+01
       25  1    1    2    0    0 -.56665708E+03 -.11532228E+03 0.33614853E+02 0.59258284E+03 0.12500000E+03 0.0000E+00 0.9000E+01
        2  1    1    2  502    0 0.61835411E+02 -.17411318E+02 0.35354002E+03 0.35932912E+03 0.32000000E+00 0.0000E+00 0.9000E+01
       -2  1    1    2    0  501 0.50482167E+03 0.13273360E+03 -.90373089E+03 0.10436440E+04 0.32000000E+00 0.0000E+00 0.9000E+01
#aMCatNLO 1  0  0  4  5 0.17379258D+02 0.00000000D+00  -5  6  0 0.00000000D+00 0.00000000D+00 0.00000000D+00 0.00000000D+00 0.00000000D+00
  <mgrwgt>
 0.6611239676D-03    7    2    0
 0.963767702535035D+03 0.000000000000000D+00 0.000000000000000D+00 0.963767702535035D+03
 0.963767702535035D+03 -.000000000000000D+00 -.000000000000000D+00 -.963767702535035D+03
 0.622611095642957D+03 -.566721807089914D+03 -.115347433929084D+03 0.193754843223184D+03
 0.466603199448314D+03 0.618149801265507D+02 -.174055650518226D+02 0.462162850381318D+03
 0.838321109978799D+03 0.504906826963363D+03 0.132752998980907D+03 -.655917693604502D+03
 0.000000000000000D+00 0.000000000000000D+00 0.000000000000000D+00 0.000000000000000D+00
 0.963767702535035D+03 0.000000000000000D+00 0.000000000000000D+00 0.963767702535035D+03
 0.963767702535035D+03 -.000000000000000D+00 -.000000000000000D+00 -.963767702535035D+03
 0.623035576572005D+03 -.566435232191998D+03 -.115428126311702D+03 0.195897435057680D+03
 0.269879067220442D+02 0.189311773788161D+02 -.660458093550640D+01 0.180648039833225D+02
 0.836284839045578D+03 0.505292088723055D+03 0.132644518825990D+03 -.653037264416666D+03
 0.441227082730442D+03 0.422119660901267D+02 -.106118115787816D+02 0.439075025375663D+03
0.112775659660D-02 0.000000000000D+00 0.000000000000D+00 0.223660630677D-04 0.000000000000D+00  6 1 -1 25 2 -2 21 0 0.11376769D+00 0.19324092D+00 0.34691016D+06 0.34691016D+06 0.34691016D+06 0.10799144D+01  1  2  2  3  6  4        2 0.540704692701D-03 0.100000000000D+01
0.344365029717D-03 0.000000000000D+00 -.433088227608D-05 0.223660630677D-04 0.000000000000D+00  6 1 -1 25 2 -2 21 2 0.11376769D+00 0.19324092D+00 0.34691016D+06 0.34691016D+06 0.34691016D+06 0.10799144D+01  1  2  3  3  6  4        2 0.192549534855D-03 0.100000000000D+01
-.757626534141D-03 0.000000000000D+00 0.000000000000D+00 0.223660630677D-04 0.000000000000D+00  6 1 -1 25 2 -2 21 2 0.11376769D+00 0.19324092D+00 0.34691016D+06 0.34691016D+06 0.34691016D+06 0.10799144D+01  1  2 15  3  6  4        2 -.423622099094D-03 0.100000000000D+01
0.206520668938D-09 0.000000000000D+00 0.000000000000D+00 0.223660630677D-04 0.000000000000D+00  6 1 -1 25 2 -2 21 2 0.11376769D+00 0.19324092D+00 0.34658227D+06 0.34658227D+06 0.34658227D+06 0.10799444D+01  1  2 12  3  6  4        2 0.115488574550D-09 0.100000000000D+01
-.569248112839D-04 0.000000000000D+00 0.000000000000D+00 0.223660630677D-04 0.000000000000D+00  6 1 -1 25 2 -2 21 2 0.11376769D+00 0.19324092D+00 0.34691016D+06 0.34691016D+06 0.34691016D+06 0.10799144D+01  1  2  4  3  6  4        2 -.318291492707D-04 0.100000000000D+01
-.649893363227D-03 0.000000000000D+00 0.000000000000D+00 0.223660630677D-04 0.000000000000D+00  6 1 -1 25 2 -2 21 2 0.11376769D+00 0.19324092D+00 0.34691016D+06 0.34691016D+06 0.34691016D+06 0.10799144D+01  1  2  5  3  6  4        2 -.363383775925D-03 0.100000000000D+01
0.133544320834D-02 0.000000000000D+00 -.000000000000D+00 0.223660630677D-04 0.000000000000D+00  6 1 -1 25 2 -2 21 2 0.11376769D+00 0.19324092D+00 0.34691016D+06 0.34691016D+06 0.34691016D+06 0.10799144D+01  1  2  6  3  6  4        2 0.746704648854D-03 0.100000000000D+01
  </mgrwgt>
  </event>
  <event>
  5     66 0.18148205E-05 0.12955371E+02 0.75467711E-02 0.88521531E-01
        1 -1    0    0  502    0 0.00000000E+00 0.00000000E+00 0.17413843E+04 0.17413844E+04 0.32000000E+00 0.0000E+00 0.9000E+01
       -1 -1    0    0    0  501 0.00000000E+00 0.00000000E+00 -.41049513E+03 0.41049526E+03 0.32000000E+00 0.0000E+00 0.9000E+01
       25  1    1    2    0    0 0.61066016E+03 0.14358422E+03 0.60388877E+03 0.87967546E+03 0.12500000E+03 0.0000E+00 0.9000E+01
        2  1    1    2  502    0 0.99656053E+01 0.82912622E+01 0.62504812E+03 0.62518262E+03 0.32000000E+00 0.0000E+00 0.9000E+01
       -2  1    1    2    0  501 -.62062577E+03 -.15187549E+03 0.10195233E+03 0.64702155E+03 0.32000000E+00 0.0000E+00 0.9000E+01
#aMCatNLO 1  0  0  1  2 0.39697788D+03 0.00000000D+00  -5  6  0 0.00000000D+00 0.00000000D+00 0.00000000D+00 0.00000000D+00 0.00000000D+00
  <mgrwgt>
 0.5348786535D-02    7    2    0
 0.845476174678516D+03 0.000000000000000D+00 0.000000000000000D+00 0.845476174678516D+03
 0.845476174678516D+03 0.000000000000000D+00 0.000000000000000D+00 -.845476174678516D+03
 0.644295133457676D+03 0.610778009184232D+03 0.143615214548759D+03 0.762634423843026D+02
 0.303448263933331D+03 0.995917867013934D+01 0.828591537091187D+01 0.303171580546123D+03
 0.743208951966026D+03 -.620737187854372D+03 -.151901129919671D+03 -.379435022930426D+03
 0.000000000000000D+00 0.000000000000000D+00 0.000000000000000D+00 0.000000000000000D+00
 0.132576735206208D+04 0.000000000000000D+00 0.000000000000000D+00 0.132576735206208D+04
 0.948137118149237D+03 0.000000000000000D+00 0.000000000000000D+00 -.948137118149237D+03
 0.519735534614139D+03 0.489899606112195D+03 0.931788024577343D+02 0.762634423843026D+02
 0.308408605748733D+03 -.535789078635572D+02 -.182252978354614D+02 0.303171580546123D+03
 0.906176033858218D+03 -.792017059258180D+03 -.223367512312826D+03 -.379435022930426D+03
 0.539584295990232D+03 0.355696361009543D+03 0.148414007690553D+03 0.377630233912847D+03
0.144362356458D-02 0.000000000000D+00 0.000000000000D+00 0.131466431451D-04 0.000000000000D+00  6 1 -1 25 2 -2 21 0 0.26790530D+00 0.63153109D-01 0.41716998D+06 0.41716998D+06 0.41716998D+06 0.10741142D+01  1  2  2  1  6  1        1 0.204859021045D-02 0.100000000000D+01
0.124364099827D-02 0.000000000000D+00 -.554389460280D-05 0.131466431451D-04 0.000000000000D+00  6 1 -1 25 2 -2 21 2 0.26790530D+00 0.63153109D-01 0.41716998D+06 0.41716998D+06 0.41716998D+06 0.10741142D+01  1  2  3  1  6  1        1 0.203609067196D-02 0.100000000000D+01
-.103538177802D-02 0.000000000000D+00 0.000000000000D+00 0.131466431451D-04 0.000000000000D+00  6 1 -1 25 2 -2 21 2 0.26790530D+00 0.63153109D-01 0.41716998D+06 0.41716998D+06 0.41716998D+06 0.10741142D+01  1  2 15  1  6  1        1 -.169512840368D-02 0.100000000000D+01
-.167719898222D-04 0.000000000000D+00 0.000000000000D+00 0.131466431451D-04 0.000000000000D+00  6 1 -1 25 2 -2 21 2 0.26790530D+00 0.63153109D-01 0.41716998D+06 0.41716998D+06 0.41716998D+06 0.10741142D+01  1  2  4  1  6  1        1 -.274591237139D-04 0.100000000000D+01
-.199909382259D-02 0.000000000000D+00 -.763201976680D-03 0.131466431451D-04 0.000000000000D+00  6 1 -1 25 2 -2 21 2 0.43461936D+00 0.63153109D-01 0.41716998D+06 0.41716998D+06 0.41716998D+06 0.10741142D+01  1  2  5  1  6  1        1 -.590606204818D-03 0.100000000000D+01
0.218853301748D-02 0.000000000000D+00 0.681825752123D-03 0.131466431451D-04 0.000000000000D+00  6 1 -1 25 2 -2 21 2 0.26790530D+00 0.63153109D-01 0.41716998D+06 0.41716998D+06 0.41716998D+06 0.10741142D+01  1  2  6  1  6  1        1 0.358306912393D-02 0.100000000000D+01
-.766889163125D-04 0.000000000000D+00 -.419336004700D-04 0.131466431451D-04 0.000000000000D+00  6 21 -1 25 2 -2 -1 2 0.43461936D+00 0.63153109D-01 0.41716998D+06 0.41716998D+06 0.41716998D+06 0.10741142D+01  1  2  5  5  6  1        1 -.576973961489D-05 0.100000000000D+01
  </mgrwgt>
  </event>
  <event>
  6     66 0.18148205E-05 0.11168845E+03 0.75467711E-02 0.92569245E-01
        1 -1    0    0  502    0 0.00000000E+00 0.00000000E+00 0.11587606E+04 0.11587606E+04 0.32000000E+00 0.0000E+00 0.9000E+01
       21 -1    0    0  503  501 0.00000000E+00 0.00000000E+00 -.52033651E+03 0.52033705E+03 0.75000000E+00 0.0000E+00 0.9000E+01
       25  1    1    2    0    0 0.58296460E+03 -.11086612E+03 0.51860772E+03 0.79794611E+03 0.12500000E+03 0.0000E+00 0.9000E+01
        2  1    1    2  502    0 -.10832694E+03 0.47943914E+02 0.33249867E+03 0.35297141E+03 0.32000000E+00 0.0000E+00 0.9000E+01
        1  1    1    2  503    0 -.18907646E+02 0.16632485E+01 0.47004632E+01 0.19556641E+02 0.32000000E+00 0.0000E+00 0.9000E+01
       -2  1    1    2    0  501 -.45573001E+03 0.61258960E+02 -.21738280E+03 0.50862352E+03 0.32000000E+00 0.0000E+00 0.9000E+01
#aMCatNLO 2  0  0  2  1 0.18980660D+02 0.00000000D+00  -5  6  0 0.00000000D+00 0.00000000D+00 0.00000000D+00 0.00000000D+00 0.00000000D+00
  <mgrwgt>
 0.3633307618D-04    2    2    0
 0.766829606534931D+03 0.000000000000000D+00 0.000000000000000D+00 0.766829606534931D+03
 0.766829606534931D+03 0.000000000000000D+00 0.000000000000000D+00 -.766829606534931D+03
 0.641935705665147D+03 0.575029366515314D+03 -.110147398515201D+03 0.231657567226156D+03
 0.245730394594711D+03 -.111255962927101D+03 0.481690594511660D+02 0.213741150114866D+03
 0.000000000000000D+00 -.000000000000000D+00 0.000000000000000D+00 -.000000000000000D+00
 0.645993112810004D+03 -.463773403588212D+03 0.619783390640347D+02 -.445398717341022D+03
 0.774998794742606D+03 0.000000000000000D+00 0.000000000000000D+00 0.774998794742606D+03
 0.777993289101875D+03 0.000000000000000D+00 0.000000000000000D+00 -.777993289101875D+03
 0.649193542501280D+03 0.582987874968970D+03 -.110847484461236D+03 0.231657567226156D+03
 0.244325359644240D+03 -.108235263900716D+03 0.479033376833385D+02 0.213741150114866D+03
 0.192154223665708D+02 -.189076456701044D+02 0.166324846965228D+01 -.299449435926890D+01
 0.640257759332391D+03 -.455844965398150D+03 0.612808983082454D+02 -.445398717341022D+03
-.159818749932D-09 0.000000000000D+00 0.000000000000D+00 0.484025897842D-06 0.000000000000D+00  6 1 21 25 2 1 -2 2 0.17639146D+00 0.80466672D-01 0.36224926D+06 0.36224926D+06 0.36224926D+06 0.10785451D+01  1  2 13  6  5  2       -1 -.315219257181D-08 0.100000000000D+01
0.185661817367D-05 0.000000000000D+00 0.000000000000D+00 0.484025897842D-06 0.233116349616D-10  6 1 21 25 2 1 -2 2 0.17827060D+00 0.80051679D-01 0.36224926D+06 0.36224926D+06 0.36224926D+06 0.10785451D+01  1  2  1  6  5  2       -1 0.363362283775D-04 0.100000000000D+01
  </mgrwgt>
  </event>
  <event>
  5     66 0.18148205E-05 0.15998400E+03 0.75467711E-02 0.93823663E-01
        1 -1    0    0  502    0 0.00000000E+00 0.00000000E+00 0.26671861E+04 0.26671861E+04 0.32000000E+00 0.0000E+00 0.9000E+01
       -1 -1    0    0    0  501 0.00000000E+00 0.00000000E+00 -.54725923E+03 0.54725932E+03 0.32000000E+00 0.0000E+00 0.9000E+01
       25  1    1    2    0    0 0.15747994E+03 0.49513830E+03 0.90257340E+03 0.10489164E+04 0.12500000E+03 0.0000E+00 0.9000E+01
        2  1    1    2  502    0 -.83104885E+01 -.26595720E+03 0.16403771E+04 0.16618181E+04 0.32000000E+00 0.0000E+00 0.9000E+01
       -2  1    1    2    0  501 -.14916945E+03 -.22918110E+03 -.42302369E+03 0.50371087E+03 0.32000000E+00 0.0000E+00 0.9000E+01
#aMCatNLO 1  0  0  4  1 0.75143963D+01 0.00000000D+00  -5  6  0 0.00000000D+00 0.00000000D+00 0.00000000D+00 0.00000000D+00 0.00000000D+00
  <mgrwgt>
 0.6258217140D-03    1    2    0
 0.120815659892168D+04 0.000000000000000D+00 0.000000000000000D+00 0.120815659892168D+04
 0.120815659892168D+04 -.000000000000000D+00 -.000000000000000D+00 -.120815659892168D+04
 0.603582359551405D+03 0.157497026230161D+03 0.495132849510977D+03 0.280579423382109D+03
 0.771461095337615D+03 -.830936349432172D+01 -.265921195546346D+03 0.724133339832543D+03
 0.104126974295434D+04 -.149187662735839D+03 -.229211653964631D+03 -.100471276321465D+04
 0.000000000000000D+00 0.000000000000000D+00 0.000000000000000D+00 0.000000000000000D+00
 0.120815659892168D+04 0.000000000000000D+00 0.000000000000000D+00 0.120815659892168D+04
 0.120815659892168D+04 -.000000000000000D+00 -.000000000000000D+00 -.120815659892168D+04
 0.610416732683809D+03 0.157090361877244D+03 0.482118534878134D+03 0.316018866640291D+03
 0.710820951477354D+03 0.424684823373647D+02 -.324168980711567D+03 0.631171391154221D+03
 0.989588600035754D+03 -.149867957885317D+03 -.250982864189958D+03 -.945427307836522D+03
 0.105486913646448D+03 -.496908863292916D+02 0.930333100233902D+02 -.176294995799017D+01
0.275103011584D-02 0.000000000000D+00 0.000000000000D+00 0.171021206164D-04 0.000000000000D+00  6 1 -1 25 2 -2 21 2 0.41033633D+00 0.84193736D-01 0.28833726D+06 0.28833726D+06 0.28833726D+06 0.10858282D+01  1  2 14  3  6  4        2 0.625821713977D-03 0.100000000000D+01
  </mgrwgt>
  </event>
  <event>
  5     66 0.18148205E-05 0.84772293E+02 0.75467711E-02 0.92953756E-01
        1 -1    0    0  502    0 0.00000000E+00 0.00000000E+00 0.95568489E+03 0.95568494E+03 0.32000000E+00 0.0000E+00 0.9000E+01
       -1 -1    0    0    0  501 0.00000000E+00 0.00000000E+00 -.17080831E+04 0.17080831E+04 0.32000000E+00 0.0000E+00 0.9000E+01
       25  1    1    2    0    0 0.35306173E+03 -.36289247E+03 0.23371629E+03 0.57148214E+03 0.12500000E+03 0.0000E+00 0.9000E+01
        2  1    1    2  502    0 -.33279614E+03 0.44519709E+03 0.41182705E+03 0.69177695E+03 0.32000000E+00 0.0000E+00 0.9000E+01
       -2  1    1    2    0  501 -.20265586E+02 -.82304617E+02 -.13979416E+04 0.14005090E+04 0.32000000E+00 0.0000E+00 0.9000E+01
#aMCatNLO 1  0  0  1  4 0.14263703D+02 0.00000000D+00  -5  6  0 0.00000000D+00 0.00000000D+00 0.00000000D+00 0.00000000D+00 0.00000000D+00
  <mgrwgt>
 0.7967571976D-03    3    2    0
 0.127764992136232D+04 0.000000000000000D+00 0.000000000000000D+00 0.127764992136232D+04
 0.127764992136232D+04 0.000000000000000D+00 0.000000000000000D+00 -.127764992136232D+04
 0.664590661049600D+03 0.353025538433750D+03 -.362831545580109D+03 0.412046096328863D+03
 0.842304435505270D+03 -.332757376386817D+03 0.445145233772402D+03 0.632925755031132D+03
 0.104840474616978D+04 -.202681620469332D+02 -.823136881922931D+02 -.104497185136000D+04
 0.000000000000000D+00 0.000000000000000D+00 -.000000000000000D+00 -.000000000000000D+00
 0.229523054225146D+04 0.000000000000000D+00 0.000000000000000D+00 0.229523054225146D+04
 0.272487632642186D+04 0.000000000000000D+00 0.000000000000000D+00 -.272487632642186D+04
 0.548082209080943D+03 -.352858030805334D+02 -.337256630049215D+03 0.412046096328863D+03
 0.129420303604240D+04 -.101689083304002D+04 0.490203550373541D+03 0.632925755031132D+03
 0.129972304120733D+04 -.772164797670699D+03 -.327923611327967D+02 -.104497185136000D+04
 0.187809858234264D+04 0.182434143379125D+04 -.120154559191529D+03 -.429645784170405D+03
0.167587496989D-01 0.000000000000D+00 0.000000000000D+00 0.371906412395D-04 0.000000000000D+00  6 1 -1 25 2 -2 21 0 0.14702845D+00 0.26278202D+00 0.33755097D+06 0.33755097D+06 0.33755097D+06 0.10807827D+01  1  2  2  1  6  1        1 0.142204732106D-02 0.100000000000D+01
0.558090124491D-02 0.000000000000D+00 -.643580115239D-04 0.371906412395D-04 0.000000000000D+00  6 1 -1 25 2 -2 21 2 0.14702845D+00 0.26278202D+00 0.33755097D+06 0.33755097D+06 0.33755097D+06 0.10807827D+01  1  2  3  1  6  1        1 0.553163577163D-03 0.100000000000D+01
-.118894916375D-01 0.000000000000D+00 0.000000000000D+00 0.371906412395D-04 0.000000000000D+00  6 1 -1 25 2 -2 21 2 0.14702845D+00 0.26278202D+00 0.33755097D+06 0.33755097D+06 0.33755097D+06 0.10807827D+01  1  2 15  1  6  1        1 -.117845370061D-02 0.100000000000D+01
  </mgrwgt>
  </event>
  <event>
  5     66 -.18148205E-05 0.43243989E+02 0.75467711E-02 0.95237186E-01
        1 -1    0    0  502    0 0.00000000E+00 0.00000000E+00 0.36024824E+04 0.36024824E+04 0.32000000E+00 0.0000E+00 0.9000E+01
       -1 -1    0    0    0  501 0.00000000E+00 0.00000000E+00 -.24637154E+03 0.24637175E+03 0.32000000E+00 0.0000E+00 0.9000E+01
       25  1    1    2    0    0 0.44646658E+03 0.62676289E+02 0.14160127E+04 0.14913006E+04 0.12500000E+03 0.0000E+00 0.9000E+01
        2  1    1    2  502    0 -.21512444E+02 0.37526998E+02 0.19199954E+04 0.19204827E+04 0.32000000E+00 0.0000E+00 0.9000E+01
       -2  1    1    2    0  501 -.42495413E+03 -.10020329E+03 0.20102753E+02 0.43707086E+03 0.32000000E+00 0.0000E+00 0.9000E+01
#aMCatNLO 1  0  0  2  5 0.17288413D+02 0.00000000D+00  -5  6  0 0.00000000D+00 0.00000000D+00 0.00000000D+00 0.00000000D+00 0.00000000D+00
  <mgrwgt>
 -.4600540297D-03    1    2    0
 0.942098488991816D+03 0.000000000000000D+00 0.000000000000000D+00 0.942098488991816D+03
 0.942098488991816D+03 0.000000000000000D+00 0.000000000000000D+00 -.942098488991816D+03
 0.524209914724102D+03 0.446529568423165D+03 0.627002541362067D+02 0.236328283009308D+03
 0.502963316068852D+03 -.215065896002463D+02 0.375167854928007D+02 0.501100842866014D+03
 0.857023747190677D+03 -.425022978822919D+03 -.100217039629007D+03 -.737429125875322D+03
 0.000000000000000D+00 0.000000000000000D+00 -.000000000000000D+00 -.000000000000000D+00
 0.997594689385500D+03 0.000000000000000D+00 0.000000000000000D+00 0.997594689385500D+03
 0.124443505092283D+04 0.000000000000000D+00 0.000000000000000D+00 -.124443505092283D+04
 0.515331796781048D+03 0.422850333030575D+03 0.123646266742620D+03 0.236328283009308D+03
 0.512358836792586D+03 -.446341389720813D+02 0.970428593799832D+02 0.501100842866014D+03
 0.871473612796860D+03 -.464395613330632D+03 0.112090643515140D+01 -.737429125875322D+03
 0.342865493937831D+03 0.861794192721383D+02 -.221810032557754D+03 -.246840361537326D+03
-.226556839634D-02 0.000000000000D+00 0.000000000000D+00 0.133446050743D-03 0.000000000000D+00  6 1 -1 25 2 -2 21 2 0.55422808D+00 0.37903331D-01 0.22459918D+06 0.22459918D+06 0.22459918D+06 0.10939770D+01  1  2 14  2  6  2       -1 -.460054029715D-03 0.100000000000D+01
  </mgrwgt>
  </event>
  <event>
  5     66 0.18148205E-05 0.24095367E+02 0.75467711E-02 0.90060595E-01
        3 -1    0    0  502    0 0.00000000E+00 0.00000000E+00 0.11374778E+04 0.11374779E+04 0.50000000E+00 0.0000E+00 0.9000E+01
       -3 -1    0    0    0  501 0.00000000E+00 0.00000000E+00 -.78959374E+03 0.78959390E+03 0.50000000E+00 0.0000E+00 0.9000E+01
       25  1    1    2    0    0 0.43673311E+03 0.43100426E+03 0.19319876E+03 0.65532530E+03 0.12500000E+03 0.0000E+00 0.9000E+01
        4  1    1    2  502    0 -.43298505E+03 -.45479300E+03 0.57458504E+03 0.85115398E+03 0.15500000E+01 0.0000E+00 0.9000E+01
       -4  1    1    2    0  501 -.37480572E+01 0.23788737E+02 -.41989970E+03 0.42059257E+03 0.15500000E+01 0.0000E+00 0.9000E+01
#aMCatNLO 1  0  0  5  4 0.30032467D+03 0.00000000D+00  -5  6  0 0.00000000D+00 0.00000000D+00 0.00000000D+00 0.00000000D+00 0.00000000D+00
  <mgrwgt>
 0.1326189170D-03    6    2    0
 0.947705461413160D+03 0.000000000000000D+00 0.000000000000000D+00 0.947705461413160D+03
 0.947705461413160D+03 -.000000000000000D+00 -.000000000000000D+00 -.947705461413160D+03
 0.630687794127112D+03 0.436612886642372D+03 0.430860985628590D+03 0.766165252533552D+02
 0.759692422377262D+03 -.432860730508127D+03 -.454662415122444D+03 0.427839050200457D+03
 0.505030706321945D+03 -.375215613424466D+01 0.238014294938537D+02 -.504455575453812D+03
 0.000000000000000D+00 0.000000000000000D+00 0.000000000000000D+00 -.000000000000000D+00
 0.947705461413160D+03 0.000000000000000D+00 0.000000000000000D+00 0.947705461413160D+03
 0.947705461413160D+03 -.000000000000000D+00 -.000000000000000D+00 -.947705461413160D+03
 0.628519629453561D+03 0.436382021198080D+03 0.432325457627695D+03 0.455780086283313D+02
 0.738614194831126D+03 -.433135432845795D+03 -.452919868147351D+03 0.390906918149199D+03
 0.190060492024618D+03 0.799956757739187D+02 0.119752167165341D+03 -.124028629538983D+03
 0.338216606517014D+03 -.832422641262038D+02 -.991577566456846D+02 -.312456297238547D+03
0.328718122233D-02 0.000000000000D+00 0.000000000000D+00 0.234386492617D-04 0.000000000000D+00  6 3 -3 25 4 -4 21 0 0.17499661D+00 0.12147598D+00 0.40824119D+06 0.40824119D+06 0.40824119D+06 0.10747897D+01  1  2  2  4  6  5       -4 0.118597938636D-03 0.100000000000D+01
0.235766495611D-02 0.000000000000D+00 -.126236414284D-04 0.234386492617D-04 0.000000000000D+00  6 3 -3 25 4 -4 21 2 0.17499661D+00 0.12147598D+00 0.40824119D+06 0.40824119D+06 0.40824119D+06 0.10747897D+01  1  2  3  4  6  5       -4 0.982613197071D-04 0.100000000000D+01
-.255834760297D-02 0.000000000000D+00 0.000000000000D+00 0.234386492617D-04 0.000000000000D+00  6 3 -3 25 4 -4 21 2 0.17499661D+00 0.12147598D+00 0.40824119D+06 0.40824119D+06 0.40824119D+06 0.10747897D+01  1  2 15  4  6  5       -4 -.106625248463D-03 0.100000000000D+01
-.423435490381D-03 0.000000000000D+00 0.000000000000D+00 0.234386492617D-04 0.000000000000D+00  6 3 -3 25 4 -4 21 2 0.17499661D+00 0.12147598D+00 0.40824119D+06 0.40824119D+06 0.40824119D+06 0.10747897D+01  1  2  4  4  6  5       -4 -.176476856849D-04 0.100000000000D+01
-.119579327699D-02 0.000000000000D+00 0.000000000000D+00 0.234386492617D-04 0.000000000000D+00  6 3 -3 25 4 -4 21 2 0.17499661D+00 0.12147598D+00 0.40824119D+06 0.40824119D+06 0.40824119D+06 0.10747897D+01  1  2  5  4  6  5       -4 -.498375416698D-04 0.100000000000D+01
0.215632832112D-02 0.000000000000D+00 -.000000000000D+00 0.234386492617D-04 0.000000000000D+00  6 3 -3 25 4 -4 21 2 0.17499661D+00 0.12147598D+00 0.40824119D+06 0.40824119D+06 0.40824119D+06 0.10747897D+01  1  2  6  4  6  5       -4 0.898701344338D-04 0.100000000000D+01
  </mgrwgt>
  </event>
  <event>
  6     66 0.18148205E-05 0.49949721E+02 0.75467711E-02 0.94440191E-01
        1 -1    0    0  502    0 0.00000000E+00 0.00000000E+00 0.50653229E+04 0.50653229E+04 0.32000000E+00 0.0000E+00 0.9000E+01
       -1 -1    0    0    0  501 0.00000000E+00 0.00000000E+00 -.56790678E+02 0.56791580E+02 0.32000000E+00 0.0000E+00 0.9000E+01
       25  1    1    2    0    0 0.45172248E+03 -.57850672E+02 0.18231603E+04 0.18833317E+04 0.12500000E+03 0.0000E+00 0.9000E+01
        2  1    1    2  503    0 -.31643934E+02 -.23563303E+02 0.16418445E+03 0.16885853E+03 0.32000000E+00 0.0000E+00 0.9000E+01
       -2  1    1    2    0  501 -.44104381E+03 0.20834809E+02 0.20693789E+04 0.21159591E+04 0.32000000E+00 0.0000E+00 0.9000E+01
       21  1    1    2  502  503 0.20965263E+02 0.60579166E+02 0.95180861E+03 0.95396518E+03 0.75000000E+00 0.0000E+00 0.9000E+01
#aMCatNLO 2  0  0  4  5 0.37389207D+02 0.00000000D+00  -5  6  0 0.00000000D+00 0.00000000D+00 0.00000000D+00 0.00000000D+00 0.00000000D+00
  <mgrwgt>
 0.1152656227D-01    2    2    0
 0.536344535059362D+03 0.000000000000000D+00 0.000000000000000D+00 0.536344535059362D+03
 0.536344535059362D+03 -.000000000000000D+00 -.000000000000000D+00 -.536344535059362D+03
 0.489647668364556D+03 0.455089416485657D+03 -.679868475760082D+02 -.111360902898041D+03
 0.143578631794677D+03 -.162271826337846D+02 0.562488674626770D+02 0.131101361400130D+03
 0.439462769959492D+03 -.438862233851872D+03 0.117379801133312D+02 -.197404585020889D+02
 0.000000000000000D+00 0.000000000000000D+00 0.000000000000000D+00 -.000000000000000D+00
 0.536344535059362D+03 0.000000000000000D+00 0.000000000000000D+00 0.536344535059362D+03
 0.536344535059362D+03 -.000000000000000D+00 -.000000000000000D+00 -.536344535059362D+03
 0.480860168088540D+03 0.452203305839870D+03 -.579826183230816D+02 -.880436676543634D+02
 0.386674957948805D+02 -.306845542031187D+02 -.230541615545236D+02 -.470520981688341D+01
 0.441976653281633D+03 -.441483471525058D+03 0.208240706439333D+02 0.143683611912576D+01
 0.111184752953670D+03 0.199647198883064D+02 0.602127092336719D+02 0.913120413521208D+02
-.409943138516D-05 0.000000000000D+00 0.000000000000D+00 0.216696952772D-06 0.000000000000D+00  6 1 -1 25 2 -2 21 2 0.77928052D+00 0.87370976D-02 0.25832923D+06 0.25832923D+06 0.25832923D+06 0.10893899D+01  1  2 13  3  6  4        2 -.235999223468D-06 0.100000000000D+01
0.200226585102D+00 0.000000000000D+00 0.000000000000D+00 0.216696952772D-06 0.857447985605D-08  6 1 -1 25 2 -2 21 2 0.77928052D+00 0.87370976D-02 0.25832923D+06 0.25832923D+06 0.25832923D+06 0.10893899D+01  1  2  1  3  6  4        2 0.115267982708D-01 0.100000000000D+01
  </mgrwgt>
  </event>
  <event>
  5     66 -.18148205E-05 0.20404322E+02 0.75467711E-02 0.95162546E-01
        1 -1    0    0  502    0 0.00000000E+00 0.00000000E+00 0.17868135E+04 0.17868136E+04 0.32000000E+00 0.0000E+00 0.9000E+01
       -1 -1    0    0    0  501 0.00000000E+00 0.00000000E+00 -.75752013E+03 0.75752020E+03 0.32000000E+00 0.0000E+00 0.9000E+01
       25  1    1    2    0    0 -.44714211E+03 -.13445655E+03 0.10499713E+04 0.11558890E+04 0.12500000E+03 0.0000E+00 0.9000E+01
        2  1    1    2  502    0 0.42784250E+03 0.14107094E+03 0.60950999E+03 0.75792661E+03 0.32000000E+00 0.0000E+00 0.9000E+01
       -2  1    1    2    0  501 0.19299610E+02 -.66143941E+01 -.63018791E+03 0.63051814E+03 0.32000000E+00 0.0000E+00 0.9000E+01
#aMCatNLO 1  0  0  4  5 0.37389207D+02 0.00000000D+00  -5  6  0 0.00000000D+00 0.00000000D+00 0.00000000D+00 0.00000000D+00 0.00000000D+00
  <mgrwgt>
 -.8027768577D-02    1    2    0
 0.116342053756737D+04 0.000000000000000D+00 0.000000000000000D+00 0.116342053756737D+04
 0.116342053756737D+04 -.000000000000000D+00 -.000000000000000D+00 -.116342053756737D+04
 0.799540387490127D+03 -.447024237561044D+03 -.134415974123772D+03 0.636978420483132D+03
 0.558992680797825D+03 0.427722041268342D+03 0.141031226182544D+03 0.331114581135035D+03
 0.968308006846786D+03 0.193021962927023D+02 -.661525205877110D+01 -.968093001618167D+03
 0.000000000000000D+00 0.000000000000000D+00 -.000000000000000D+00 0.000000000000000D+00
 0.116342053756737D+04 0.000000000000000D+00 0.000000000000000D+00 0.116342053756737D+04
 0.116342053756737D+04 -.000000000000000D+00 -.000000000000000D+00 -.116342053756737D+04
 0.818895821785709D+03 -.312625385388070D+03 -.901011315608907D+02 0.741021269222753D+03
 0.275498585244676D+03 -.512734899023518D+02 0.233021256118835D+03 -.137737409231667D+03
 0.868314421885659D+03 0.171819759161139D+03 0.436738067933867D+02 -.850023825675851D+03
 0.364132246218693D+03 0.192079116129284D+03 -.186593931351331D+03 0.246739965684765D+03
-.178879324976D-01 0.000000000000D+00 0.000000000000D+00 0.837748357668D-04 0.000000000000D+00  6 1 -1 25 2 -2 21 2 0.27489440D+00 0.11654157D+00 0.22753852D+06 0.22753852D+06 0.22753852D+06 0.10935483D+01  1  2 14  3  6  4        2 -.802776857654D-02 0.100000000000D+01
  </mgrwgt>
  </event>
  <event>
  5     66 0.18148205E-05 0.20412660E+02 0.75467711E-02 0.93979269E-01
        1 -1    0    0  502    0 0.00000000E+00 0.00000000E+00 0.28011192E+04 0.28011192E+04 0.32000000E+00 0.0000E+00 0.9000E+01
       -1 -1    0    0    0  501 0.00000000E+00 0.00000000E+00 -.69704008E+03 0.69704016E+03 0.32000000E+00 0.0000E+00 0.9000E+01
       25  1    1    2    0    0 0.52150878E+03 0.23531167E+02 0.14829898E+04 0.15771522E+04 0.12500000E+03 0.0000E+00 0.9000E+01
        2  1    1    2  502    0 -.51631247E+03 -.37932959E+01 0.12184310E+04 0.13233168E+04 0.32000000E+00 0.0000E+00 0.9000E+01
       -2  1    1    2    0  501 -.51963065E+01 -.19737871E+02 -.59734176E+03 0.59769044E+03 0.32000000E+00 0.0000E+00 0.9000E+01
#aMCatNLO 1  0  0  4  5 0.28212696D+03 0.00000000D+00  -5  6  0 0.00000000D+00 0.00000000D+00 0.00000000D+00 0.00000000D+00 0.00000000D+00
  <mgrwgt>
 0.1920265186D-02    6    2    0
 0.139731618222757D+04 0.000000000000000D+00 0.000000000000000D+00 0.139731618222757D+04
 0.139731618222757D+04 -.000000000000000D+00 -.000000000000000D+00 -.139731618222757D+04
 0.857718253423197D+03 0.521409637683837D+03 0.235325945567980D+02 0.669054414064488D+03
 0.738951728510584D+03 -.516212730312467D+03 -.379256306627040D+01 0.528734045241572D+03
 0.119796238252136D+04 -.519690737136932D+01 -.197400314905275D+02 -.119778845930606D+04
 0.000000000000000D+00 0.000000000000000D+00 0.000000000000000D+00 0.000000000000000D+00
 0.139731618222757D+04 0.000000000000000D+00 0.000000000000000D+00 0.139731618222757D+04
 0.139731618222757D+04 -.000000000000000D+00 -.000000000000000D+00 -.139731618222757D+04
 0.859674613321435D+03 0.511733491821890D+03 0.234615048853022D+02 0.678965265625312D+03
 0.174904542178702D+03 -.163246304603991D+03 -.516491223999974D+02 0.357016955226554D+02
 0.118435298095027D+04 -.186193638124542D+02 -.198386449294604D+02 -.118404042622893D+04
 0.575700228004736D+03 -.329867823405444D+03 0.480262624441558D+02 0.469373465080957D+03
0.274295182006D-01 0.000000000000D+00 0.000000000000D+00 0.174592083771D-03 0.000000000000D+00  6 1 -1 25 2 -2 21 0 0.43094142D+00 0.10723694D+00 0.28801428D+06 0.28801428D+06 0.28801428D+06 0.10858644D+01  1  2  2  3  6  4        2 0.249772269794D-02 0.100000000000D+01
0.248068701515D-01 0.000000000000D+00 -.105336572248D-03 0.174592083771D-03 0.000000000000D+00  6 1 -1 25 2 -2 21 2 0.43094142D+00 0.10723694D+00 0.28801428D+06 0.28801428D+06 0.28801428D+06 0.10858644D+01  1  2  3  3  6  4        2 0.266347836344D-02 0.100000000000D+01
-.195343235169D-01 0.000000000000D+00 0.000000000000D+00 0.174592083771D-03 0.000000000000D+00  6 1 -1 25 2 -2 21 2 0.43094142D+00 0.10723694D+00 0.28801428D+06 0.28801428D+06 0.28801428D+06 0.10858644D+01  1  2 15  3  6  4        2 -.209737253083D-02 0.100000000000D+01
-.253291955478D-01 0.000000000000D+00 0.000000000000D+00 0.174592083771D-03 0.000000000000D+00  6 1 -1 25 2 -2 21 2 0.43094142D+00 0.10723694D+00 0.28801428D+06 0.28801428D+06 0.28801428D+06 0.10858644D+01  1  2  4  3  6  4        2 -.271955969830D-02 0.100000000000D+01
-.161847110815D-01 0.000000000000D+00 0.000000000000D+00 0.174592083771D-03 0.000000000000D+00  6 1 -1 25 2 -2 21 2 0.43094142D+00 0.10723694D+00 0.28801428D+06 0.28801428D+06 0.28801428D+06 0.10858644D+01  1  2  5  3  6  4        2 -.173772940806D-02 0.100000000000D+01
0.308630870870D-01 0.000000000000D+00 -.000000000000D+00 0.174592083771D-03 0.000000000000D+00  6 1 -1 25 2 -2 21 2 0.43094142D+00 0.10723694D+00 0.28801428D+06 0.28801428D+06 0.28801428D+06 0.10858644D+01  1  2  6  3  6  4        2 0.331372576157D-02 0.100000000000D+01
  </mgrwgt>
  </event>
  <event>
  6     66 0.18148205E-05 0.33513113E+02 0.75467711E-02 0.95435716E-01
        1 -1    0    0  503    0 0.00000000E+00 0.00000000E+00 0.17055385E+04 0.17055386E+04 0.32000000E+00 0.0000E+00 0.9000E+01
       -1 -1    0    0    0  501 0.00000000E+00 0.00000000E+00 -.12191106E+04 0.12191107E+04 0.32000000E+00 0.0000E+00 0.9000E+01
       25  1    1    2    0    0 0.38269638E+03 -.25032939E+03 -.74665803E+00 0.47407476E+03 0.12500000E+03 0.0000E+00 0.9000E+01
        2  1    1    2  502    0 -.34527452E+03 0.23130297E+03 0.96823582E+03 0.10536585E+04 0.32000000E+00 0.0000E+00 0.9000E+01
       -2  1    1    2    0  501 -.32246738E+02 0.16748124E+02 -.93861926E+03 0.93932240E+03 0.32000000E+00 0.0000E+00 0.9000E+01
       21  1    1    2  503  502 -.51751259E+01 0.22782997E+01 0.45755800E+03 0.45759355E+03 0.75000000E+00 0.0000E+00 0.9000E+01
#aMCatNLO 2  0  0  1  4 0.56544299D+01 0.00000000D+00  -5  6  0 0.00000000D+00 0.00000000D+00 0.00000000D+00 0.00000000D+00 0.00000000D+00
  <mgrwgt>
 0.6384758723D-02    3    2    0
 0.123344013204149D+04 0.000000000000000D+00 0.000000000000000D+00 0.123344013204149D+04
 0.123344013204149D+04 0.000000000000000D+00 0.000000000000000D+00 -.123344013204149D+04
 0.473072335115242D+03 0.381694606852972D+03 -.249885989255791D+03 -.621721194724995D+01
 0.104330523708912D+04 -.347450691942056D+03 0.232258359978086D+03 0.955939270365465D+03
 0.950502691878624D+03 -.342439149109164D+02 0.176276292777054D+02 -.949722058418215D+03
 0.000000000000000D+00 -.000000000000000D+00 0.000000000000000D+00 0.000000000000000D+00
 0.168569505735118D+04 0.000000000000000D+00 0.000000000000000D+00 0.168569505735118D+04
 0.123346104632696D+04 0.000000000000000D+00 0.000000000000000D+00 -.123346104632696D+04
 0.474105096427169D+03 0.382688120011508D+03 -.250323373930354D+03 -.621721194724995D+01
 0.104236457763819D+04 -.345262991584882D+03 0.231295245800339D+03 0.955939270365465D+03
 0.950417070375837D+03 -.322500025411454D+02 0.167498284096781D+02 -.949722058418215D+03
 0.452269359236944D+03 -.517512588548027D+01 0.227829972033687D+01 0.452234011024215D+03
-.656932918256D-09 0.000000000000D+00 0.000000000000D+00 0.836302958638D-03 0.000000000000D+00  6 1 -1 25 2 -2 21 2 0.26239167D+00 0.18755226D+00 0.21698633D+06 0.21698633D+06 0.21698633D+06 0.10951167D+01  1  2 13  1  6  1        1 -.857026333777D-10 0.100000000000D+01
-.399612532663D+00 0.000000000000D+00 0.000000000000D+00 0.836302958638D-03 0.000000000000D+00  6 1 -1 25 2 -2 21 2 0.26244286D+00 0.18755226D+00 0.21698633D+06 0.21698633D+06 0.21698633D+06 0.10951167D+01  1  2 13  1  6  1        1 -.521065071303D-01 0.100000000000D+01
0.448371960896D+00 0.000000000000D+00 0.000000000000D+00 0.836302958638D-03 0.196787314417D-03  6 1 -1 25 2 -2 21 2 0.26239048D+00 0.18755544D+00 0.21698633D+06 0.21698633D+06 0.21698633D+06 0.10951167D+01  1  2  1  1  6  1        1 0.584912659394D-01 0.100000000000D+01
  </mgrwgt>
  </event>
  <event>
  5     66 0.18148205E-05 0.88604048E+02 0.75467711E-02 0.94417944E-01
        1 -1    0    0  502    0 0.00000000E+00 0.00000000E+00 0.13903333E+04 0.13903333E+04 0.32000000E+00 0.0000E+00 0.9000E+01
       -1 -1    0    0    0  501 0.00000000E+00 0.00000000E+00 -.37321967E+03 0.37321981E+03 0.32000000E+00 0.0000E+00 0.9000E+01
       25  1    1    2    0    0 -.48226808E+03 -.63533815E+02 0.15853509E+03 0.52666633E+03 0.12500000E+03 0.0000E+00 0.9000E+01
        2  1    1    2  502    0 0.86437743E+02 0.19571473E+02 0.83310808E+03 0.83780887E+03 0.32000000E+00 0.0000E+00 0.9000E+01
       -2  1    1    2    0  501 0.39583034E+03 0.43962342E+02 0.25470429E+02 0.39907792E+03 0.32000000E+00 0.0000E+00 0.9000E+01
#aMCatNLO 1  0  0  1  2 0.39236774D+02 0.00000000D+00  -5  6  0 0.00000000D+00 0.00000000D+00 0.00000000D+00 0.00000000D+00 0.00000000D+00
  <mgrwgt>
 0.6771499353D-02    9    2    0
 0.720347059113741D+03 0.000000000000000D+00 0.000000000000000D+00 0.720347059113741D+03
 0.720347059113741D+03 0.000000000000000D+00 0.000000000000000D+00 -.720347059113741D+03
 0.532801281068774D+03 -.482339277752289D+03 -.635409378451462D+02 -.177661406793051D+03
 0.437289438509856D+03 0.864165637552734D+02 0.195666773288239D+02 0.428218840873805D+03
 0.470603398648853D+03 0.395922713997016D+03 0.439742605163223D+02 -.250557434080754D+03
 0.000000000000000D+00 0.000000000000000D+00 0.000000000000000D+00 0.000000000000000D+00
 0.743369059779246D+03 0.000000000000000D+00 0.000000000000000D+00 0.743369059779246D+03
 0.737528367154342D+03 0.000000000000000D+00 0.000000000000000D+00 -.737528367154342D+03
 0.545662045422148D+03 -.495687752980919D+03 -.696573319566866D+02 -.177661406793051D+03
 0.435089994939969D+03 0.756188528166350D+02 0.146190668735449D+02 0.428218840873805D+03
 0.460476278381824D+03 0.384398451929464D+03 0.386937376519101D+02 -.250557434080754D+03
 0.396691081896466D+02 0.356704482348203D+02 0.163445274312317D+02 0.584069262490417D+01
0.715349298441D-03 0.000000000000D+00 0.000000000000D+00 0.406759646719D-05 0.000000000000D+00  6 1 -1 25 2 -2 21 0 0.21389744D+00 0.57418425D-01 0.24466361D+06 0.24466361D+06 0.24466361D+06 0.10911648D+01  1  2  2  1  6  1        1 0.215248639129D-02 0.100000000000D+01
0.147674110660D-03 0.000000000000D+00 -.274712966181D-05 0.406759646719D-05 0.000000000000D+00  6 1 -1 25 2 -2 21 2 0.21389744D+00 0.57418425D-01 0.24466361D+06 0.24466361D+06 0.24466361D+06 0.10911648D+01  1  2  3  1  6  1        1 0.529062871231D-03 0.100000000000D+01
-.472066865265D-03 0.000000000000D+00 0.000000000000D+00 0.406759646719D-05 0.000000000000D+00  6 1 -1 25 2 -2 21 2 0.21389744D+00 0.57418425D-01 0.24466361D+06 0.24466361D+06 0.24466361D+06 0.10911648D+01  1  2 15  1  6  1        1 -.169124466051D-02 0.100000000000D+01
0.200029637138D-07 0.000000000000D+00 0.000000000000D+00 0.406759646719D-05 0.000000000000D+00  6 1 -1 25 2 -2 21 2 0.22321344D+00 0.57418425D-01 0.25934907D+06 0.25934907D+06 0.25934907D+06 0.10892616D+01  1  2 12  1  6  1        1 0.647821190915D-07 0.100000000000D+01
-.178455294800D-03 0.000000000000D+00 0.000000000000D+00 0.406759646719D-05 0.000000000000D+00  6 1 -1 25 2 -2 21 2 0.21389744D+00 0.57418425D-01 0.24466361D+06 0.24466361D+06 0.24466361D+06 0.10911648D+01  1  2  4  1  6  1        1 -.639340709289D-03 0.100000000000D+01
-.183399852033D-01 0.000000000000D+00 -.311398041024D-02 0.406759646719D-05 0.000000000000D+00  6 1 -1 25 2 -2 21 2 0.22391434D+00 0.57418425D-01 0.24466361D+06 0.24466361D+06 0.24466361D+06 0.10911648D+01  1  2  5  1  6  1        1 -.593558716110D-01 0.100000000000D+01
0.184664176081D-01 0.000000000000D+00 0.311072196394D-02 0.406759646719D-05 0.000000000000D+00  6 1 -1 25 2 -2 21 2 0.21389744D+00 0.57418425D-01 0.24466361D+06 0.24466361D+06 0.24466361D+06 0.10911648D+01  1  2  6  1  6  1        1 0.661584882917D-01 0.100000000000D+01
0.263172921966D-09 0.000000000000D+00 0.000000000000D+00 0.406759646719D-05 0.000000000000D+00  6 21 -1 25 2 -2 -1 2 0.22321344D+00 0.57418425D-01 0.25934907D+06 0.25934907D+06 0.25934907D+06 0.10892616D+01  1  2 12  5  6  1        1 0.696251033486D-09 0.100000000000D+01
-.144811784022D-03 0.000000000000D+00 -.249798062919D-04 0.406759646719D-05 0.000000000000D+00  6 21 -1 25 2 -2 -1 2 0.22391434D+00 0.57418425D-01 0.24466361D+06 0.24466361D+06 0.24466361D+06 0.10911648D+01  1  2  5  5  6  1        1 -.382146698884D-03 0.100000000000D+01
  </mgrwgt>
  </event>
  <event>
  5     66 0.18148205E-05 0.93187616E+02 0.75467711E-02 0.92840194E-01
        1 -1    0    0  502    0 0.00000000E+00 0.00000000E+00 0.15781289E+04 0.15781289E+04 0.32000000E+00 0.0000E+00 0.9000E+01
       -1 -1    0    0    0  501 0.00000000E+00 0.00000000E+00 -.77042717E+03 0.77042724E+03 0.32000000E+00 0.0000E+00 0.9000E+01
       25  1    1    2    0    0 0.25721999E+03 -.44502932E+03 -.10098012E+03 0.53854917E+03 0.12500000E+03 0.0000E+00 0.9000E+01
        2  1    1    2  502    0 -.68089156E+02 -.63632450E+02 0.11934920E+04 0.11971251E+04 0.32000000E+00 0.0000E+00 0.9000E+01
       -2  1    1    2    0  501 -.18913084E+03 0.50866177E+03 -.28481017E+03 0.61288189E+03 0.32000000E+00 0.0000E+00 0.9000E+01
#aMCatNLO 1  0  0  1  4 0.70406136D+01 0.00000000D+00  -5  6  0 0.00000000D+00 0.00000000D+00 0.00000000D+00 0.00000000D+00 0.00000000D+00
  <mgrwgt>
 0.3794790912D-01   13    2    0
 0.110264839089566D+04 0.000000000000000D+00 0.000000000000000D+00 0.110264839089566D+04
 0.110264839089566D+04 0.000000000000000D+00 0.000000000000000D+00 -.110264839089566D+04
 0.610556999338317D+03 0.257243380891628D+03 -.445090257127836D+03 -.304754582308997D+03
 0.837707020426409D+03 -.680840991706996D+02 -.636277238551567D+02 0.832507729855296D+03
 0.757032762026595D+03 -.189159281720929D+03 0.508717980982992D+03 -.527753147546299D+03
 0.000000000000000D+00 0.000000000000000D+00 0.000000000000000D+00 0.000000000000000D+00
 0.191812684475069D+04 0.000000000000000D+00 0.000000000000000D+00 0.191812684475069D+04
 0.110266920711224D+04 0.000000000000000D+00 0.000000000000000D+00 -.110266920711224D+04
 0.611180578683060D+03 0.256049101759643D+03 -.446632065361533D+03 -.304754582308997D+03
 0.838004992033108D+03 -.697221497011074D+02 -.657424386880266D+02 0.832507729855296D+03
 0.756122449951143D+03 -.190638428900838D+03 0.506808409560569D+03 -.527753147546299D+03
 0.815488031195618D+03 0.431147684230209D+01 0.556609448899067D+01 0.815457637638451D+03
0.576867517711D-04 0.000000000000D+00 0.000000000000D+00 0.155389721961D-04 0.000000000000D+00  6 1 -1 25 2 -2 21 0 0.24278906D+00 0.11852726D+00 0.33930361D+06 0.33930361D+06 0.33930361D+06 0.10806182D+01  1  2  2  1  6  1        1 0.277700571619D-04 0.100000000000D+01
0.164934801159D-04 0.000000000000D+00 -.221532316071D-06 0.155389721961D-04 0.000000000000D+00  6 1 -1 25 2 -2 21 2 0.24278906D+00 0.11852726D+00 0.33930361D+06 0.33930361D+06 0.33930361D+06 0.10806182D+01  1  2  3  1  6  1        1 0.927166022508D-05 0.100000000000D+01
-.367527467113D-04 0.000000000000D+00 0.000000000000D+00 0.155389721961D-04 0.000000000000D+00  6 1 -1 25 2 -2 21 2 0.24278906D+00 0.11852726D+00 0.33930361D+06 0.33930361D+06 0.33930361D+06 0.10806182D+01  1  2 15  1  6  1        1 -.206602231580D-04 0.100000000000D+01
0.811193103828D-07 0.000000000000D+00 0.000000000000D+00 0.155389721961D-04 0.000000000000D+00  6 1 -1 25 2 -2 21 2 0.42234774D+00 0.11852726D+00 0.34464343D+06 0.34464343D+06 0.34464343D+06 0.10801223D+01  1  2 12  1  6  1        1 0.732379390865D-08 0.100000000000D+01
0.436837280935D+00 0.000000000000D+00 0.000000000000D+00 0.155389721961D-04 0.000000000000D+00  6 1 -1 25 2 -2 21 2 0.42357570D+00 0.11852726D+00 0.34464343D+06 0.34464343D+06 0.34464343D+06 0.10801223D+01  1  2 12  1  6  1        1 0.389231469883D-01 0.100000000000D+01
-.323227386024D+00 0.000000000000D+00 0.000000000000D+00 0.155389721961D-04 0.000000000000D+00  6 1 -1 25 2 -2 21 2 0.24278906D+00 0.11852726D+00 0.33930361D+06 0.33930361D+06 0.33930361D+06 0.10806182D+01  1  2  4  1  6  1        1 -.181699342868D+00 0.100000000000D+01
-.453802814234D+00 0.000000000000D+00 -.294227944294D-04 0.155389721961D-04 0.000000000000D+00  6 1 -1 25 2 -2 21 2 0.42234867D+00 0.11852726D+00 0.33930361D+06 0.33930361D+06 0.33930361D+06 0.10806182D+01  1  2  5  1  6  1        1 -.410689593812D-01 0.100000000000D+01
0.392169207374D+00 0.000000000000D+00 0.254255764940D-04 0.155389721961D-04 0.000000000000D+00  6 1 -1 25 2 -2 21 2 0.24278906D+00 0.11852726D+00 0.33930361D+06 0.33930361D+06 0.33930361D+06 0.10806182D+01  1  2  6  1  6  1        1 0.220454362328D+00 0.100000000000D+01
0.148141046764D-01 0.000000000000D+00 0.000000000000D+00 0.155389721961D-04 0.183376567511D-05  6 1 -1 25 2 -2 21 2 0.42234698D+00 0.11852950D+00 0.34464343D+06 0.34464343D+06 0.34464343D+06 0.10801223D+01  1  2 11  1  6  1        1 0.133742879360D-02 0.100000000000D+01
0.496933188030D-08 0.000000000000D+00 0.000000000000D+00 0.155389721961D-04 0.000000000000D+00  6 21 -1 25 2 -2 -1 2 0.42234774D+00 0.11852726D+00 0.34464343D+06 0.34464343D+06 0.34464343D+06 0.10801223D+01  1  2 12  5  6  1        1 0.123543899093D-09 0.100000000000D+01
0.267604521835D-01 0.000000000000D+00 0.000000000000D+00 0.155389721961D-04 0.000000000000D+00  6 21 -1 25 2 -2 -1 2 0.42357570D+00 0.11852726D+00 0.34464343D+06 0.34464343D+06 0.34464343D+06 0.10801223D+01  1  2 12  5  6  1        1 0.652162347499D-03 0.100000000000D+01
-.277976482406D-01 0.000000000000D+00 -.180238633567D-05 0.155389721961D-04 0.000000000000D+00  6 21 -1 25 2 -2 -1 2 0.42234867D+00 0.11852726D+00 0.33930361D+06 0.33930361D+06 0.33930361D+06 0.10806182D+01  1  2  5  5  6  1        1 -.693273353353D-03 0.100000000000D+01
0.104565106568D-02 0.000000000000D+00 0.000000000000D+00 0.155389721961D-04 0.129334533075D-06  6 21 -1 25 2 -2 -1 2 0.42234698D+00 0.11852950D+00 0.34464343D+06 0.34464343D+06 0.34464343D+06 0.10801223D+01  1  2 11  5  6  1        1 0.259953274285D-04 0.100000000000D+01
  </mgrwgt>
  </event>
  <event>
  5     66 0.18148205E-05 0.20289466E+02 0.75467711E-02 0.91138866E-01
        1 -1    0    0  502    0 0.00000000E+00 0.00000000E+00 0.26259586E+04 0.26259586E+04 0.32000000E+00 0.0000E+00 0.9000E+01
       -1 -1    0    0    0  501 0.00000000E+00 0.00000000E+00 -.47355809E+03 0.47355820E+03 0.32000000E+00 0.0000E+00 0.9000E+01
       25  1    1    2    0    0 0.13973776E+03 0.48356314E+03 0.10543724E+04 0.11750260E+04 0.12500000E+03 0.0000E+00 0.9000E+01
        2  1    1    2  502    0 0.10101783E+02 0.17601904E+02 0.13456164E+04 0.13457694E+04 0.32000000E+00 0.0000E+00 0.9000E+01
       -2  1    1    2    0  501 -.14983954E+03 -.50116504E+03 -.24758831E+03 0.57872132E+03 0.32000000E+00 0.0000E+00 0.9000E+01
#aMCatNLO 1  0  0  1  4 0.48414409D+02 0.00000000D+00  -5  6  0 0.00000000D+00 0.00000000D+00 0.00000000D+00 0.00000000D+00 0.00000000D+00
  <mgrwgt>
 0.6866716350D-01    6    2    0
 0.111514309054541D+04 0.000000000000000D+00 0.000000000000000D+00 0.111514309054541D+04
 0.111514309054541D+04 0.000000000000000D+00 0.000000000000000D+00 -.111514309054541D+04
 0.615557337760897D+03 0.139760260142589D+03 0.483635068818264D+03 0.331436307554426D+03
 0.571497706747906D+03 0.100992003178604D+02 0.175974030780185D+02 0.571137432126423D+03
 0.104323113658203D+04 -.149859460460449D+03 -.501232471896282D+03 -.902573739680849D+03
 0.000000000000000D+00 -.000000000000000D+00 -.000000000000000D+00 0.000000000000000D+00
 0.220833483198529D+04 0.000000000000000D+00 0.000000000000000D+00 0.220833483198529D+04
 0.114371243951189D+04 0.000000000000000D+00 0.000000000000000D+00 -.114371243951189D+04
 0.685220445216286D+03 0.151088285687413D+03 0.566766585558052D+03 0.331436307554426D+03
 0.578707974633252D+03 0.201159453076660D+02 0.911059947123932D+02 0.571137432126423D+03
 0.984992209874536D+03 -.132196362135783D+03 -.371610575455159D+03 -.902573739680849D+03
 0.110312664177310D+04 -.390078688592960D+02 -.286262004815286D+03 0.106462239247340D+04
0.405996361955D-01 0.000000000000D+00 0.000000000000D+00 0.256220615620D-03 0.000000000000D+00  6 1 -1 25 2 -2 21 0 0.40399363D+00 0.72855100D-01 0.28204376D+06 0.28204376D+06 0.28204376D+06 0.10865406D+01  1  2  2  1  6  1        1 0.112606473954D-01 0.100000000000D+01
0.284951283554D-01 0.000000000000D+00 -.155913293121D-03 0.256220615620D-03 0.000000000000D+00  6 1 -1 25 2 -2 21 2 0.40399363D+00 0.72855100D-01 0.28204376D+06 0.28204376D+06 0.28204376D+06 0.10865406D+01  1  2  3  1  6  1        1 0.933047476160D-02 0.100000000000D+01
-.253231406352D-01 0.000000000000D+00 0.000000000000D+00 0.256220615620D-03 0.000000000000D+00  6 1 -1 25 2 -2 21 2 0.40399363D+00 0.72855100D-01 0.28204376D+06 0.28204376D+06 0.28204376D+06 0.10865406D+01  1  2 15  1  6  1        1 -.829183577046D-02 0.100000000000D+01
-.201626900020D+00 0.000000000000D+00 -.150203386105D-01 0.256220615620D-03 0.000000000000D+00  6 1 -1 25 2 -2 21 2 0.80144128D+00 0.72855100D-01 0.28204376D+06 0.28204376D+06 0.28204376D+06 0.10865406D+01  1  2  5  1  6  1        1 -.189483383463D-03 0.100000000000D+01
0.172726572969D+00 0.000000000000D+00 0.120748061719D-01 0.256220615620D-03 0.000000000000D+00  6 1 -1 25 2 -2 21 2 0.40399363D+00 0.72855100D-01 0.28204376D+06 0.28204376D+06 0.28204376D+06 0.10865406D+01  1  2  6  1  6  1        1 0.565577704948D-01 0.100000000000D+01
-.140552729486D-01 0.000000000000D+00 -.111374515984D-02 0.256220615620D-03 0.000000000000D+00  6 21 -1 25 2 -2 -1 2 0.80144128D+00 0.72855100D-01 0.28204376D+06 0.28204376D+06 0.28204376D+06 0.10865406D+01  1  2  5  5  6  1        1 -.409996643719D-06 0.100000000000D+01
  </mgrwgt>
  </event>
  <event>
  5     66 0.18148205E-05 0.74779848E+02 0.75467711E-02 0.93309107E-01
        1 -1    0    0  502    0 0.00000000E+00 0.00000000E+00 0.36857292E+04 0.36857292E+04 0.32000000E+00 0.0000E+00 0.9000E+01
       -1 -1    0    0    0  501 0.00000000E+00 0.00000000E+00 -.16755175E+03 0.16755206E+03 0.32000000E+00 0.0000E+00 0.9000E+01
       25  1    1    2    0    0 -.47570342E+03 -.64105202E+02 0.11563941E+04 0.12582828E+04 0.12500000E+03 0.0000E+00 0.9000E+01
        2  1    1    2  502    0 -.71772027E+02 -.21095333E+02 0.18150765E+04 0.18166175E+04 0.32000000E+00 0.0000E+00 0.9000E+01
       -2  1    1    2    0  501 0.54747545E+03 0.85200535E+02 0.54670674E+03 0.77838093E+03 0.32000000E+00 0.0000E+00 0.9000E+01
#aMCatNLO 1  0  0  4  1 0.11598504D+02 0.00000000D+00  -5  6  0 0.00000000D+00 0.00000000D+00 0.00000000D+00 0.00000000D+00 0.00000000D+00
  <mgrwgt>
 0.1083691075D-01    8    2    0
 0.785844128841583D+03 0.000000000000000D+00 0.000000000000000D+00 0.785844128841583D+03
 0.785844128841583D+03 -.000000000000000D+00 -.000000000000000D+00 -.785844128841583D+03
 0.496474160872459D+03 -.475820718474358D+03 -.641252123964494D+02 0.185524505030541D+02
 0.390628069182559D+03 -.717450172647420D+02 -.210873938838091D+02 0.383403524697107D+03
 0.684586027628149D+03 0.547565735739100D+03 0.852126062802586D+02 -.401955975200161D+03
 0.000000000000000D+00 -.000000000000000D+00 0.000000000000000D+00 0.000000000000000D+00
 0.785844128841583D+03 0.000000000000000D+00 0.000000000000000D+00 0.785844128841583D+03
 0.785844128841583D+03 -.000000000000000D+00 -.000000000000000D+00 -.785844128841583D+03
 0.496534442670019D+03 -.475871058640762D+03 -.641400084472083D+02 0.188214670559675D+02
 0.283810264431323D+03 -.408377751761132D+02 -.135126658957022D+02 0.280531549340950D+03
 0.684310287033557D+03 0.547496340098393D+03 0.851922094183552D+02 -.401585126683288D+03
 0.107033263548268D+03 -.307875062815175D+02 -.753953507544458D+01 0.102232110286371D+03
0.609093166791D-03 0.000000000000D+00 0.000000000000D+00 0.404038599338D-05 0.000000000000D+00  6 1 -1 25 2 -2 21 0 0.56703528D+00 0.25777217D-01 0.31644211D+06 0.31644211D+06 0.31644211D+06 0.10828416D+01  1  2  2  3  6  4        2 0.164250242186D-03 0.100000000000D+01
0.149444927028D-03 0.000000000000D+00 -.233907813839D-05 0.404038599338D-05 0.000000000000D+00  6 1 -1 25 2 -2 21 2 0.56703528D+00 0.25777217D-01 0.31644211D+06 0.31644211D+06 0.31644211D+06 0.10828416D+01  1  2  3  3  6  4        2 0.472534274069D-04 0.100000000000D+01
-.411215627116D-03 0.000000000000D+00 0.000000000000D+00 0.404038599338D-05 0.000000000000D+00  6 1 -1 25 2 -2 21 2 0.56703528D+00 0.25777217D-01 0.31644211D+06 0.31644211D+06 0.31644211D+06 0.10828416D+01  1  2 15  3  6  4        2 -.130023468651D-03 0.100000000000D+01
0.135488160196D-06 0.000000000000D+00 0.000000000000D+00 0.404038599338D-05 0.000000000000D+00  6 1 -1 25 2 -2 21 2 0.56703528D+00 0.25777217D-01 0.31639215D+06 0.31639215D+06 0.31639215D+06 0.10828466D+01  1  2 12  3  6  4        2 0.428413186955D-07 0.100000000000D+01
0.382438968728D-01 0.000000000000D+00 0.000000000000D+00 0.404038599338D-05 0.000000000000D+00  6 1 -1 25 2 -2 21 2 0.56703528D+00 0.25777217D-01 0.31639215D+06 0.31639215D+06 0.31639215D+06 0.10828466D+01  1  2 12  3  6  4        2 0.120927095896D-01 0.100000000000D+01
-.176885090094D-01 0.000000000000D+00 0.000000000000D+00 0.404038599338D-05 0.000000000000D+00  6 1 -1 25 2 -2 21 2 0.56703528D+00 0.25777217D-01 0.31644211D+06 0.31644211D+06 0.31644211D+06 0.10828416D+01  1  2  4  3  6  4        2 -.559298126093D-02 0.100000000000D+01
-.431660253391D-01 0.000000000000D+00 0.000000000000D+00 0.404038599338D-05 0.000000000000D+00  6 1 -1 25 2 -2 21 2 0.56703528D+00 0.25777217D-01 0.31644211D+06 0.31644211D+06 0.31644211D+06 0.10828416D+01  1  2  5  3  6  4        2 -.136487914670D-01 0.100000000000D+01
0.566250851358D-01 0.000000000000D+00 -.000000000000D+00 0.404038599338D-05 0.000000000000D+00  6 1 -1 25 2 -2 21 2 0.56703528D+00 0.25777217D-01 0.31644211D+06 0.31644211D+06 0.31644211D+06 0.10828416D+01  1  2  6  3  6  4        2 0.179044508441D-01 0.100000000000D+01
  </mgrwgt>
  </event>
  <event>
  5     66 -.18148205E-05 0.12988554E+02 0.75467711E-02 0.92555776E-01
        1 -1    0    0  502    0 0.00000000E+00 0.00000000E+00 0.13679572E+04 0.13679572E+04 0.32000000E+00 0.0000E+00 0.9000E+01
       -1 -1    0    0    0  501 0.00000000E+00 0.00000000E+00 -.82258459E+03 0.82258465E+03 0.32000000E+00 0.0000E+00 0.9000E+01
       25  1    1    2    0    0 -.35527266E+03 0.47880926E+03 0.55526309E+03 0.82426881E+03 0.12500000E+03 0.0000E+00 0.9000E+01
        2  1    1    2  502    0 0.34773045E+03 -.46823712E+03 0.55270916E+03 0.80352348E+03 0.32000000E+00 0.0000E+00 0.9000E+01
       -2  1    1    2    0  501 0.75422133E+01 -.10572141E+02 -.56259963E+03 0.56274959E+03 0.32000000E+00 0.0000E+00 0.9000E+01
#aMCatNLO 1  0  0  4  1 0.11598504D+02 0.00000000D+00  -5  6  0 0.00000000D+00 0.00000000D+00 0.00000000D+00 0.00000000D+00 0.00000000D+00
  <mgrwgt>
 -.4124045017D-03    1    2    0
 0.106078302221404D+04 0.000000000000000D+00 0.000000000000000D+00 0.106078302221404D+04
 0.106078302221404D+04 -.000000000000000D+00 -.000000000000000D+00 -.106078302221404D+04
 0.708336023425776D+03 -.355223373520559D+03 0.478742949764330D+03 0.361574978446053D+03
 0.687467653289495D+03 0.347680100059920D+03 -.468169324073138D+03 0.364071155598174D+03
 0.725762367712802D+03 0.754327346063917D+01 -.105736256911914D+02 -.725646134044227D+03
 0.000000000000000D+00 0.000000000000000D+00 -.000000000000000D+00 0.000000000000000D+00
 0.106078302221404D+04 0.000000000000000D+00 0.000000000000000D+00 0.106078302221404D+04
 0.106078302221404D+04 -.000000000000000D+00 -.000000000000000D+00 -.106078302221404D+04
 0.707926736655074D+03 -.354756164831719D+03 0.478113828983423D+03 0.362064213254782D+03
 0.614775054918310D+03 0.325072904543492D+03 -.406248889098377D+03 0.327471853733728D+03
 0.725276020411730D+03 0.802195422658270D+01 -.112181942201350D+02 -.725144886317971D+03
 0.735882324429575D+02 0.216613060616440D+02 -.606467456649108D+02 0.356088193294605D+02
-.628146551095D-03 0.000000000000D+00 0.000000000000D+00 0.398806954115D-04 0.000000000000D+00  6 1 -1 25 2 -2 21 2 0.21045496D+00 0.12655148D+00 0.36315034D+06 0.36315034D+06 0.36315034D+06 0.10784666D+01  1  2 14  3  6  4        2 -.412404501654D-03 0.100000000000D+01
  </mgrwgt>
  </event>
  <event>
  5     66 0.18148205E-05 0.72806453E+02 0.75467711E-02 0.94189989E-01
        1 -1    0    0  502    0 0.00000000E+00 0.00000000E+00 0.50166276E+03 0.50166286E+03 0.32000000E+00 0.0000E+00 0.9000E+01
       -1 -1    0    0    0  501 0.00000000E+00 0.00000000E+00 -.20401837E+04 0.20401837E+04 0.32000000E+00 0.0000E+00 0.9000E+01
       25  1    1    2    0    0 0.43151315E+03 0.20160993E+03 -.51181036E+03 0.71022884E+03 0.12500000E+03 0.0000E+00 0.9000E+01
        2  1    1    2  502    0 -.38204585E+02 0.61985771E+02 0.35948885E+03 0.36678899E+03 0.32000000E+00 0.0000E+00 0.9000E+01
       -2  1    1    2    0  501 -.39330856E+03 -.26359570E+03 -.13861994E+04 0.14648288E+04 0.32000000E+00 0.0000E+00 0.9000E+01
#aMCatNLO 1  0  0  1  4 0.41545362D+00 0.00000000D+00  -5  6  0 0.00000000D+00 0.00000000D+00 0.00000000D+00 0.00000000D+00 0.00000000D+00
  <mgrwgt>
 0.1496075542D-02    9    2    0
 0.101167403064764D+04 0.000000000000000D+00 0.000000000000000D+00 0.101167403064764D+04
 0.101167403064764D+04 0.000000000000000D+00 0.000000000000000D+00 -.101167403064764D+04
 0.503106195620969D+03 0.431564717503555D+03 0.201647430364256D+03 -.102864243086572D+03
 0.734058442009553D+03 -.382008140070601D+02 0.619796533517318D+02 0.730438920557420D+03
 0.786183423664755D+03 -.393363903496495D+03 -.263627083715988D+03 -.627574677470848D+03
 0.000000000000000D+00 0.000000000000000D+00 0.000000000000000D+00 0.000000000000000D+00
 0.103968996671007D+04 0.000000000000000D+00 0.000000000000000D+00 0.103968996671007D+04
 0.101167559218514D+04 0.000000000000000D+00 0.000000000000000D+00 -.101167559218514D+04
 0.503015521321088D+03 0.431461569594794D+03 0.201641950364872D+03 -.102864243086572D+03
 0.734065615038405D+03 -.383513265382346D+02 0.619716569843025D+02 0.730438920557420D+03
 0.786266967588283D+03 -.393525111595632D+03 -.263635648313123D+03 -.627574677470848D+03
 0.280174549474328D+02 0.414868539072591D+00 0.220409639476181D-01 0.280143745249224D+02
0.544812572371D-04 0.000000000000D+00 0.000000000000D+00 0.522191455328D-04 0.000000000000D+00  6 1 -1 25 2 -2 21 0 0.77178896D-01 0.31387442D+00 0.26978603D+06 0.26978603D+06 0.26978603D+06 0.10879792D+01  1  2  2  1  6  1        1 0.450964393672D-05 0.100000000000D+01
0.176724658640D-04 0.000000000000D+00 -.209222373035D-06 0.522191455328D-04 0.000000000000D+00  6 1 -1 25 2 -2 21 2 0.77178896D-01 0.31387442D+00 0.26978603D+06 0.26978603D+06 0.26978603D+06 0.10879792D+01  1  2  3  1  6  1        1 0.173154389530D-05 0.100000000000D+01
-.387235403594D-04 0.000000000000D+00 0.000000000000D+00 0.522191455328D-04 0.000000000000D+00  6 1 -1 25 2 -2 21 2 0.77178896D-01 0.31387442D+00 0.26978603D+06 0.26978603D+06 0.26978603D+06 0.10879792D+01  1  2 15  1  6  1        1 -.379412304032D-05 0.100000000000D+01
-.348428872335D+01 0.000000000000D+00 0.000000000000D+00 0.522191455328D-04 0.000000000000D+00  6 1 -1 25 2 -2 21 2 0.77178896D-01 0.31387442D+00 0.26978603D+06 0.26978603D+06 0.26978603D+06 0.10879792D+01  1  2  4  1  6  1        1 -.341389759348D+00 0.100000000000D+01
-.409015724235D+01 0.000000000000D+00 -.461880608875D-03 0.522191455328D-04 0.000000000000D+00  6 1 -1 25 2 -2 21 2 0.79316240D-01 0.31387442D+00 0.26978603D+06 0.26978603D+06 0.26978603D+06 0.10879792D+01  1  2  5  1  6  1        1 -.385667882388D+00 0.100000000000D+01
0.408864444306D+01 0.000000000000D+00 0.461708332459D-03 0.522191455328D-04 0.000000000000D+00  6 1 -1 25 2 -2 21 2 0.77178896D-01 0.31387442D+00 0.26978603D+06 0.26978603D+06 0.26978603D+06 0.10879792D+01  1  2  6  1  6  1        1 0.400604385371D+00 0.100000000000D+01
0.347878579195D+01 0.000000000000D+00 0.000000000000D+00 0.522191455328D-04 0.163307127203D-02  6 1 -1 25 2 -2 21 2 0.79316184D-01 0.31387491D+00 0.27006336D+06 0.27006336D+06 0.27006336D+06 0.10879459D+01  1  2 11  1  6  1        1 0.327968164470D+00 0.100000000000D+01
-.201167689602D-01 0.000000000000D+00 -.227169828058D-05 0.522191455328D-04 0.000000000000D+00  6 21 -1 25 2 -2 -1 2 0.79316240D-01 0.31387442D+00 0.26978603D+06 0.26978603D+06 0.26978603D+06 0.10879792D+01  1  2  5  5  6  1        1 -.535947655481D-02 0.100000000000D+01
0.200407879008D-01 0.000000000000D+00 0.000000000000D+00 0.522191455328D-04 0.936644590229D-05  6 21 -1 25 2 -2 -1 2 0.79316184D-01 0.31387491D+00 0.27006336D+06 0.27006336D+06 0.27006336D+06 0.10879459D+01  1  2 11  5  6  1        1 0.533819692629D-02 0.100000000000D+01
  </mgrwgt>
  </event>
  <event>
  6     66 0.18148205E-05 0.36619301E+02 0.75467711E-02 0.93842400E-01
        1 -1    0    0  502    0 0.00000000E+00 0.00000000E+00 0.21086325E+04 0.21086326E+04 0.32000000E+00 0.0000E+00 0.9000E+01
       21 -1    0    0  503  501 0.00000000E+00 0.00000000E+00 -.13022108E+04 0.13022110E+04 0.75000000E+00 0.0000E+00 0.9000E+01
       25  1    1    2    0    0 -.38053017E+03 0.30733928E+03 0.12483037E+04 0.13465317E+04 0.12500000E+03 0.0000E+00 0.9000E+01
        2  1    1    2  502    0 0.30891295E+02 0.15290114E+02 0.73951673E+03 0.74031964E+03 0.32000000E+00 0.0000E+00 0.9000E+01
        1  1    1    2  503    0 -.36589804E+02 -.39506069E+02 -.52691690E+01 0.54105543E+02 0.32000000E+00 0.0000E+00 0.9000E+01
       -2  1    1    2    0  501 0.38622868E+03 -.28312332E+03 -.11761295E+04 0.12698867E+04 0.32000000E+00 0.0000E+00 0.9000E+01
#aMCatNLO 2  0  0  2  5 0.10289863D+02 0.00000000D+00  -5  6  0 0.00000000D+00 0.00000000D+00 0.00000000D+00 0.00000000D+00 0.00000000D+00
  <mgrwgt>
 0.7392898364D-03    1    2    0
 0.162833877206143D+04 0.000000000000000D+00 0.000000000000000D+00 0.162833877206143D+04
 0.162833877206143D+04 0.000000000000000D+00 0.000000000000000D+00 -.162833877206143D+04
 0.107751732542873D+04 -.392656945574827D+03 0.294307557104623D+03 0.951116276551949D+03
 0.578014940254033D+03 0.243842298082636D+02 0.827072963712092D+01 0.577441144641426D+03
 0.000000000000000D+00 -.000000000000000D+00 -.000000000000000D+00 -.000000000000000D+00
 0.160114527844009D+04 0.368272715766563D+03 -.302578286741744D+03 -.152855742119337D+04
 0.164764075207957D+04 0.000000000000000D+00 0.000000000000000D+00 0.164764075207957D+04
 0.166655443342466D+04 0.000000000000000D+00 0.000000000000000D+00 -.166655443342466D+04
 0.107682316354118D+04 -.380555423727134D+03 0.307373589445563D+03 0.951116276551949D+03
 0.578468241166705D+03 0.308805132686112D+02 0.152847771971802D+02 0.577441144641426D+03
 0.570725028842600D+02 -.365898037747623D+02 -.395060691941677D+02 -.189136813450976D+02
 0.160183127791209D+04 0.386264714233285D+03 -.283152297448575D+03 -.152855742119337D+04
0.216909562679D-02 0.000000000000D+00 0.000000000000D+00 0.117508844178D-02 0.735421283404D-08  6 1 21 25 2 1 -2 2 0.32440494D+00 0.20034009D+00 0.28736961D+06 0.28736961D+06 0.28736961D+06 0.10859366D+01  1  2  1  6  5  2       -1 0.739289836372D-03 0.100000000000D+01
  </mgrwgt>
  </event>
  <event>
  5     66 0.18148205E-05 0.23173393E+03 0.75467711E-02 0.93058490E-01
        1 -1    0    0  502    0 0.00000000E+00 0.00000000E+00 0.14513478E+04 0.14513478E+04 0.32000000E+00 0.0000E+00 0.9000E+01
       -1 -1    0    0    0  501 0.00000000E+00 0.00000000E+00 -.62036622E+03 0.62036630E+03 0.32000000E+00 0.0000E+00 0.9000E+01
       25  1    1    2    0    0 0.37020242E+03 0.40236585E+03 0.67307397E+03 0.87612880E+03 0.12500000E+03 0.0000E+00 0.9000E+01
        2  1    1    2  502    0 -.17242016E+03 -.19686211E+03 0.60845636E+03 0.66234632E+03 0.32000000E+00 0.0000E+00 0.9000E+01
       -2  1    1    2    0  501 -.19778226E+03 -.20550374E+03 -.45054873E+03 0.53323904E+03 0.32000000E+00 0.0000E+00 0.9000E+01
#aMCatNLO 1  0  0  1  4 0.61449164D+02 0.00000000D+00  -5  6  0 0.00000000D+00 0.00000000D+00 0.00000000D+00 0.00000000D+00 0.00000000D+00
  <mgrwgt>
 0.8873710094D-04   11    2    0
 0.948876851732297D+03 0.000000000000000D+00 0.000000000000000D+00 0.948876851732297D+03
 0.948876851732297D+03 0.000000000000000D+00 0.000000000000000D+00 -.948876851732297D+03
 0.661790417427451D+03 0.370179921353639D+03 0.402336900932567D+03 0.351330898973306D+03
 0.456477394398971D+03 -.172361597096612D+03 -.196795245269091D+03 0.374078498290208D+03
 0.779485891638172D+03 -.197818324257026D+03 -.205541655663476D+03 -.725409397263514D+03
 0.000000000000000D+00 -.000000000000000D+00 -.000000000000000D+00 0.000000000000000D+00
 0.115011571825299D+04 0.000000000000000D+00 0.000000000000000D+00 0.115011571825299D+04
 0.954076714953498D+03 0.000000000000000D+00 0.000000000000000D+00 -.954076714953498D+03
 0.679631134254284D+03 0.382258942529479D+03 0.420378613788354D+03 0.351330898973306D+03
 0.448316648747967D+03 -.164214250430500D+03 -.184626039921512D+03 0.374078498290208D+03
 0.770800520161671D+03 -.183858549737770D+03 -.184690773812909D+03 -.725409397263514D+03
 0.205444130042563D+03 -.341861423612096D+02 -.510618000539324D+02 0.196039003299488D+03
0.704364595797D-04 0.000000000000D+00 0.000000000000D+00 0.178926030868D-05 0.000000000000D+00  6 1 -1 25 2 -2 21 0 0.22328429D+00 0.95440966D-01 0.30675418D+06 0.30675418D+06 0.30675418D+06 0.10838372D+01  1  2  2  1  6  1        1 0.686114153356D-04 0.100000000000D+01
0.499593422272D-05 0.000000000000D+00 -.270494551132D-06 0.178926030868D-05 0.000000000000D+00  6 1 -1 25 2 -2 21 2 0.22328429D+00 0.95440966D-01 0.30675418D+06 0.30675418D+06 0.30675418D+06 0.10838372D+01  1  2  3  1  6  1        1 0.571667749298D-05 0.100000000000D+01
-.497315523542D-04 0.000000000000D+00 0.000000000000D+00 0.178926030868D-05 0.000000000000D+00  6 1 -1 25 2 -2 21 2 0.22328429D+00 0.95440966D-01 0.30675418D+06 0.30675418D+06 0.30675418D+06 0.10838372D+01  1  2 15  1  6  1        1 -.569061227310D-04 0.100000000000D+01
0.721847830961D-08 0.000000000000D+00 0.000000000000D+00 0.178926030868D-05 0.000000000000D+00  6 1 -1 25 2 -2 21 2 0.27116588D+00 0.95440966D-01 0.33115439D+06 0.33115439D+06 0.33115439D+06 0.10813915D+01  1  2 12  1  6  1        1 0.506394710370D-08 0.100000000000D+01
0.107337551759D-02 0.000000000000D+00 0.000000000000D+00 0.178926030868D-05 0.000000000000D+00  6 1 -1 25 2 -2 21 2 0.28514880D+00 0.95440966D-01 0.33115439D+06 0.33115439D+06 0.33115439D+06 0.10813915D+01  1  2 12  1  6  1        1 0.655205803845D-03 0.100000000000D+01
-.107879631076D-02 0.000000000000D+00 0.000000000000D+00 0.178926030868D-05 0.000000000000D+00  6 1 -1 25 2 -2 21 2 0.22328429D+00 0.95440966D-01 0.30675418D+06 0.30675418D+06 0.30675418D+06 0.10838372D+01  1  2  4  1  6  1        1 -.123442990126D-02 0.100000000000D+01
-.153895336985D-02 0.000000000000D+00 -.781519462381D-04 0.178926030868D-05 0.000000000000D+00  6 1 -1 25 2 -2 21 2 0.27114454D+00 0.95440966D-01 0.30675418D+06 0.30675418D+06 0.30675418D+06 0.10838372D+01  1  2  5  1  6  1        1 -.109043756326D-02 0.100000000000D+01
0.152670077000D-02 0.000000000000D+00 0.767009649918D-04 0.178926030868D-05 0.000000000000D+00  6 1 -1 25 2 -2 21 2 0.22328429D+00 0.95440966D-01 0.30675418D+06 0.30675418D+06 0.30675418D+06 0.10838372D+01  1  2  6  1  6  1        1 0.174695172940D-02 0.100000000000D+01
0.202015056694D-09 0.000000000000D+00 0.000000000000D+00 0.178926030868D-05 0.000000000000D+00  6 21 -1 25 2 -2 -1 2 0.27116588D+00 0.95440966D-01 0.33115439D+06 0.33115439D+06 0.33115439D+06 0.10813915D+01  1  2 12  5  6  1        1 0.865651833886D-10 0.100000000000D+01
0.357412880891D-04 0.000000000000D+00 0.000000000000D+00 0.178926030868D-05 0.000000000000D+00  6 21 -1 25 2 -2 -1 2 0.28514880D+00 0.95440966D-01 0.33115439D+06 0.33115439D+06 0.33115439D+06 0.10813915D+01  1  2 12  5  6  1        1 0.123475757163D-04 0.100000000000D+01
-.421998658349D-04 0.000000000000D+00 -.218646321915D-05 0.178926030868D-05 0.000000000000D+00  6 21 -1 25 2 -2 -1 2 0.27114454D+00 0.95440966D-01 0.30675418D+06 0.30675418D+06 0.30675418D+06 0.10838372D+01  1  2  5  5  6  1        1 -.183276641205D-04 0.100000000000D+01
  </mgrwgt>
  </event>
  <event>
  5     66 0.18148205E-05 0.39125996E+02 0.75467711E-02 0.91999985E-01
        1 -1    0    0  502    0 0.00000000E+00 0.00000000E+00 0.10270751E+04 0.10270752E+04 0.32000000E+00 0.0000E+00 0.9000E+01
       -1 -1    0    0    0  501 -.00000000E+00 -.00000000E+00 -.14259624E+04 0.14259624E+04 0.32000000E+00 0.0000E+00 0.9000E+01
       25  1    1    2    0    0 0.40596724E+03 -.29155122E+03 0.21263837E+01 0.51520970E+03 0.12500000E+03 0.0000E+00 0.9000E+01
        2  1    1    2  502    0 -.36833133E+03 0.30223060E+03 0.69416645E+03 0.84194921E+03 0.32000000E+00 0.0000E+00 0.9000E+01
       -2  1    1    2    0  501 -.37635918E+02 -.10679388E+02 -.10951801E+04 0.10958787E+04 0.32000000E+00 0.0000E+00 0.9000E+01
#aMCatNLO 1  0  0  5  4 0.32934023D+02 0.00000000D+00  -5  6  0 0.00000000D+00 0.00000000D+00 0.00000000D+00 0.00000000D+00 0.00000000D+00
  <mgrwgt>
 0.1988480750D-02    3    2    0
 0.121019445010422D+04 0.000000000000000D+00 0.000000000000000D+00 0.121019445010422D+04
 0.121019445010422D+04 -.000000000000000D+00 -.000000000000000D+00 -.121019445010422D+04
 0.522505253399540D+03 0.405952269210095D+03 -.291534509057064D+03 0.871614879528125D+02
 0.967656786883902D+03 -.368312239113805D+03 0.302214942650573D+03 0.842242174294403D+03
 0.930226859925003D+03 -.376400300962895D+02 -.106804335935080D+02 -.929403662247216D+03
 0.000000000000000D+00 0.000000000000000D+00 0.000000000000000D+00 0.000000000000000D+00
 0.121019445010422D+04 0.000000000000000D+00 0.000000000000000D+00 0.121019445010422D+04
 0.121019445010422D+04 -.000000000000000D+00 -.000000000000000D+00 -.121019445010422D+04
 0.513692775903203D+03 0.403114046346474D+03 -.292339860453993D+03 0.170803876727345D+02
 0.863669805995409D+03 -.373328377785835D+03 0.300791603300275D+03 0.718384206056894D+03
 0.186650963835307D+03 -.893678970228756D+02 -.120070642585223D+03 0.111512340445035D+03
 0.856375354474527D+03 0.595822284622378D+02 0.111618899738942D+03 -.846976934174664D+03
0.131706569619D-01 0.000000000000D+00 0.000000000000D+00 0.359955048714D-03 0.000000000000D+00  6 1 -1 25 2 -2 21 0 0.15801156D+00 0.21937884D+00 0.26560747D+06 0.26560747D+06 0.26560747D+06 0.10884860D+01  1  2  2  4  6  5       -2 0.229268414887D-02 0.100000000000D+01
0.744585534849D-02 0.000000000000D+00 -.505787906474D-04 0.359955048714D-03 0.000000000000D+00  6 1 -1 25 2 -2 21 2 0.15801156D+00 0.21937884D+00 0.26560747D+06 0.26560747D+06 0.26560747D+06 0.10884860D+01  1  2  3  4  6  5       -2 0.153566723193D-02 0.100000000000D+01
-.892081975325D-02 0.000000000000D+00 0.000000000000D+00 0.359955048714D-03 0.000000000000D+00  6 1 -1 25 2 -2 21 2 0.15801156D+00 0.21937884D+00 0.26560747D+06 0.26560747D+06 0.26560747D+06 0.10884860D+01  1  2 15  4  6  5       -2 -.183987063082D-02 0.100000000000D+01
  </mgrwgt>
  </event>
  <event>
  5     66 -.18148205E-05 0.40006568E+02 0.75467711E-02 0.92029500E-01
        1 -1    0    0  502    0 0.00000000E+00 0.00000000E+00 0.68090184E+03 0.68090192E+03 0.32000000E+00 0.0000E+00 0.9000E+01
       -1 -1    0    0    0  501 0.00000000E+00 0.00000000E+00 -.15459818E+04 0.15459818E+04 0.32000000E+00 0.0000E+00 0.9000E+01
       25  1    1    2    0    0 -.79374290E+02 0.56817999E+03 -.10365787E+04 0.11913225E+04 0.12500000E+03 0.0000E+00 0.9000E+01
        2  1    1    2  502    0 0.53767254E+02 -.53743492E+03 0.48114230E+03 0.72334309E+03 0.32000000E+00 0.0000E+00 0.9000E+01
       -2  1    1    2    0  501 0.25607036E+02 -.30745070E+02 -.30964351E+03 0.31221817E+03 0.32000000E+00 0.0000E+00 0.9000E+01
#aMCatNLO 1  0  0  1  2 0.49199605D+03 0.00000000D+00  -5  6  0 0.00000000D+00 0.00000000D+00 0.00000000D+00 0.00000000D+00 0.00000000D+00
  <mgrwgt>
 -.3486907586D-03    7    2    0
 0.102599316123184D+04 0.000000000000000D+00 0.000000000000000D+00 0.102599316123184D+04
 0.102599316123184D+04 0.000000000000000D+00 0.000000000000000D+00 -.102599316123184D+04
 0.855897164217167D+03 -.793713684907244D+02 0.568179831675842D+03 -.622741375255980D+03
 0.987844844884814D+03 0.537676970136537D+02 -.537439345078939D+03 0.827106657381302D+03
 0.208244313361692D+03 0.256036714770706D+02 -.307404865969027D+02 -.204365282125322D+03
 0.000000000000000D+00 -.000000000000000D+00 -.000000000000000D+00 0.000000000000000D+00
 0.192215925363069D+04 0.000000000000000D+00 0.000000000000000D+00 0.192215925363069D+04
 0.102931729658374D+04 0.000000000000000D+00 0.000000000000000D+00 -.102931729658374D+04
 0.856062474679388D+03 -.416511960322612D+02 0.572430186107940D+03 -.622741375255980D+03
 0.988517203233173D+03 0.973135351289860D+02 -.532532547628934D+03 0.827106657381302D+03
 0.209425279860077D+03 0.348063236477351D+02 -.297035206741271D+02 -.204365282125322D+03
 0.897471592441793D+03 -.904686627444599D+02 -.101941178048788D+02 0.892841957046944D+03
0.705644451277D-04 0.000000000000D+00 0.000000000000D+00 0.168161473020D-04 0.000000000000D+00  6 1 -1 25 2 -2 21 0 0.10475414D+00 0.23784336D+00 0.34063893D+06 0.34063893D+06 0.34063893D+06 0.10804934D+01  1  2  2  1  6  1        1 0.166551170108D-04 0.100000000000D+01
0.182800097235D-04 0.000000000000D+00 -.270986049336D-06 0.168161473020D-04 0.000000000000D+00  6 1 -1 25 2 -2 21 2 0.10475414D+00 0.23784336D+00 0.34063893D+06 0.34063893D+06 0.34063893D+06 0.10804934D+01  1  2  3  1  6  1        1 0.503712114699D-05 0.100000000000D+01
-.518576543675D-04 0.000000000000D+00 0.000000000000D+00 0.168161473020D-04 0.000000000000D+00  6 1 -1 25 2 -2 21 2 0.10475414D+00 0.23784336D+00 0.34063893D+06 0.34063893D+06 0.34063893D+06 0.10804934D+01  1  2 15  1  6  1        1 -.142895595461D-04 0.100000000000D+01
-.327937906405D-02 0.000000000000D+00 0.000000000000D+00 0.168161473020D-04 0.000000000000D+00  6 1 -1 25 2 -2 21 2 0.10475414D+00 0.23784336D+00 0.34063893D+06 0.34063893D+06 0.34063893D+06 0.10804934D+01  1  2  4  1  6  1        1 -.903644466409D-03 0.100000000000D+01
-.415244237379D-02 0.000000000000D+00 -.403363963453D-04 0.168161473020D-04 0.000000000000D+00  6 1 -1 25 2 -2 21 2 0.19643434D+00 0.23784336D+00 0.34063893D+06 0.34063893D+06 0.34063893D+06 0.10804934D+01  1  2  5  1  6  1        1 -.384857481389D-03 0.100000000000D+01
0.347493590386D-02 0.000000000000D+00 0.334954214144D-04 0.168161473020D-04 0.000000000000D+00  6 1 -1 25 2 -2 21 2 0.10475414D+00 0.23784336D+00 0.34063893D+06 0.34063893D+06 0.34063893D+06 0.10804934D+01  1  2  6  1  6  1        1 0.957530843285D-03 0.100000000000D+01
-.281907926932D-03 0.000000000000D+00 -.276045501001D-05 0.168161473020D-04 0.000000000000D+00  6 21 -1 25 2 -2 -1 2 0.19643434D+00 0.23784336D+00 0.34063893D+06 0.34063893D+06 0.34063893D+06 0.10804934D+01  1  2  5  5  6  1        1 -.251223326592D-04 0.100000000000D+01
  </mgrwgt>
  </event>
  <event>
  6     66 0.18148205E-05 0.15471490E+02 0.75467711E-02 0.94473527E-01
        1 -1    0    0  502    0 0.00000000E+00 0.00000000E+00 0.81143016E+03 0.81143022E+03 0.32000000E+00 0.0000E+00 0.9000E+01
       -1 -1    0    0    0  503 0.00000000E+00 0.00000000E+00 -.86584551E+03 0.86584556E+03 0.32000000E+00 0.0000E+00 0.9000E+01
       25  1    1    2    0    0 -.48936134E+03 0.35398073E+02 0.53727332E+03 0.73825142E+03 0.12500000E+03 0.0000E+00 0.9000E+01
        2  1    1    2  502    0 0.14754107E+02 0.24461859E+02 0.91361369E+02 0.95723918E+02 0.32000000E+00 0.0000E+00 0.9000E+01
       -2  1    1    2    0  501 0.44938675E+03 -.53462683E+02 -.57272206E+03 0.72994340E+03 0.32000000E+00 0.0000E+00 0.9000E+01
       21  1    1    2  501  503 0.25220479E+02 -.63972501E+01 -.11032798E+03 0.11335706E+03 0.75000000E+00 0.0000E+00 0.9000E+01
#aMCatNLO 2  0  0  2  5 0.26019173D+02 0.00000000D+00  -5  6  0 0.00000000D+00 0.00000000D+00 0.00000000D+00 0.00000000D+00 0.00000000D+00
  <mgrwgt>
 0.9272347738D-02    3    2    0
 0.781351166865732D+03 0.000000000000000D+00 0.000000000000000D+00 0.781351166865732D+03
 0.781351166865732D+03 0.000000000000000D+00 0.000000000000000D+00 -.781351166865732D+03
 0.711783075705621D+03 -.477866184090533D+03 0.325441481497420D+02 0.511463523024775D+03
 0.923886735493837D+02 0.161995486105220D+02 0.240105088374962D+02 0.877310497508975D+02
 0.758530584476459D+03 0.461666635480011D+03 -.565546569872383D+02 -.599194572775672D+03
 0.000000000000000D+00 0.000000000000000D+00 -.000000000000000D+00 -.000000000000000D+00
 0.782919596021541D+03 0.000000000000000D+00 0.000000000000000D+00 0.782919596021541D+03
 0.897373264375970D+03 0.000000000000000D+00 0.000000000000000D+00 -.897373264375970D+03
 0.719727248021032D+03 -.489416968142455D+03 0.354740391450011D+02 0.511463523024775D+03
 0.922383262211994D+02 0.147098027322301D+02 0.243883873446531D+02 0.877310497508975D+02
 0.750953355589523D+03 0.449486686280515D+03 -.534651763665369D+02 -.599194572775672D+03
 0.117373930565758D+03 0.252204791297096D+02 -.639725012311731D+01 -.114453668354429D+03
-.624656284178D-07 0.000000000000D+00 0.000000000000D+00 0.607051418796D-05 0.000000000000D+00  6 1 -1 25 2 -2 21 2 0.12458514D+00 0.13331269D+00 0.25680940D+06 0.25680940D+06 0.25680940D+06 0.10895822D+01  1  2 13  2  6  2       -1 -.979509336071D-07 0.100000000000D+01
-.573456440405D-02 0.000000000000D+00 0.000000000000D+00 0.607051418796D-05 0.000000000000D+00  6 1 -1 25 2 -2 21 2 0.12458514D+00 0.13439805D+00 0.25680940D+06 0.25680940D+06 0.25680940D+06 0.10895822D+01  1  2 13  2  6  2       -1 -.880225291821D-02 0.100000000000D+01
0.115396505583D-01 0.000000000000D+00 0.000000000000D+00 0.607051418796D-05 0.132452167573D-06  6 1 -1 25 2 -2 21 2 0.12483523D+00 0.13320681D+00 0.25680940D+06 0.25680940D+06 0.25680940D+06 0.10895822D+01  1  2  1  2  6  2       -1 0.180746986070D-01 0.100000000000D+01
  </mgrwgt>
  </event>
  <event>
  5     66 0.18148205E-05 0.35431754E+02 0.75467711E-02 0.92304866E-01
        1 -1    0    0  502    0 0.00000000E+00 0.00000000E+00 0.15531609E+04 0.15531609E+04 0.32000000E+00 0.0000E+00 0.9000E+01
       -1 -1    0    0    0  501 0.00000000E+00 0.00000000E+00 -.39030375E+03 0.39030388E+03 0.32000000E+00 0.0000E+00 0.9000E+01
       25  1    1    2    0    0 -.37888615E+03 0.28840630E+03 0.16724844E+03 0.51993264E+03 0.12500000E+03 0.0000E+00 0.9000E+01
        2  1    1    2  502    0 0.34746716E+03 -.30477943E+03 0.11635010E+04 0.12519420E+04 0.32000000E+00 0.0000E+00 0.9000E+01
       -2  1    1    2    0  501 0.31418988E+02 0.16373127E+02 -.16789237E+03 0.17159016E+03 0.32000000E+00 0.0000E+00 0.9000E+01
#aMCatNLO 1  0  0  5  2 0.15981440D+02 0.00000000D+00  -5  6  0 0.00000000D+00 0.00000000D+00 0.00000000D+00 0.00000000D+00 0.00000000D+00
  <mgrwgt>
 0.1645252721D-01    4    2    0
 0.778591460442903D+03 0.000000000000000D+00 0.000000000000000D+00 0.778591460442903D+03
 0.778591460442903D+03 -.000000000000000D+00 -.000000000000000D+00 -.778591460442903D+03
 0.523997032852056D+03 -.378883531022373D+03 0.288401077371624D+03 -.179499244925054D+03
 0.693626939937617D+03 0.347462166536028D+03 -.304775052749152D+03 0.517204545470226D+03
 0.339558948096133D+03 0.314213644863444D+02 0.163739753775280D+02 -.337705300545172D+03
 0.000000000000000D+00 0.000000000000000D+00 0.000000000000000D+00 0.000000000000000D+00
 0.778591460442903D+03 0.000000000000000D+00 0.000000000000000D+00 0.778591460442903D+03
 0.778591460442903D+03 -.000000000000000D+00 -.000000000000000D+00 -.778591460442903D+03
 0.550894821290589D+03 -.372006698867836D+03 0.291984660777835D+03 -.253408914588059D+03
 0.631247499559399D+03 0.355938311472045D+03 -.300358052063551D+03 0.426106048639317D+03
 0.136113532347372D+03 -.108410645922950D+03 0.802794686396758D+02 0.181447638060985D+02
 0.238927067688446D+03 0.124479033318740D+03 -.719060773539601D+02 -.190841897857356D+03
0.129106199100D-01 0.000000000000D+00 0.000000000000D+00 0.360823390829D-04 0.000000000000D+00  6 1 -1 25 2 -2 21 0 0.23894784D+00 0.60046743D-01 0.24498210D+06 0.24498210D+06 0.24498210D+06 0.10911222D+01  1  2  2  4  6  5       -2 0.277408399817D-01 0.100000000000D+01
0.528101077532D-02 0.000000000000D+00 -.495801798986D-04 0.360823390829D-04 0.000000000000D+00  6 1 -1 25 2 -2 21 2 0.23894784D+00 0.60046743D-01 0.24498210D+06 0.24498210D+06 0.24498210D+06 0.10911222D+01  1  2  3  4  6  5       -2 0.135094082992D-01 0.100000000000D+01
-.951095779358D-02 0.000000000000D+00 0.000000000000D+00 0.360823390829D-04 0.000000000000D+00  6 1 -1 25 2 -2 21 2 0.23894784D+00 0.60046743D-01 0.24498210D+06 0.24498210D+06 0.24498210D+06 0.10911222D+01  1  2 15  4  6  5       -2 -.243300795277D-01 0.100000000000D+01
-.182807415181D-03 0.000000000000D+00 0.000000000000D+00 0.360823390829D-04 0.000000000000D+00  6 1 -1 25 2 -2 21 2 0.23894784D+00 0.60046743D-01 0.24498210D+06 0.24498210D+06 0.24498210D+06 0.10911222D+01  1  2  4  4  6  5       -2 -.467641540014D-03 0.100000000000D+01
  </mgrwgt>
  </event>
  <event>
  5     66 0.18148205E-05 0.51895996E+02 0.75467711E-02 0.94596312E-01
        1 -1    0    0  502    0 0.00000000E+00 0.00000000E+00 0.27485437E+04 0.27485438E+04 0.32000000E+00 0.0000E+00 0.9000E+01
       -1 -1    0    0    0  501 0.00000000E+00 0.00000000E+00 -.42277550E+03 0.42277562E+03 0.32000000E+00 0.0000E+00 0.9000E+01
       25  1    1    2    0    0 -.47174142E+03 -.46991791E+02 -.16631072E+02 0.49056069E+03 0.12500000E+03 0.0000E+00 0.9000E+01
        2  1    1    2  502    0 0.41985553E+03 0.45840835E+02 0.24893437E+04 0.25249183E+04 0.32000000E+00 0.0000E+00 0.9000E+01
       -2  1    1    2    0  501 0.51885887E+02 0.11509556E+01 -.14694442E+03 0.15584041E+03 0.32000000E+00 0.0000E+00 0.9000E+01
#aMCatNLO 1  0  0  5  4 0.21699339D+02 0.00000000D+00  -5  6  0 0.00000000D+00 0.00000000D+00 0.00000000D+00 0.00000000D+00 0.00000000D+00
  <mgrwgt>
 0.2528125039D-02    5    2    0
 0.107796900925293D+04 0.000000000000000D+00 0.000000000000000D+00 0.107796900925293D+04
 0.107796900925293D+04 -.000000000000000D+00 -.000000000000000D+00 -.107796900925293D+04
 0.739561666781547D+03 -.471740478260226D+03 -.469919072484898D+02 -.553695891981024D+03
 0.102864491409692D+04 0.419857245612310D+03 0.458410227512829D+02 0.937938619120367D+03
 0.387731437627391D+03 0.518832326479165D+02 0.115088449720687D+01 -.384242727139343D+03
 0.000000000000000D+00 0.000000000000000D+00 -.000000000000000D+00 0.000000000000000D+00
 0.107796900925293D+04 0.000000000000000D+00 0.000000000000000D+00 0.107796900925293D+04
 0.107796900925293D+04 -.000000000000000D+00 -.000000000000000D+00 -.107796900925293D+04
 0.746652019380421D+03 -.470304012271892D+03 -.469600432656120D+02 -.564334234671540D+03
 0.101613760573296D+04 0.421833583584853D+03 0.458848622851315D+02 0.923302031275654D+03
 0.370232075612929D+03 0.651180645979627D+02 0.159601731745279D+02 -.364110835252005D+03
 0.229163177795474D+02 -.166476359109229D+02 -.148849921940474D+02 0.514303864789091D+01
0.161031290352D-01 0.000000000000D+00 0.000000000000D+00 0.110961869453D-03 0.000000000000D+00  6 1 -1 25 2 -2 21 0 0.42285289D+00 0.65042396D-01 0.23257767D+06 0.23257767D+06 0.23257767D+06 0.10928271D+01  1  2  2  4  6  5       -2 0.463427167601D-02 0.100000000000D+01
0.381789371498D-02 0.000000000000D+00 -.618402555462D-04 0.110961869453D-03 0.000000000000D+00  6 1 -1 25 2 -2 21 2 0.42285289D+00 0.65042396D-01 0.23257767D+06 0.23257767D+06 0.23257767D+06 0.10928271D+01  1  2  3  4  6  5       -2 0.131219371775D-02 0.100000000000D+01
-.954526839800D-02 0.000000000000D+00 0.000000000000D+00 0.110961869453D-03 0.000000000000D+00  6 1 -1 25 2 -2 21 2 0.42285289D+00 0.65042396D-01 0.23257767D+06 0.23257767D+06 0.23257767D+06 0.10928271D+01  1  2 15  4  6  5       -2 -.328066786589D-02 0.100000000000D+01
0.375082003780D-09 0.000000000000D+00 0.000000000000D+00 0.110961869453D-03 0.000000000000D+00  6 1 -1 25 2 -2 21 2 0.42285289D+00 0.65042396D-01 0.25129754D+06 0.25129754D+06 0.25129754D+06 0.10902900D+01  1  2 12  4  6  5       -2 0.127528346977D-09 0.100000000000D+01
-.400565410625D-03 0.000000000000D+00 0.000000000000D+00 0.110961869453D-03 0.000000000000D+00  6 1 -1 25 2 -2 21 2 0.42285289D+00 0.65042396D-01 0.23257767D+06 0.23257767D+06 0.23257767D+06 0.10928271D+01  1  2  4  4  6  5       -2 -.137672616005D-03 0.100000000000D+01
  </mgrwgt>
  </event>
  <event>
  6     66 0.18148205E-05 0.13990035E+03 0.75467711E-02 0.92990403E-01
        1 -1    0    0  502    0 0.00000000E+00 0.00000000E+00 0.43983461E+03 0.43983472E+03 0.32000000E+00 0.0000E+00 0.9000E+01
       -1 -1    0    0    0  501 -.00000000E+00 -.00000000E+00 -.16084602E+04 0.16084603E+04 0.32000000E+00 0.0000E+00 0.9000E+01
       25  1    1    2    0    0 0.42265437E+03 0.24038929E+03 -.10839112E+03 0.51361208E+03 0.12500000E+03 0.0000E+00 0.9000E+01
        2  1    1    2  502    0 -.99416940E+02 0.34736175E+02 0.15992270E+03 0.19148290E+03 0.32000000E+00 0.0000E+00 0.9000E+01
       -2  1    1    2    0  503 0.24754109E+02 -.19127776E+03 -.30900907E+03 0.36426179E+03 0.32000000E+00 0.0000E+00 0.9000E+01
       21  1    1    2  503  501 -.34799154E+03 -.83847704E+02 -.91114814E+03 0.97893823E+03 0.75000000E+00 0.0000E+00 0.9000E+01
#aMCatNLO 2  0  0  5  2 0.93819811D+00 0.00000000D+00  -5  6  0 0.00000000D+00 0.00000000D+00 0.00000000D+00 0.00000000D+00 0.00000000D+00
  <mgrwgt>
 0.3834459404D-03    1    2    0
 0.841104412693234D+03 0.000000000000000D+00 0.000000000000000D+00 0.841104412693234D+03
 0.841104412693234D+03 -.000000000000000D+00 -.000000000000000D+00 -.841104412693234D+03
 0.577181134335828D+03 0.437229135718458D+03 0.252833628305538D+03 0.249837749569476D+03
 0.357306866407826D+03 -.903215711181290D+02 0.424279784796281D+02 0.343089022288771D+03
 0.747720824642815D+03 -.346907564600329D+03 -.295261606785166D+03 -.592926771858247D+03
 0.000000000000000D+00 0.000000000000000D+00 0.000000000000000D+00 -.000000000000000D+00
 0.841104412693234D+03 0.000000000000000D+00 0.000000000000000D+00 0.841104412693234D+03
 0.841104412693234D+03 -.000000000000000D+00 -.000000000000000D+00 -.841104412693234D+03
 0.550219973250340D+03 0.422695013579804D+03 0.240463277544190D+03 0.224996347994984D+03
 0.344126765430239D+03 -.993642463547373D+02 0.347315339726499D+02 0.327633480858933D+03
 0.228383735233538D+03 0.248087118824849D+02 -.190924964376322D+03 -.122846718767148D+03
 0.559478351472351D+03 -.348139479107552D+03 -.842698471405185D+02 -.429783110086769D+03
0.890571220750D-03 0.000000000000D+00 0.000000000000D+00 0.507139101464D-05 0.988863565680D-10  6 1 -1 25 2 -2 21 2 0.67666874D-01 0.24745543D+00 0.33529715D+06 0.33529715D+06 0.33529715D+06 0.10809958D+01  1  2  1  4  6  5       -2 0.383445940399D-03 0.100000000000D+01
  </mgrwgt>
  </event>
  <event>
  5     66 0.18148205E-05 0.80181744E+02 0.75467711E-02 0.90066150E-01
        1 -1    0    0  502    0 0.00000000E+00 0.00000000E+00 0.12831159E+04 0.12831159E+04 0.32000000E+00 0.0000E+00 0.9000E+01
       -1 -1    0    0    0  501 0.00000000E+00 0.00000000E+00 -.52440280E+03 0.52440290E+03 0.32000000E+00 0.0000E+00 0.9000E+01
       25  1    1    2    0    0 -.17697990E+03 -.44295738E+03 0.14216481E+03 0.51319485E+03 0.12500000E+03 0.0000E+00 0.9000E+01
        2  1    1    2  502    0 0.10212180E+03 0.47166331E+03 0.88833583E+03 0.10109579E+04 0.32000000E+00 0.0000E+00 0.9000E+01
       -2  1    1    2    0  501 0.74858094E+02 -.28705927E+02 -.27178757E+03 0.28336610E+03 0.32000000E+00 0.0000E+00 0.9000E+01
#aMCatNLO 1  0  0  1  5 0.43081022D+03 0.00000000D+00  -5  6  0 0.00000000D+00 0.00000000D+00 0.00000000D+00 0.00000000D+00 0.00000000D+00
  <mgrwgt>
 0.7506169032D-02    7    2    0
 0.820286342833578D+03 0.000000000000000D+00 0.000000000000000D+00 0.820286342833578D+03
 0.820286342833578D+03 0.000000000000000D+00 0.000000000000000D+00 -.820286342833578D+03
 0.499647462002931D+03 -.176984829642192D+03 -.442940033436379D+03 -.806416960503363D+02
 0.702983405933474D+03 0.102118452453355D+03 0.471647830566633D+03 0.511180804225030D+03
 0.437941817730750D+03 0.748663771888365D+02 -.287077971302544D+02 -.430539108174693D+03
 0.000000000000000D+00 0.000000000000000D+00 -.000000000000000D+00 0.000000000000000D+00
 0.111654404788151D+04 0.000000000000000D+00 0.000000000000000D+00 0.111654404788151D+04
 0.102094113840409D+04 0.000000000000000D+00 0.000000000000000D+00 -.102094113840409D+04
 0.501987904367167D+03 -.290662972556705D+03 -.381285731930222D+03 -.806416960503363D+02
 0.762292603618257D+03 -.641794451804651D+02 0.561840900735503D+03 0.511180804225030D+03
 0.431914110992888D+03 -.238557824917206D+02 0.248350004756246D+02 -.430539108174693D+03
 0.441290567307288D+03 0.378698200228891D+03 -.205390169280905D+03 0.956029094774236D+02
0.305503283959D-02 0.000000000000D+00 0.000000000000D+00 0.997256680185D-05 0.000000000000D+00  6 1 -1 25 2 -2 21 0 0.19740245D+00 0.80677365D-01 0.27870737D+06 0.27870737D+06 0.27870737D+06 0.10869253D+01  1  2  2  1  6  1        1 0.557437237700D-02 0.100000000000D+01
0.706547451662D-03 0.000000000000D+00 -.117321305126D-04 0.997256680185D-05 0.000000000000D+00  6 1 -1 25 2 -2 21 2 0.19740245D+00 0.80677365D-01 0.27870737D+06 0.27870737D+06 0.27870737D+06 0.10869253D+01  1  2  3  1  6  1        1 0.152307339034D-02 0.100000000000D+01
-.190708157116D-02 0.000000000000D+00 0.000000000000D+00 0.997256680185D-05 0.000000000000D+00  6 1 -1 25 2 -2 21 2 0.19740245D+00 0.80677365D-01 0.27870737D+06 0.27870737D+06 0.27870737D+06 0.10869253D+01  1  2 15  1  6  1        1 -.411101220083D-02 0.100000000000D+01
-.128960300868D-03 0.000000000000D+00 0.000000000000D+00 0.997256680185D-05 0.000000000000D+00  6 1 -1 25 2 -2 21 2 0.19740245D+00 0.80677365D-01 0.27870737D+06 0.27870737D+06 0.27870737D+06 0.10869253D+01  1  2  4  1  6  1        1 -.277994071312D-03 0.100000000000D+01
-.236380820903D-02 0.000000000000D+00 -.190818935179D-02 0.997256680185D-05 0.000000000000D+00  6 1 -1 25 2 -2 21 2 0.30247941D+00 0.80677365D-01 0.27870737D+06 0.27870737D+06 0.27870737D+06 0.10869253D+01  1  2  5  1  6  1        1 -.177377548552D-02 0.100000000000D+01
0.305701625649D-02 0.000000000000D+00 0.174669623283D-02 0.997256680185D-05 0.000000000000D+00  6 1 -1 25 2 -2 21 2 0.19740245D+00 0.80677365D-01 0.27870737D+06 0.27870737D+06 0.27870737D+06 0.10869253D+01  1  2  6  1  6  1        1 0.658987602765D-02 0.100000000000D+01
-.470571453204D-04 0.000000000000D+00 -.952860304191D-04 0.997256680185D-05 0.000000000000D+00  6 21 -1 25 2 -2 -1 2 0.30247941D+00 0.80677365D-01 0.27870737D+06 0.27870737D+06 0.27870737D+06 0.10869253D+01  1  2  5  5  6  1        1 -.183710055604D-04 0.100000000000D+01
  </mgrwgt>
  </event>
  <event>
  5     66 0.18148205E-05 0.65121206E+02 0.75467711E-02 0.87214725E-01
        1 -1    0    0  502    0 0.00000000E+00 0.00000000E+00 0.17854968E+04 0.17854968E+04 0.32000000E+00 0.0000E+00 0.9000E+01
       -1 -1    0    0    0  501 0.00000000E+00 0.00000000E+00 -.81274907E+03 0.81274914E+03 0.32000000E+00 0.0000E+00 0.9000E+01
       25  1    1    2    0    0 -.77664684E+03 -.44107943E+03 0.53709158E+03 0.10496779E+04 0.12500000E+03 0.0000E+00 0.9000E+01
        2  1    1    2  502    0 0.59510494E+02 -.26513074E+02 0.66027377E+03 0.66348021E+03 0.32000000E+00 0.0000E+00 0.9000E+01
       -2  1    1    2    0  501 0.71713634E+03 0.46759250E+03 -.22461762E+03 0.88508783E+03 0.32000000E+00 0.0000E+00 0.9000E+01
#aMCatNLO 1  0  0  2  5 0.28880642D+02 0.00000000D+00  -5  6  0 0.00000000D+00 0.00000000D+00 0.00000000D+00 0.00000000D+00 0.00000000D+00
  <mgrwgt>
 0.2554022239D-03    4    2    0
 0.120464143470659D+04 0.000000000000000D+00 0.000000000000000D+00 0.120464143470659D+04
 0.120464143470659D+04 0.000000000000000D+00 0.000000000000000D+00 -.120464143470659D+04
 0.915278155837324D+03 -.776723891640240D+03 -.441147148617587D+03 0.155558001963210D+03
 0.448738058591536D+03 0.594847561171112D+02 -.265016074612054D+02 0.443987695572930D+03
 0.104526665498432D+04 0.717239135523129D+03 0.467648756078792D+03 -.599545697536141D+03
 0.000000000000000D+00 -.000000000000000D+00 0.000000000000000D+00 0.000000000000000D+00
 0.170592554518686D+04 0.000000000000000D+00 0.000000000000000D+00 0.170592554518686D+04
 0.122503196388605D+04 0.000000000000000D+00 0.000000000000000D+00 -.122503196388605D+04
 0.928361854834411D+03 -.751867004913090D+03 -.506683775603504D+03 0.155558001963210D+03
 0.453530328093408D+03 0.716495946731720D+02 -.585749115536954D+02 0.443987695572930D+03
 0.103436550495359D+04 0.745277787719052D+03 0.393723219452958D+03 -.599545697536141D+03
 0.514699821191501D+03 -.650603774791343D+02 0.171535467704242D+03 0.480893581300814D+03
0.152109231302D-02 0.000000000000D+00 0.000000000000D+00 0.285682623821D-05 0.000000000000D+00  6 1 -1 25 2 -2 21 0 0.27469182D+00 0.12503833D+00 0.83111663D+06 0.83111663D+06 0.83111663D+06 0.10532540D+01  1  2  2  2  6  2       -1 0.435217997259D-03 0.100000000000D+01
0.561142102617D-03 0.000000000000D+00 -.584139499481D-05 0.285682623821D-05 0.000000000000D+00  6 1 -1 25 2 -2 21 2 0.27469182D+00 0.12503833D+00 0.83111663D+06 0.83111663D+06 0.83111663D+06 0.10532540D+01  1  2  3  2  6  2       -1 0.178110853227D-03 0.100000000000D+01
-.112472149331D-02 0.000000000000D+00 0.000000000000D+00 0.285682623821D-05 0.000000000000D+00  6 1 -1 25 2 -2 21 2 0.27469182D+00 0.12503833D+00 0.83111663D+06 0.83111663D+06 0.83111663D+06 0.10532540D+01  1  2 15  2  6  2       -1 -.356995320584D-03 0.100000000000D+01
-.293409983464D-05 0.000000000000D+00 0.000000000000D+00 0.285682623821D-05 0.000000000000D+00  6 1 -1 25 2 -2 21 2 0.27469182D+00 0.12503833D+00 0.83111663D+06 0.83111663D+06 0.83111663D+06 0.10532540D+01  1  2  4  2  6  2       -1 -.931306032045D-06 0.100000000000D+01
  </mgrwgt>
  </event>
  <event>
  5     66 0.18148205E-05 0.13799316E+03 0.75467711E-02 0.93280488E-01
        1 -1    0    0  502    0 0.00000000E+00 0.00000000E+00 0.12757527E+04 0.12757527E+04 0.32000000E+00 0.0000E+00 0.9000E+01
       -1 -1    0    0    0  501 0.00000000E+00 0.00000000E+00 -.82433935E+03 0.82433941E+03 0.32000000E+00 0.0000E+00 0.9000E+01
       25  1    1    2    0    0 0.60956125E+02 0.54389840E+03 0.39568081E+03 0.68682561E+03 0.12500000E+03 0.0000E+00 0.9000E+01
        2  1    1    2  502    0 0.14479786E+02 -.42837444E+03 0.66357263E+03 0.78996396E+03 0.32000000E+00 0.0000E+00 0.9000E+01
       -2  1    1    2    0  501 -.75435911E+02 -.11552397E+03 -.60784011E+03 0.62330255E+03 0.32000000E+00 0.0000E+00 0.9000E+01
#aMCatNLO 1  0  0  2  5 0.28880642D+02 0.00000000D+00  -5  6  0 0.00000000D+00 0.00000000D+00 0.00000000D+00 0.00000000D+00 0.00000000D+00
  <mgrwgt>
 0.8103421564D-03    1    2    0
 0.102550145383121D+04 0.000000000000000D+00 0.000000000000000D+00 0.102550145383121D+04
 0.102550145383121D+04 0.000000000000000D+00 0.000000000000000D+00 -.102550145383121D+04
 0.616199803812644D+03 0.609688429289726D+02 0.543851965898116D+03 0.254135864449310D+03
 0.662723054621528D+03 0.144776080296732D+02 -.428310000742786D+03 0.505512402673111D+03
 0.772080049228258D+03 -.754464509586458D+02 -.115541965155330D+03 -.759648267122421D+03
 0.000000000000000D+00 0.000000000000000D+00 -.000000000000000D+00 0.000000000000000D+00
 0.300053808039116D+04 0.000000000000000D+00 0.000000000000000D+00 0.300053808039116D+04
 0.131362831453625D+04 0.000000000000000D+00 0.000000000000000D+00 -.131362831453625D+04
 0.979167591306947D+03 0.513949935811969D+02 0.935904743497563D+03 0.254135864449310D+03
 0.523732863226096D+03 0.735764917254824D+01 -.136744973455393D+03 0.505512402673111D+03
 0.811912909609362D+03 -.849520419605930D+02 0.273715607181920D+03 -.759648267122421D+03
 0.199935303078500D+04 0.261993992068479D+02 -.107287537722409D+04 0.168690976585491D+04
0.105351099826D-02 0.000000000000D+00 0.000000000000D+00 0.855057847139D-05 0.000000000000D+00  6 1 -1 25 2 -2 21 2 0.19626965D+00 0.12682145D+00 0.31804003D+06 0.31804003D+06 0.31804003D+06 0.10826806D+01  1  2 14  2  6  2       -1 0.810342156417D-03 0.100000000000D+01
  </mgrwgt>
  </event>
  <event>
  6     66 0.18148205E-05 0.27518756E+03 0.75467711E-02 0.92676829E-01
        1 -1    0    0  502    0 0.00000000E+00 0.00000000E+00 0.26113937E+04 0.26113938E+04 0.32000000E+00 0.0000E+00 0.9000E+01
       -1 -1    0    0    0  501 0.00000000E+00 0.00000000E+00 -.46966508E+03 0.46966519E+03 0.32000000E+00 0.0000E+00 0.9000E+01
       25  1    1    2    0    0 0.46719645E+03 0.30448993E+03 0.74003921E+03 0.93502389E+03 0.12500000E+03 0.0000E+00 0.9000E+01
        2  1    1    2  503    0 -.31110829E+03 -.48464396E+02 0.15495331E+04 0.15811990E+04 0.32000000E+00 0.0000E+00 0.9000E+01
       -2  1    1    2    0  501 -.13133747E+03 -.24586118E+03 -.30048588E+03 0.40986475E+03 0.32000000E+00 0.0000E+00 0.9000E+01
       21  1    1    2  502  503 -.24750685E+02 -.10164350E+02 0.15264220E+03 0.15497133E+03 0.75000000E+00 0.0000E+00 0.9000E+01
#aMCatNLO 2  0  0  4  1 0.71882594D+01 0.00000000D+00  -5  6  0 0.00000000D+00 0.00000000D+00 0.00000000D+00 0.00000000D+00 0.00000000D+00
  <mgrwgt>
 0.9282484335D-03    6    2    0
 0.110746586535234D+04 0.000000000000000D+00 0.000000000000000D+00 0.110746586535234D+04
 0.110746586535234D+04 -.000000000000000D+00 -.000000000000000D+00 -.110746586535234D+04
 0.585198180577199D+03 0.467188463790326D+03 0.304593532412935D+03 0.125656793944098D+03
 0.768705312098250D+03 -.335842709434047D+03 -.586259061665127D+02 0.688970633985383D+03
 0.861028238029231D+03 -.131345754356279D+03 -.245967626246422D+03 -.814627427929482D+03
 0.000000000000000D+00 0.000000000000000D+00 0.000000000000000D+00 0.000000000000000D+00
 0.110746586535234D+04 0.000000000000000D+00 0.000000000000000D+00 0.110746586535234D+04
 0.110746586535234D+04 -.000000000000000D+00 -.000000000000000D+00 -.110746586535234D+04
 0.585176402560492D+03 0.467139905375110D+03 0.304585055882065D+03 0.125756409988089D+03
 0.701344973824881D+03 -.311181447832306D+03 -.484705606270951D+02 0.626658985084318D+03
 0.860904041927365D+03 -.131417196699465D+03 -.245980097477717D+03 -.814480866235285D+03
 0.675063123919416D+02 -.245412608433388D+02 -.101343977772529D+02 0.620654711628778D+02
-.803468704085D-08 0.000000000000D+00 0.000000000000D+00 0.376137814604D-05 0.000000000000D+00  6 1 -1 25 2 -2 21 2 0.40175289D+00 0.72256176D-01 0.35514084D+06 0.35514084D+06 0.35514084D+06 0.10791716D+01  1  2 13  3  6  4        2 -.265240116958D-08 0.100000000000D+01
-.102985649358D-01 0.000000000000D+00 0.000000000000D+00 0.376137814604D-05 0.000000000000D+00  6 1 -1 25 2 -2 21 2 0.40175289D+00 0.72256176D-01 0.35514084D+06 0.35514084D+06 0.35514084D+06 0.10791716D+01  1  2 13  3  6  4        2 -.339974980256D-02 0.100000000000D+01
-.608591443084D-02 0.000000000000D+00 0.000000000000D+00 0.376137814604D-05 0.000000000000D+00  6 1 -1 25 2 -2 21 2 0.40175289D+00 0.72256176D-01 0.35480458D+06 0.35480458D+06 0.35480458D+06 0.10792016D+01  1  2  8  3  6  4        2 -.200933567259D-02 0.100000000000D+01
-.430529923593D-02 0.000000000000D+00 0.000000000000D+00 0.376137814604D-05 0.000000000000D+00  6 1 -1 25 2 -2 21 2 0.40175289D+00 0.72256176D-01 0.35480458D+06 0.35480458D+06 0.35480458D+06 0.10792016D+01  1  2  9  3  6  4        2 -.142144478603D-02 0.100000000000D+01
0.469991426766D-02 0.000000000000D+00 0.000000000000D+00 0.376137814604D-05 0.000000000000D+00  6 1 -1 25 2 -2 21 2 0.40175289D+00 0.72256176D-01 0.35480458D+06 0.35480458D+06 0.35480458D+06 0.10792016D+01  1  2 10  3  6  4        2 0.155173154396D-02 0.100000000000D+01
0.188024734670D-01 0.000000000000D+00 0.000000000000D+00 0.376137814604D-05 0.484816536808D-06  6 1 -1 25 2 -2 21 2 0.40175289D+00 0.72256176D-01 0.35514084D+06 0.35514084D+06 0.35514084D+06 0.10791716D+01  1  2  1  3  6  4        2 0.620704980310D-02 0.100000000000D+01
  </mgrwgt>
  </event>
  <event>
  5     66 0.18148205E-05 0.40677085E+02 0.75467711E-02 0.89988034E-01
        1 -1    0    0  502    0 0.00000000E+00 0.00000000E+00 0.27635458E+04 0.27635458E+04 0.32000000E+00 0.0000E+00 0.9000E+01
       -1 -1    0    0    0  501 0.00000000E+00 0.00000000E+00 -.32149875E+03 0.32149891E+03 0.32000000E+00 0.0000E+00 0.9000E+01
       25  1    1    2    0    0 -.43395434E+03 0.37755661E+03 0.52169495E+03 0.78654687E+03 0.12500000E+03 0.0000E+00 0.9000E+01
        2  1    1    2  502    0 0.45238608E+03 -.34129916E+03 0.20685758E+04 0.21447947E+04 0.32000000E+00 0.0000E+00 0.9000E+01
       -2  1    1    2    0  501 -.18431737E+02 -.36257455E+02 -.14822364E+03 0.15370323E+03 0.32000000E+00 0.0000E+00 0.9000E+01
#aMCatNLO 1  0  0  2  5 0.24527321D+02 0.00000000D+00  -5  6  0 0.00000000D+00 0.00000000D+00 0.00000000D+00 0.00000000D+00 0.00000000D+00
  <mgrwgt>
 0.6784725733D-02    7    4    0
 0.942590474067469D+03 0.000000000000000D+00 0.000000000000000D+00 0.942590474067469D+03
 0.942590474067469D+03 0.000000000000000D+00 0.000000000000000D+00 -.942590474067469D+03
 0.611336543006176D+03 -.433943205929347D+03 0.377552572361166D+03 -.165090029820000D+03
 0.830261902509346D+03 0.452376239808313D+03 -.341291733003373D+03 0.606803524543888D+03
 0.443582502619417D+03 -.184330338789658D+02 -.362608393577921D+02 -.441713494723888D+03
 0.000000000000000D+00 0.000000000000000D+00 -.000000000000000D+00 -.000000000000000D+00
 0.100123239245413D+04 0.000000000000000D+00 0.000000000000000D+00 0.100123239245413D+04
 0.157890080185976D+04 0.000000000000000D+00 0.000000000000000D+00 -.157890080185976D+04
 0.719357696996108D+03 -.502514349864618D+03 0.471248455129263D+03 -.165090029820000D+03
 0.747590501559522D+03 0.371068948429467D+03 -.230193127904772D+03 0.606803524543888D+03
 0.447157193009763D+03 -.643331648344755D+02 0.264572814468935D+02 -.441713494723888D+03
 0.666027802748495D+03 0.195778566269627D+03 -.267512608671385D+03 -.577668409405628D+03
 0.942590474067469D+03 0.000000000000000D+00 0.000000000000000D+00 0.942590474067469D+03
 0.942590474067469D+03 0.000000000000000D+00 0.000000000000000D+00 -.942590474067469D+03
 0.611336543006176D+03 -.433943205929347D+03 0.377552572361166D+03 -.165090029820000D+03
 0.830261902509346D+03 0.452376239808313D+03 -.341291733003373D+03 0.606803524543888D+03
 0.000000000000000D+00 0.000000000000000D+00 -.000000000000000D+00 -.000000000000000D+00
 0.443582502619417D+03 -.184330338789658D+02 -.362608393577921D+02 -.441713494723888D+03
 0.100123239245413D+04 0.000000000000000D+00 0.000000000000000D+00 0.100123239245413D+04
 0.157890080185976D+04 0.000000000000000D+00 0.000000000000000D+00 -.157890080185976D+04
 0.719357696996108D+03 -.502514349864618D+03 0.471248455129263D+03 -.165090029820000D+03
 0.747590501559522D+03 0.371068948429467D+03 -.230193127904772D+03 0.606803524543888D+03
 0.666027802748495D+03 0.195778566269627D+03 -.267512608671385D+03 -.577668409405628D+03
 0.447157193009763D+03 -.643331648344755D+02 0.264572814468935D+02 -.441713494723888D+03
0.585644455091D-02 0.000000000000D+00 0.000000000000D+00 0.310858348277D-04 0.000000000000D+00  6 1 -1 25 2 -2 21 0 0.42516091D+00 0.49461360D-01 0.35759139D+06 0.35759139D+06 0.35759139D+06 0.10789541D+01  1  2  2  2  6  2       -1 0.265368072046D-02 0.100000000000D+01
0.261493421852D-02 0.000000000000D+00 -.224902891128D-04 0.310858348277D-04 0.000000000000D+00  6 1 -1 25 2 -2 21 2 0.42516091D+00 0.49461360D-01 0.35759139D+06 0.35759139D+06 0.35759139D+06 0.10789541D+01  1  2  3  2  6  2       -1 0.137937175372D-02 0.100000000000D+01
-.367633746995D-02 0.000000000000D+00 0.000000000000D+00 0.310858348277D-04 0.000000000000D+00  6 1 -1 25 2 -2 21 2 0.42516091D+00 0.49461360D-01 0.35759139D+06 0.35759139D+06 0.35759139D+06 0.10789541D+01  1  2 15  2  6  2       -1 -.193925951455D-02 0.100000000000D+01
-.168130374689D-03 0.000000000000D+00 0.000000000000D+00 0.310858348277D-04 0.000000000000D+00  6 1 -1 25 2 -2 21 2 0.42516091D+00 0.49461360D-01 0.35759139D+06 0.35759139D+06 0.35759139D+06 0.10789541D+01  1  2  4  2  6  2       -1 -.886883838782D-04 0.100000000000D+01
-.168650172295D-01 0.000000000000D+00 -.386047980383D-02 0.310858348277D-04 0.000000000000D+00  6 1 -1 25 2 -2 21 2 0.42516091D+00 0.86293970D-01 0.35759139D+06 0.35759139D+06 0.35759139D+06 0.10789541D+01  1  2  5  2  6  2       -1 -.301516534860D-02 0.100000000000D+01
0.168630831494D-01 0.000000000000D+00 0.333109073545D-02 0.310858348277D-04 0.000000000000D+00  6 1 -1 25 2 -2 21 2 0.42516091D+00 0.49461360D-01 0.35759139D+06 0.35759139D+06 0.35759139D+06 0.10789541D+01  1  2  6  2  6  2       -1 0.889523736852D-02 0.100000000000D+01
-.842702015755D-03 0.000000000000D+00 -.237534827726D-03 0.310858348277D-04 0.000000000000D+00  6 1 21 25 2 1 -2 2 0.42516091D+00 0.86293970D-01 0.35759139D+06 0.35759139D+06 0.35759139D+06 0.10789541D+01  3  4  5  6  5  2       -1 -.110045086274D-02 0.100000000000D+01
  </mgrwgt>
  </event>
  <event>
  5     66 0.18148205E-05 0.88500956E+02 0.75467711E-02 0.92343772E-01
        1 -1    0    0  502    0 0.00000000E+00 0.00000000E+00 0.30822399E+04 0.30822399E+04 0.32000000E+00 0.0000E+00 0.9000E+01
       -1 -1    0    0    0  501 0.00000000E+00 0.00000000E+00 -.42705621E+03 0.42705633E+03 0.32000000E+00 0.0000E+00 0.9000E+01
       25  1    1    2    0    0 -.15773067E+03 -.52657160E+03 0.71282621E+03 0.90879196E+03 0.12500000E+03 0.0000E+00 0.9000E+01
        2  1    1    2  502    0 0.75678436E+02 0.55971080E+03 0.22295551E+04 0.22999825E+04 0.32000000E+00 0.0000E+00 0.9000E+01
       -2  1    1    2    0  501 0.82052232E+02 -.33139204E+02 -.28719762E+03 0.30052180E+03 0.32000000E+00 0.0000E+00 0.9000E+01
#aMCatNLO 1  0  0  1  2 0.16545311D+02 0.00000000D+00  -5  6  0 0.00000000D+00 0.00000000D+00 0.00000000D+00 0.00000000D+00 0.00000000D+00
  <mgrwgt>
 0.7798878221D-02    9    2    0
 0.114729679492831D+04 0.000000000000000D+00 0.000000000000000D+00 0.114729679492831D+04
 0.114729679492831D+04 0.000000000000000D+00 0.000000000000000D+00 -.114729679492831D+04
 0.565020683656857D+03 -.157736049283203D+03 -.526542904215385D+03 0.386688729731969D+02
 0.937569925914817D+03 0.756749345713454D+02 0.559684911098351D+03 0.748373884195840D+03
 0.792002980284938D+03 0.820611147118571D+02 -.331420068829657D+02 -.787042757169037D+03
 0.000000000000000D+00 0.000000000000000D+00 -.000000000000000D+00 0.000000000000000D+00
 0.116379343167451D+04 0.000000000000000D+00 0.000000000000000D+00 0.116379343167451D+04
 0.115148266591447D+04 0.000000000000000D+00 0.000000000000000D+00 -.115148266591447D+04
 0.564777278061119D+03 -.161553517764306D+03 -.525122417132507D+03 0.386688729731969D+02
 0.938490290979568D+03 0.693359244214630D+02 0.562043668500203D+03 0.748373884195840D+03
 0.791385670542537D+03 0.767110110006771D+02 -.311512233961061D+02 -.787042757169037D+03
 0.206228580057626D+02 0.155065823421660D+02 -.577002797158940D+01 0.123107657600391D+02
0.662647380740D-02 0.000000000000D+00 0.000000000000D+00 0.284639362537D-04 0.000000000000D+00  6 1 -1 25 2 -2 21 0 0.47419077D+00 0.65700966D-01 0.37025680D+06 0.37025680D+06 0.37025680D+06 0.10778551D+01  1  2  2  1  6  1        1 0.102358684330D-02 0.100000000000D+01
0.199687667374D-02 0.000000000000D+00 -.254474042111D-04 0.284639362537D-04 0.000000000000D+00  6 1 -1 25 2 -2 21 2 0.47419077D+00 0.65700966D-01 0.37025680D+06 0.37025680D+06 0.37025680D+06 0.10778551D+01  1  2  3  1  6  1        1 0.358355614268D-03 0.100000000000D+01
-.400174023921D-02 0.000000000000D+00 0.000000000000D+00 0.284639362537D-04 0.000000000000D+00  6 1 -1 25 2 -2 21 2 0.47419077D+00 0.65700966D-01 0.37025680D+06 0.37025680D+06 0.37025680D+06 0.10778551D+01  1  2 15  1  6  1        1 -.718144540631D-03 0.100000000000D+01
0.531595519762D-09 0.000000000000D+00 0.000000000000D+00 0.284639362537D-04 0.000000000000D+00  6 1 -1 25 2 -2 21 2 0.48186616D+00 0.65700966D-01 0.37766946D+06 0.37766946D+06 0.37766946D+06 0.10772307D+01  1  2 12  1  6  1        1 0.871680213916D-10 0.100000000000D+01
-.960320917038D-03 0.000000000000D+00 0.000000000000D+00 0.284639362537D-04 0.000000000000D+00  6 1 -1 25 2 -2 21 2 0.47419077D+00 0.65700966D-01 0.37025680D+06 0.37025680D+06 0.37025680D+06 0.10778551D+01  1  2  4  1  6  1        1 -.172337328912D-03 0.100000000000D+01
-.502590242848D+00 0.000000000000D+00 -.567475300679D-01 0.284639362537D-04 0.000000000000D+00  6 1 -1 25 2 -2 21 2 0.48150777D+00 0.65700966D-01 0.37025680D+06 0.37025680D+06 0.37025680D+06 0.10778551D+01  1  2  5  1  6  1        1 -.829881614937D-01 0.100000000000D+01
0.503406831268D+00 0.000000000000D+00 0.567408777001D-01 0.284639362537D-04 0.000000000000D+00  6 1 -1 25 2 -2 21 2 0.47419077D+00 0.65700966D-01 0.37025680D+06 0.37025680D+06 0.37025680D+06 0.10778551D+01  1  2  6  1  6  1        1 0.903404134155D-01 0.100000000000D+01
0.350751072374D-10 0.000000000000D+00 0.000000000000D+00 0.284639362537D-04 0.000000000000D+00  6 21 -1 25 2 -2 -1 2 0.48186616D+00 0.65700966D-01 0.37766946D+06 0.37766946D+06 0.37766946D+06 0.10772307D+01  1  2 12  5  6  1        1 0.110745538933D-11 0.100000000000D+01
-.140552239949D-02 0.000000000000D+00 -.159250389390D-03 0.284639362537D-04 0.000000000000D+00  6 21 -1 25 2 -2 -1 2 0.48150777D+00 0.65700966D-01 0.37025680D+06 0.37025680D+06 0.37025680D+06 0.10778551D+01  1  2  5  5  6  1        1 -.448343772983D-04 0.100000000000D+01
  </mgrwgt>
  </event>
  <event>
  5     66 0.18148205E-05 0.35067813E+02 0.75467711E-02 0.84687967E-01
        1 -1    0    0  502    0 0.00000000E+00 0.00000000E+00 0.76116106E+03 0.76116112E+03 0.32000000E+00 0.0000E+00 0.9000E+01
       -1 -1    0    0    0  501 0.00000000E+00 0.00000000E+00 -.14494259E+04 0.14494259E+04 0.32000000E+00 0.0000E+00 0.9000E+01
       25  1    1    2    0    0 0.43232855E+03 0.63936032E+03 0.11802041E+03 0.79072335E+03 0.12500000E+03 0.0000E+00 0.9000E+01
        2  1    1    2  502    0 0.32075818E+02 -.14262831E+02 0.16855565E+03 0.17217257E+03 0.32000000E+00 0.0000E+00 0.9000E+01
       -2  1    1    2    0  501 -.46440436E+03 -.62509749E+03 -.97484088E+03 0.12476911E+04 0.32000000E+00 0.0000E+00 0.9000E+01
#aMCatNLO 1  0  0  2  5 0.26022559D+03 0.00000000D+00  -5  6  0 0.00000000D+00 0.00000000D+00 0.00000000D+00 0.00000000D+00 0.00000000D+00
  <mgrwgt>
 0.8158084784D-03    6    4    0
 0.105035548644536D+04 0.000000000000000D+00 0.000000000000000D+00 0.105035548644536D+04
 0.105035548644536D+04 0.000000000000000D+00 0.000000000000000D+00 -.105035548644536D+04
 0.870937838710729D+03 0.432422928121650D+03 0.639443888521177D+03 0.383444446518306D+03
 0.236159025169554D+03 0.320428089143431D+02 -.142481533913644D+02 0.233540860859184D+03
 0.993614109010430D+03 -.464465737035993D+03 -.625195735129813D+03 -.616985307377490D+03
 0.000000000000000D+00 -.000000000000000D+00 -.000000000000000D+00 -.000000000000000D+00
 0.143427305113707D+04 0.000000000000000D+00 0.000000000000000D+00 0.143427305113707D+04
 0.185824052145450D+04 0.000000000000000D+00 0.000000000000000D+00 -.185824052145450D+04
 0.128318284196708D+04 0.676231415996750D+03 0.101321993386037D+04 0.383444446518306D+03
 0.259751442667781D+03 0.881711318859279D+02 0.718006251999180D+02 0.233540860859184D+03
 0.746180622425492D+03 -.267551642812178D+03 -.323312186890788D+03 -.616985307377490D+03
 0.100339866553122D+04 -.496850905070499D+03 -.761708372169498D+03 -.423967470317428D+03
 0.105035548644536D+04 0.000000000000000D+00 0.000000000000000D+00 0.105035548644536D+04
 0.105035548644536D+04 0.000000000000000D+00 0.000000000000000D+00 -.105035548644536D+04
 0.870937838710729D+03 0.432422928121650D+03 0.639443888521177D+03 0.383444446518306D+03
 0.236159025169554D+03 0.320428089143431D+02 -.142481533913644D+02 0.233540860859184D+03
 0.000000000000000D+00 -.000000000000000D+00 -.000000000000000D+00 -.000000000000000D+00
 0.993614109010430D+03 -.464465737035993D+03 -.625195735129813D+03 -.616985307377490D+03
 0.143427305113707D+04 0.000000000000000D+00 0.000000000000000D+00 0.143427305113707D+04
 0.185824052145450D+04 0.000000000000000D+00 0.000000000000000D+00 -.185824052145450D+04
 0.128318284196708D+04 0.676231415996750D+03 0.101321993386037D+04 0.383444446518306D+03
 0.259751442667781D+03 0.881711318859279D+02 0.718006251999180D+02 0.233540860859184D+03
 0.100339866553122D+04 -.496850905070499D+03 -.761708372169498D+03 -.423967470317428D+03
 0.746180622425492D+03 -.267551642812178D+03 -.323312186890788D+03 -.616985307377490D+03
0.236345868338D-02 0.000000000000D+00 0.000000000000D+00 0.459725880547D-05 0.000000000000D+00  6 1 -1 25 2 -2 21 0 0.11710171D+00 0.22298861D+00 0.63672303D+06 0.63672303D+06 0.63672303D+06 0.10611691D+01  1  2  2  2  6  2       -1 0.593489274721D-03 0.100000000000D+01
0.979701018156D-03 0.000000000000D+00 -.907630365716D-05 0.459725880547D-05 0.000000000000D+00  6 1 -1 25 2 -2 21 2 0.11710171D+00 0.22298861D+00 0.63672303D+06 0.63672303D+06 0.63672303D+06 0.10611691D+01  1  2  3  2  6  2       -1 0.277030512541D-03 0.100000000000D+01
-.169735157426D-02 0.000000000000D+00 0.000000000000D+00 0.459725880547D-05 0.000000000000D+00  6 1 -1 25 2 -2 21 2 0.11710171D+00 0.22298861D+00 0.63672303D+06 0.63672303D+06 0.63672303D+06 0.10611691D+01  1  2 15  2  6  2       -1 -.479960894054D-03 0.100000000000D+01
-.842421031498D-03 0.000000000000D+00 -.117479721158D-02 0.459725880547D-05 0.000000000000D+00  6 1 -1 25 2 -2 21 2 0.11710171D+00 0.44392667D+00 0.63672303D+06 0.63672303D+06 0.63672303D+06 0.10611691D+01  1  2  5  2  6  2       -1 -.247147178428D-05 0.100000000000D+01
0.151110464124D-02 0.000000000000D+00 0.942433670118D-03 0.459725880547D-05 0.000000000000D+00  6 1 -1 25 2 -2 21 2 0.11710171D+00 0.22298861D+00 0.63672303D+06 0.63672303D+06 0.63672303D+06 0.10611691D+01  1  2  6  2  6  2       -1 0.427295762185D-03 0.100000000000D+01
0.744892247480D-05 0.000000000000D+00 -.875425543675D-04 0.459725880547D-05 0.000000000000D+00  6 1 21 25 2 1 -2 2 0.11710171D+00 0.44392667D+00 0.63672303D+06 0.63672303D+06 0.63672303D+06 0.10611691D+01  3  4  5  6  5  2       -1 0.425294808201D-06 0.100000000000D+01
  </mgrwgt>
  </event>
  <event>
  5     66 -.18148205E-05 0.24797233E+02 0.75467711E-02 0.92966472E-01
        1 -1    0    0  502    0 0.00000000E+00 0.00000000E+00 0.17047283E+04 0.17047283E+04 0.32000000E+00 0.0000E+00 0.9000E+01
       -1 -1    0    0    0  501 0.00000000E+00 0.00000000E+00 -.60384778E+03 0.60384787E+03 0.32000000E+00 0.0000E+00 0.9000E+01
       25  1    1    2    0    0 -.34150855E+03 -.44258272E+03 -.25261487E+02 0.57338530E+03 0.12500000E+03 0.0000E+00 0.9000E+01
        2  1    1    2  502    0 0.33242616E+03 0.41950993E+03 0.13799777E+04 0.14801467E+04 0.32000000E+00 0.0000E+00 0.9000E+01
       -2  1    1    2    0  501 0.90823918E+01 0.23072788E+02 -.25383573E+03 0.25504416E+03 0.32000000E+00 0.0000E+00 0.9000E+01
#aMCatNLO 1  0  0  1  2 0.27529829D+02 0.00000000D+00  -5  6  0 0.00000000D+00 0.00000000D+00 0.00000000D+00 0.00000000D+00 0.00000000D+00
  <mgrwgt>
 -.4366364465D-02    7    2    0
 0.101459180054806D+04 0.000000000000000D+00 0.000000000000000D+00 0.101459180054806D+04
 0.101459180054806D+04 0.000000000000000D+00 0.000000000000000D+00 -.101459180054806D+04
 0.666023809358817D+03 -.341507059156065D+03 -.442581298579148D+03 -.339790284333442D+03
 0.935267480963326D+03 0.332424167336457D+03 0.419507420938041D+03 0.766963465685336D+03
 0.427892310773986D+03 0.908289181960782D+01 0.230738776411065D+02 -.427173181351893D+03
 0.000000000000000D+00 -.000000000000000D+00 0.000000000000000D+00 0.000000000000000D+00
 0.119157630473376D+04 0.000000000000000D+00 0.000000000000000D+00 0.119157630473376D+04
 0.101575629717800D+04 0.000000000000000D+00 0.000000000000000D+00 -.101575629717800D+04
 0.665457470618009D+03 -.333924568697570D+03 -.447488089555530D+03 -.339790284333442D+03
 0.936047798654499D+03 0.343080892643767D+03 0.412611227152909D+03 0.766963465685336D+03
 0.427865071111116D+03 0.139562402327703D+02 0.199202301489842D+02 -.427173181351893D+03
 0.177962261528135D+03 -.231125641789677D+02 0.149566322536374D+02 0.175820007555769D+03
0.121697315677D-03 0.000000000000D+00 0.000000000000D+00 0.988977680845D-04 0.000000000000D+00  6 1 -1 25 2 -2 21 0 0.26226590D+00 0.92899668D-01 0.32085063D+06 0.32085063D+06 0.32085063D+06 0.10823995D+01  1  2  2  1  6  1        1 0.847932281633D-04 0.100000000000D+01
0.703096990078D-04 0.000000000000D+00 -.467349735839D-06 0.988977680845D-04 0.000000000000D+00  6 1 -1 25 2 -2 21 2 0.26226590D+00 0.92899668D-01 0.32085063D+06 0.32085063D+06 0.32085063D+06 0.10823995D+01  1  2  3  1  6  1        1 0.573945353692D-04 0.100000000000D+01
-.833529492837D-04 0.000000000000D+00 0.000000000000D+00 0.988977680845D-04 0.000000000000D+00  6 1 -1 25 2 -2 21 2 0.26226590D+00 0.92899668D-01 0.32085063D+06 0.32085063D+06 0.32085063D+06 0.10823995D+01  1  2 15  1  6  1        1 -.680418756345D-04 0.100000000000D+01
-.926766163254D-02 0.000000000000D+00 0.000000000000D+00 0.988977680845D-04 0.000000000000D+00  6 1 -1 25 2 -2 21 2 0.26226590D+00 0.92899668D-01 0.32085063D+06 0.32085063D+06 0.32085063D+06 0.10823995D+01  1  2  4  1  6  1        1 -.756528815889D-02 0.100000000000D+01
-.109878354698D-01 0.000000000000D+00 -.151211179140D-03 0.988977680845D-04 0.000000000000D+00  6 1 -1 25 2 -2 21 2 0.30812862D+00 0.92899668D-01 0.32085063D+06 0.32085063D+06 0.32085063D+06 0.10823995D+01  1  2  5  1  6  1        1 -.568210322385D-02 0.100000000000D+01
0.108726487298D-01 0.000000000000D+00 0.149268575234D-03 0.988977680845D-04 0.000000000000D+00  6 1 -1 25 2 -2 21 2 0.26226590D+00 0.92899668D-01 0.32085063D+06 0.32085063D+06 0.32085063D+06 0.10823995D+01  1  2  6  1  6  1        1 0.887545574626D-02 0.100000000000D+01
-.264339038824D-03 0.000000000000D+00 -.365417152735D-05 0.988977680845D-04 0.000000000000D+00  6 21 -1 25 2 -2 -1 2 0.30812862D+00 0.92899668D-01 0.32085063D+06 0.32085063D+06 0.32085063D+06 0.10823995D+01  1  2  5  5  6  1        1 -.685747167082D-04 0.100000000000D+01
  </mgrwgt>
  </event>
  <event>
  6     66 0.18148205E-05 0.23002243E+03 0.75467711E-02 0.90304817E-01
        1 -1    0    0  502    0 0.00000000E+00 0.00000000E+00 0.13054174E+04 0.13054175E+04 0.32000000E+00 0.0000E+00 0.9000E+01
       -1 -1    0    0    0  501 0.00000000E+00 0.00000000E+00 -.70431990E+03 0.70431997E+03 0.32000000E+00 0.0000E+00 0.9000E+01
       25  1    1    2    0    0 -.70632073E+03 0.23356646E+02 -.13114677E+03 0.72956082E+03 0.12500000E+03 0.0000E+00 0.9000E+01
        2  1    1    2  502    0 0.50221679E+03 -.16066956E+03 0.77332268E+03 0.93598316E+03 0.32000000E+00 0.0000E+00 0.9000E+01
       -2  1    1    2    0  503 0.85202174E+01 0.72649513E+01 -.10114220E+03 0.10176061E+03 0.32000000E+00 0.0000E+00 0.9000E+01
       21  1    1    2  503  501 0.19558373E+03 0.13004796E+03 0.60063832E+02 0.24243286E+03 0.75000000E+00 0.0000E+00 0.9000E+01
#aMCatNLO 2  0  0  5  2 0.11145643D+03 0.00000000D+00  -5  6  0 0.00000000D+00 0.00000000D+00 0.00000000D+00 0.00000000D+00 0.00000000D+00
  <mgrwgt>
 0.1380986450D-02    3    2    0
 0.958869953704762D+03 0.000000000000000D+00 0.000000000000000D+00 0.958869953704762D+03
 0.958869953704762D+03 -.000000000000000D+00 -.000000000000000D+00 -.958869953704762D+03
 0.819951077745515D+03 -.732375775994516D+03 0.582504226421887D+01 -.346823530797843D+03
 0.738856127034643D+03 0.478533926163412D+03 -.176590203493074D+03 0.534536769546809D+03
 0.358932702629365D+03 0.253841849831104D+03 0.170765161228855D+03 -.187713238748966D+03
 0.000000000000000D+00 0.000000000000000D+00 0.000000000000000D+00 0.000000000000000D+00
 0.958869953704762D+03 0.000000000000000D+00 0.000000000000000D+00 0.958869953704762D+03
 0.958869953704762D+03 -.000000000000000D+00 -.000000000000000D+00 -.958869953704762D+03
 0.805688692590880D+03 -.706383066370995D+03 0.233109266941843D+02 -.366044851909940D+03
 0.738474558534507D+03 0.502155289412891D+03 -.160699577473659D+03 0.517069032835247D+03
 0.137758112207029D+03 0.818807364230529D+01 0.703755107391435D+01 -.137334357695933D+03
 0.235818544077108D+03 0.196039703315799D+03 0.130351099705560D+03 -.136898232293736D+02
-.149844777132D-07 0.000000000000D+00 0.000000000000D+00 0.177014565165D-07 0.000000000000D+00  6 1 -1 25 2 -2 21 2 0.20083346D+00 0.10835692D+00 0.55591650D+06 0.55591650D+06 0.55591650D+06 0.10652717D+01  1  2 13  4  6  5       -2 -.150791051734D-07 0.100000000000D+01
-.124387234979D-04 0.000000000000D+00 0.000000000000D+00 0.177014565165D-07 0.000000000000D+00  6 1 -1 25 2 -2 21 2 0.20083346D+00 0.10835692D+00 0.55591650D+06 0.55591650D+06 0.55591650D+06 0.10652717D+01  1  2 13  4  6  5       -2 -.125172744381D-04 0.100000000000D+01
0.138477391135D-02 0.000000000000D+00 0.000000000000D+00 0.177014565165D-07 0.232509224574D-09  6 1 -1 25 2 -2 21 2 0.20083346D+00 0.10835692D+00 0.55591650D+06 0.55591650D+06 0.55591650D+06 0.10652717D+01  1  2  1  4  6  5       -2 0.139351880328D-02 0.100000000000D+01
  </mgrwgt>
  </event>
  <event>
  6     66 0.18148205E-05 0.13365109E+03 0.75467711E-02 0.93045729E-01
        1 -1    0    0  502    0 0.00000000E+00 0.00000000E+00 0.37664751E+03 0.37664764E+03 0.32000000E+00 0.0000E+00 0.9000E+01
       -1 -1    0    0    0  501 -.00000000E+00 -.00000000E+00 -.14189092E+04 0.14189092E+04 0.32000000E+00 0.0000E+00 0.9000E+01
       25  1    1    2    0    0 0.54521568E+03 0.16305657E+03 -.43442369E+03 0.72677130E+03 0.12500000E+03 0.0000E+00 0.9000E+01
        2  1    1    2  503    0 -.39460576E+03 -.12785039E+03 -.72987412E+01 0.41486480E+03 0.32000000E+00 0.0000E+00 0.9000E+01
       -2  1    1    2    0  501 -.13752580E+03 -.29252305E+02 -.61655681E+03 0.63238552E+03 0.32000000E+00 0.0000E+00 0.9000E+01
       21  1    1    2  502  503 -.13084126E+02 -.59538713E+01 0.16017552E+02 0.21535260E+02 0.75000000E+00 0.0000E+00 0.9000E+01
#aMCatNLO 2  0  0  4  1 0.19524618D+02 0.00000000D+00  -5  6  0 0.00000000D+00 0.00000000D+00 0.00000000D+00 0.00000000D+00 0.00000000D+00
  <mgrwgt>
 0.3696701792D-02    4    2    0
 0.731046351846596D+03 0.000000000000000D+00 0.000000000000000D+00 0.731046351846596D+03
 0.731046351846596D+03 -.000000000000000D+00 -.000000000000000D+00 -.731046351846596D+03
 0.584605004764439D+03 0.546905947291712D+03 0.163600159862358D+03 -.163365879422532D+02
 0.539753941149768D+03 -.410279345621788D+03 -.134654124194873D+03 0.323841693393820D+03
 0.337733757778986D+03 -.136626601669924D+03 -.289460356674857D+02 -.307505105451566D+03
 0.000000000000000D+00 0.000000000000000D+00 0.000000000000000D+00 0.000000000000000D+00
 0.731046351846596D+03 0.000000000000000D+00 0.000000000000000D+00 0.731046351846596D+03
 0.731046351846596D+03 -.000000000000000D+00 -.000000000000000D+00 -.731046351846596D+03
 0.582755385997022D+03 0.545141825525454D+03 0.163021173194023D+03 -.149441313483879D+02
 0.504038296181940D+03 -.394429467442614D+03 -.127791239677151D+03 0.286617163290523D+03
 0.337444482039495D+03 -.137646934926384D+03 -.292809101438677D+02 -.306699736004813D+03
 0.378545394747344D+02 -.130654231564568D+02 -.594902337300400D+01 0.350267040626776D+02
-.381340360281D-06 0.000000000000D+00 0.000000000000D+00 0.558496387991D-06 0.000000000000D+00  6 1 -1 25 2 -2 21 2 0.57945784D-01 0.21829374D+00 0.33192646D+06 0.33192646D+06 0.33192646D+06 0.10813173D+01  1  2 13  3  6  4        2 -.352371289170D-06 0.100000000000D+01
-.476586128446D-02 0.000000000000D+00 0.000000000000D+00 0.558496387991D-06 0.000000000000D+00  6 1 -1 25 2 -2 21 2 0.57945784D-01 0.21829374D+00 0.33192646D+06 0.33192646D+06 0.33192646D+06 0.10813173D+01  1  2 13  3  6  4        2 -.440381575025D-02 0.100000000000D+01
-.802610287895D-02 0.000000000000D+00 0.000000000000D+00 0.558496387991D-06 0.000000000000D+00  6 1 -1 25 2 -2 21 2 0.57945784D-01 0.21829374D+00 0.33399562D+06 0.33399562D+06 0.33399562D+06 0.10811195D+01  1  2  8  3  6  4        2 -.741088894003D-02 0.100000000000D+01
0.167870081686D-01 0.000000000000D+00 0.000000000000D+00 0.558496387991D-06 0.381674475638D-07  6 1 -1 25 2 -2 21 2 0.57945784D-01 0.21829374D+00 0.33192646D+06 0.33192646D+06 0.33192646D+06 0.10813173D+01  1  2  1  3  6  4        2 0.155117588532D-01 0.100000000000D+01
  </mgrwgt>
  </event>
  <event>
  5     66 0.18148205E-05 0.79221943E+02 0.75467711E-02 0.94899332E-01
        1 -1    0    0  502    0 0.00000000E+00 0.00000000E+00 0.23384775E+04 0.23384775E+04 0.32000000E+00 0.0000E+00 0.9000E+01
       -1 -1    0    0    0  501 0.00000000E+00 0.00000000E+00 -.55119139E+03 0.55119148E+03 0.32000000E+00 0.0000E+00 0.9000E+01
       25  1    1    2    0    0 -.18119634E+03 -.43982221E+03 0.51960972E+03 0.71546835E+03 0.12500000E+03 0.0000E+00 0.9000E+01
        2  1    1    2  502    0 0.15098325E+03 0.36659815E+03 0.16944102E+04 0.17401770E+04 0.32000000E+00 0.0000E+00 0.9000E+01
       -2  1    1    2    0  501 0.30213096E+02 0.73224057E+02 -.42673384E+03 0.43402358E+03 0.32000000E+00 0.0000E+00 0.9000E+01
#aMCatNLO 1  0  0  1  4 0.19241935D+02 0.00000000D+00  -5  6  0 0.00000000D+00 0.00000000D+00 0.00000000D+00 0.00000000D+00 0.00000000D+00
  <mgrwgt>
 0.1867698335D-01   11    2    0
 0.113531881302905D+04 0.000000000000000D+00 0.000000000000000D+00 0.113531881302905D+04
 0.113531881302905D+04 0.000000000000000D+00 0.000000000000000D+00 -.113531881302905D+04
 0.501527156968973D+03 -.181190200088801D+03 -.439807280623070D+03 0.982046662847611D+02
 0.880814179153780D+03 0.150973439044188D+03 0.366574339967017D+03 0.786551900499429D+03
 0.888296289935350D+03 0.302167610446132D+02 0.732329406560534D+02 -.884756566784190D+03
 0.000000000000000D+00 0.000000000000000D+00 0.000000000000000D+00 0.000000000000000D+00
 0.118199366890703D+04 0.000000000000000D+00 0.000000000000000D+00 0.118199366890703D+04
 0.113734445622708D+04 0.000000000000000D+00 0.000000000000000D+00 -.113734445622708D+04
 0.505458142631019D+03 -.183715222652299D+03 -.443246539115326D+03 0.982046662847611D+02
 0.877584616373200D+03 0.146564241972396D+03 0.360568703149191D+03 0.786551900499429D+03
 0.887676396006739D+03 0.257634973217550D+02 0.671672819571966D+02 -.884756566784190D+03
 0.486189701231501D+02 0.113874833581479D+02 0.155105540089384D+02 0.446492126799507D+02
0.344779839140D-02 0.000000000000D+00 0.000000000000D+00 0.187147929506D-03 0.000000000000D+00  6 1 -1 25 2 -2 21 0 0.35976577D+00 0.84798684D-01 0.23400763D+06 0.23400763D+06 0.23400763D+06 0.10926255D+01  1  2  2  1  6  1        1 0.112603083417D-02 0.100000000000D+01
0.105483758119D-02 0.000000000000D+00 -.132404536491D-04 0.187147929506D-03 0.000000000000D+00  6 1 -1 25 2 -2 21 2 0.35976577D+00 0.84798684D-01 0.23400763D+06 0.23400763D+06 0.23400763D+06 0.10926255D+01  1  2  3  1  6  1        1 0.411279169220D-03 0.100000000000D+01
-.207386563791D-02 0.000000000000D+00 0.000000000000D+00 0.187147929506D-03 0.000000000000D+00  6 1 -1 25 2 -2 21 2 0.35976577D+00 0.84798684D-01 0.23400763D+06 0.23400763D+06 0.23400763D+06 0.10926255D+01  1  2 15  1  6  1        1 -.808596272870D-03 0.100000000000D+01
0.620147269816D-09 0.000000000000D+00 0.000000000000D+00 0.187147929506D-03 0.000000000000D+00  6 1 -1 25 2 -2 21 2 0.37487003D+00 0.84798684D-01 0.23825403D+06 0.23825403D+06 0.23825403D+06 0.10920349D+01  1  2 12  1  6  1        1 0.206693660181D-09 0.100000000000D+01
0.357129044497D-01 0.000000000000D+00 0.000000000000D+00 0.187147929506D-03 0.000000000000D+00  6 1 -1 25 2 -2 21 2 0.38227048D+00 0.84798684D-01 0.23825403D+06 0.23825403D+06 0.23825403D+06 0.10920349D+01  1  2 12  1  6  1        1 0.110295460612D-01 0.100000000000D+01
-.126566979399D-01 0.000000000000D+00 0.000000000000D+00 0.187147929506D-03 0.000000000000D+00  6 1 -1 25 2 -2 21 2 0.35976577D+00 0.84798684D-01 0.23400763D+06 0.23400763D+06 0.23400763D+06 0.10926255D+01  1  2  4  1  6  1        1 -.493482248512D-02 0.100000000000D+01
-.212381955388D+00 0.000000000000D+00 -.136584500210D-01 0.187147929506D-03 0.000000000000D+00  6 1 -1 25 2 -2 21 2 0.37476669D+00 0.84798684D-01 0.23400763D+06 0.23400763D+06 0.23400763D+06 0.10926255D+01  1  2  5  1  6  1        1 -.710404839603D-01 0.100000000000D+01
0.212773739118D+00 0.000000000000D+00 0.136470615819D-01 0.187147929506D-03 0.000000000000D+00  6 1 -1 25 2 -2 21 2 0.35976577D+00 0.84798684D-01 0.23400763D+06 0.23400763D+06 0.23400763D+06 0.10926255D+01  1  2  6  1  6  1        1 0.829600767138D-01 0.100000000000D+01
0.136678767746D-10 0.000000000000D+00 0.000000000000D+00 0.187147929506D-03 0.000000000000D+00  6 21 -1 25 2 -2 -1 2 0.37487003D+00 0.84798684D-01 0.23825403D+06 0.23825403D+06 0.23825403D+06 0.10920349D+01  1  2 12  5  6  1        1 0.164459998370D-11 0.100000000000D+01
0.112908043687D-02 0.000000000000D+00 0.000000000000D+00 0.187147929506D-03 0.000000000000D+00  6 21 -1 25 2 -2 -1 2 0.38227048D+00 0.84798684D-01 0.23825403D+06 0.23825403D+06 0.23825403D+06 0.10920349D+01  1  2 12  5  6  1        1 0.121154496263D-03 0.100000000000D+01
-.154798403906D-02 0.000000000000D+00 -.984941945404D-04 0.187147929506D-03 0.000000000000D+00  6 21 -1 25 2 -2 -1 2 0.37476669D+00 0.84798684D-01 0.23400763D+06 0.23400763D+06 0.23400763D+06 0.10926255D+01  1  2  5  5  6  1        1 -.187201411910D-03 0.100000000000D+01
  </mgrwgt>
  </event>
  <event>
  5     66 0.18148205E-05 0.99118970E+02 0.75467711E-02 0.92205435E-01
        3 -1    0    0  502    0 0.00000000E+00 0.00000000E+00 0.48480273E+03 0.48480299E+03 0.50000000E+00 0.0000E+00 0.9000E+01
       -3 -1    0    0    0  501 0.00000000E+00 0.00000000E+00 -.65418008E+03 0.65418027E+03 0.50000000E+00 0.0000E+00 0.9000E+01
       25  1    1    2    0    0 -.38070328E+03 -.24086407E+03 -.19001841E+02 0.46790657E+03 0.12500000E+03 0.0000E+00 0.9000E+01
        4  1    1    2  502    0 0.37689865E+02 0.92124169E+02 0.15778924E+03 0.18656697E+03 0.15500000E+01 0.0000E+00 0.9000E+01
       -4  1    1    2    0  501 0.34301341E+03 0.14873990E+03 -.30816474E+03 0.48450972E+03 0.15500000E+01 0.0000E+00 0.9000E+01
#aMCatNLO 1  0  0  2  2 0.30702370D+03 0.00000000D+00  -5  6  0 0.00000000D+00 0.00000000D+00 0.00000000D+00 0.00000000D+00 0.00000000D+00
  <mgrwgt>
 0.1045651235D-03    7    4    0
 0.563159431304896D+03 0.000000000000000D+00 0.000000000000000D+00 0.563159431304896D+03
 0.563159431304896D+03 0.000000000000000D+00 0.000000000000000D+00 -.563159431304896D+03
 0.470667007901745D+03 -.381059242053301D+03 -.240818010287201D+03 0.519901172749105D+02
 0.211498077072639D+03 0.375320047417531D+02 0.917383168660218D+02 0.186833793635087D+03
 0.444153777635408D+03 0.343527237311548D+03 0.149079693421179D+03 -.238823910909997D+03
 0.000000000000000D+00 0.000000000000000D+00 0.000000000000000D+00 -.000000000000000D+00
 0.669852689264911D+03 0.000000000000000D+00 0.000000000000000D+00 0.669852689264911D+03
 0.857267571844970D+03 0.000000000000000D+00 0.000000000000000D+00 -.857267571844970D+03
 0.610206037079974D+03 -.495806757759616D+03 -.328936307443379D+03 0.519901172749105D+02
 0.195869872197913D+03 -.571494306048630D+01 0.585275987595929D+02 0.186833793635087D+03
 0.361339069343065D+03 0.258014601448240D+03 0.834117980316465D+02 -.238823910909997D+03
 0.359705282488929D+03 0.243507099371863D+03 0.186996910652140D+03 -.187414882580060D+03
 0.563159431304896D+03 0.000000000000000D+00 0.000000000000000D+00 0.563159431304896D+03
 0.563159431304896D+03 0.000000000000000D+00 0.000000000000000D+00 -.563159431304896D+03
 0.470667007901745D+03 -.381059242053301D+03 -.240818010287201D+03 0.519901172749105D+02
 0.211498077072639D+03 0.375320047417531D+02 0.917383168660218D+02 0.186833793635087D+03
 0.000000000000000D+00 0.000000000000000D+00 0.000000000000000D+00 -.000000000000000D+00
 0.444153777635408D+03 0.343527237311548D+03 0.149079693421179D+03 -.238823910909997D+03
 0.669852689264911D+03 0.000000000000000D+00 0.000000000000000D+00 0.669852689264911D+03
 0.857267571844970D+03 0.000000000000000D+00 0.000000000000000D+00 -.857267571844970D+03
 0.610206037079974D+03 -.495806757759616D+03 -.328936307443379D+03 0.519901172749105D+02
 0.195869872197913D+03 -.571494306048630D+01 0.585275987595929D+02 0.186833793635087D+03
 0.359705282488929D+03 0.243507099371863D+03 0.186996910652140D+03 -.187414882580060D+03
 0.361339069343065D+03 0.258014601448240D+03 0.834117980316465D+02 -.238823910909997D+03
0.129958633542D-03 0.000000000000D+00 0.000000000000D+00 0.647707807011D-06 0.000000000000D+00  6 3 -3 25 4 -4 21 0 0.74585070D-01 0.10064312D+00 0.22155206D+06 0.22155206D+06 0.22155206D+06 0.10944281D+01  1  2  2  2  6  2       -3 0.747149198610D-04 0.100000000000D+01
0.141834132361D-04 0.000000000000D+00 -.499075371695D-06 0.647707807011D-06 0.000000000000D+00  6 3 -3 25 4 -4 21 2 0.74585070D-01 0.10064312D+00 0.22155206D+06 0.22155206D+06 0.22155206D+06 0.10944281D+01  1  2  3  2  6  2       -3 0.976691466075D-05 0.100000000000D+01
-.876422699915D-04 0.000000000000D+00 0.000000000000D+00 0.647707807011D-06 0.000000000000D+00  6 3 -3 25 4 -4 21 2 0.74585070D-01 0.10064312D+00 0.22155206D+06 0.22155206D+06 0.22155206D+06 0.10944281D+01  1  2 15  2  6  2       -3 -.603518037184D-04 0.100000000000D+01
-.161052998646D-04 0.000000000000D+00 0.000000000000D+00 0.647707807011D-06 0.000000000000D+00  6 3 -3 25 4 -4 21 2 0.74585070D-01 0.10064312D+00 0.22155206D+06 0.22155206D+06 0.22155206D+06 0.10944281D+01  1  2  4  2  6  2       -3 -.110903551032D-04 0.100000000000D+01
-.149221087904D-03 0.000000000000D+00 -.828438623682D-04 0.647707807011D-06 0.000000000000D+00  6 3 -3 25 4 -4 21 2 0.74585070D-01 0.17131690D+00 0.22155206D+06 0.22155206D+06 0.22155206D+06 0.10944281D+01  1  2  5  2  6  2       -3 -.201527507968D-04 0.100000000000D+01
0.177989133241D-03 0.000000000000D+00 0.723625393160D-04 0.647707807011D-06 0.000000000000D+00  6 3 -3 25 4 -4 21 2 0.74585070D-01 0.10064312D+00 0.22155206D+06 0.22155206D+06 0.22155206D+06 0.10944281D+01  1  2  6  2  6  2       -3 0.122566031601D-03 0.100000000000D+01
-.484650580456D-05 0.000000000000D+00 -.490964835123D-05 0.647707807011D-06 0.000000000000D+00  6 3 21 25 4 3 -4 2 0.74585070D-01 0.17131690D+00 0.22155206D+06 0.22155206D+06 0.22155206D+06 0.10944281D+01  3  4  5  6  5  2       -3 -.108878329917D-04 0.100000000000D+01
  </mgrwgt>
  </event>
  <event>
  5     66 0.18148205E-05 0.70917629E+02 0.75467711E-02 0.93085333E-01
        1 -1    0    0  502    0 0.00000000E+00 0.00000000E+00 0.23350230E+04 0.23350230E+04 0.32000000E+00 0.0000E+00 0.9000E+01
       -1 -1    0    0    0  501 0.00000000E+00 0.00000000E+00 -.53120515E+03 0.53120525E+03 0.32000000E+00 0.0000E+00 0.9000E+01
       25  1    1    2    0    0 0.90129250E+02 -.55606300E+03 -.11519335E+03 0.58840789E+03 0.12500000E+03 0.0000E+00 0.9000E+01
        2  1    1    2  502    0 -.93568708E+02 0.48522718E+03 0.20608339E+04 0.21192539E+04 0.32000000E+00 0.0000E+00 0.9000E+01
       -2  1    1    2    0  501 0.34394583E+01 0.70835811E+02 -.14182272E+03 0.15856648E+03 0.32000000E+00 0.0000E+00 0.9000E+01
#aMCatNLO 1  0  0  5  2 0.11606166D+02 0.00000000D+00  -5  6  0 0.00000000D+00 0.00000000D+00 0.00000000D+00 0.00000000D+00 0.00000000D+00
  <mgrwgt>
 0.2726233279D-02    8    2    0
 0.111372186187053D+04 0.000000000000000D+00 0.000000000000000D+00 0.111372186187053D+04
 0.111372186187053D+04 -.000000000000000D+00 -.000000000000000D+00 -.111372186187053D+04
 0.850445207336982D+03 0.901294860327999D+02 -.556062345521408D+03 -.624742662480429D+03
 0.105811923008869D+04 -.935688977943638D+02 0.485228169231881D+03 0.935636035129526D+03
 0.318879286315389D+03 0.343941176156386D+01 0.708341762895274D+02 -.310893372649097D+03
 0.000000000000000D+00 0.000000000000000D+00 0.000000000000000D+00 0.000000000000000D+00
 0.111372186187053D+04 0.000000000000000D+00 0.000000000000000D+00 0.111372186187053D+04
 0.111372186187053D+04 -.000000000000000D+00 -.000000000000000D+00 -.111372186187053D+04
 0.850829612621259D+03 0.901367298291382D+02 -.555913160607708D+03 -.625397439643064D+03
 0.105748365759997D+04 -.935598898455767D+02 0.485413686604218D+03 0.934821793691392D+03
 0.273825278231054D+03 -.865449313066896D+01 0.607345621302419D+02 -.266864564357678D+03
 0.453051752887743D+02 0.120776531471075D+02 0.976491187324848D+01 -.425597896906507D+02
0.554489856613D-03 0.000000000000D+00 0.000000000000D+00 0.170457556844D-04 0.000000000000D+00  6 1 -1 25 2 -2 21 0 0.35923431D+00 0.81723878D-01 0.32610181D+06 0.32610181D+06 0.32610181D+06 0.10818814D+01  1  2  2  4  6  5       -2 0.191582673869D-03 0.100000000000D+01
0.953103342564D-04 0.000000000000D+00 -.212938704992D-05 0.170457556844D-04 0.000000000000D+00  6 1 -1 25 2 -2 21 2 0.35923431D+00 0.81723878D-01 0.32610181D+06 0.32610181D+06 0.32610181D+06 0.10818814D+01  1  2  3  4  6  5       -2 0.385444566838D-04 0.100000000000D+01
-.366792025015D-03 0.000000000000D+00 0.000000000000D+00 0.170457556844D-04 0.000000000000D+00  6 1 -1 25 2 -2 21 2 0.35923431D+00 0.81723878D-01 0.32610181D+06 0.32610181D+06 0.32610181D+06 0.10818814D+01  1  2 15  4  6  5       -2 -.148334379797D-03 0.100000000000D+01
0.244418358797D-08 0.000000000000D+00 0.000000000000D+00 0.170457556844D-04 0.000000000000D+00  6 1 -1 25 2 -2 21 2 0.35923431D+00 0.81723878D-01 0.32953692D+06 0.32953692D+06 0.32953692D+06 0.10815474D+01  1  2 12  4  6  5       -2 0.987056708726D-09 0.100000000000D+01
0.579240026413D-02 0.000000000000D+00 0.000000000000D+00 0.170457556844D-04 0.000000000000D+00  6 1 -1 25 2 -2 21 2 0.35923431D+00 0.81723878D-01 0.32953692D+06 0.32953692D+06 0.32953692D+06 0.10815474D+01  1  2 12  4  6  5       -2 0.233919725526D-02 0.100000000000D+01
-.335185704245D-02 0.000000000000D+00 0.000000000000D+00 0.170457556844D-04 0.000000000000D+00  6 1 -1 25 2 -2 21 2 0.35923431D+00 0.81723878D-01 0.32610181D+06 0.32610181D+06 0.32610181D+06 0.10818814D+01  1  2  4  4  6  5       -2 -.135552466153D-02 0.100000000000D+01
-.134331287913D-01 0.000000000000D+00 0.000000000000D+00 0.170457556844D-04 0.000000000000D+00  6 1 -1 25 2 -2 21 2 0.35923431D+00 0.81723878D-01 0.32610181D+06 0.32610181D+06 0.32610181D+06 0.10818814D+01  1  2  5  4  6  5       -2 -.543249223564D-02 0.100000000000D+01
0.175397699672D-01 0.000000000000D+00 -.000000000000D+00 0.170457556844D-04 0.000000000000D+00  6 1 -1 25 2 -2 21 2 0.35923431D+00 0.81723878D-01 0.32610181D+06 0.32610181D+06 0.32610181D+06 0.10818814D+01  1  2  6  4  6  5       -2 0.709325918346D-02 0.100000000000D+01
  </mgrwgt>
  </event>
  <event>
  5     66 0.18148205E-05 0.20749200E+02 0.75467711E-02 0.94081145E-01
        1 -1    0    0  502    0 0.00000000E+00 0.00000000E+00 0.20496868E+04 0.20496868E+04 0.32000000E+00 0.0000E+00 0.9000E+01
       -1 -1    0    0    0  501 0.00000000E+00 0.00000000E+00 -.25480715E+03 0.25480735E+03 0.32000000E+00 0.0000E+00 0.9000E+01
       25  1    1    2    0    0 -.10333367E+03 0.49930778E+03 0.10496178E+04 0.11735879E+04 0.12500000E+03 0.0000E+00 0.9000E+01
        2  1    1    2  502    0 0.73617954E+01 -.19420599E+02 0.62711257E+03 0.62745648E+03 0.32000000E+00 0.0000E+00 0.9000E+01
       -2  1    1    2    0  501 0.95971874E+02 -.47988718E+03 0.11814929E+03 0.50344977E+03 0.32000000E+00 0.0000E+00 0.9000E+01
#aMCatNLO 1  0  0  1  2 0.17767881D+02 0.00000000D+00  -5  6  0 0.00000000D+00 0.00000000D+00 0.00000000D+00 0.00000000D+00 0.00000000D+00
  <mgrwgt>
 0.5026474851D-02    9    2    0
 0.722686035642976D+03 0.000000000000000D+00 0.000000000000000D+00 0.722686035642976D+03
 0.722686035642976D+03 0.000000000000000D+00 0.000000000000000D+00 -.722686035642976D+03
 0.567886225928349D+03 -.103349310566839D+03 0.499398212563320D+03 0.216310219113808D+03
 0.221445286413643D+03 0.735473999954517D+01 -.194019865603897D+02 0.220471053863925D+03
 0.656040558943960D+03 0.959945705672935D+02 -.479996226002930D+03 -.436781272977734D+03
 0.000000000000000D+00 -.000000000000000D+00 -.000000000000000D+00 0.000000000000000D+00
 0.760553230253609D+03 0.000000000000000D+00 0.000000000000000D+00 0.760553230253609D+03
 0.724827890363634D+03 0.000000000000000D+00 0.000000000000000D+00 -.724827890363634D+03
 0.573969396409939D+03 -.102879530710816D+03 0.506400591708628D+03 0.216310219113808D+03
 0.221230097135556D+03 0.753686458156784D+01 -.166872993326310D+02 0.220471053863925D+03
 0.650281783422970D+03 0.965320149778748D+02 -.471985261964842D+03 -.436781272977734D+03
 0.398998436487765D+02 -.118934884862681D+01 -.177280304111547D+02 0.357253398899752D+02
0.255568375781D-03 0.000000000000D+00 0.000000000000D+00 0.195154177609D-04 0.000000000000D+00  6 1 -1 25 2 -2 21 0 0.31533645D+00 0.39201117D-01 0.26797507D+06 0.26797507D+06 0.26797507D+06 0.10881978D+01  1  2  2  1  6  1        1 0.553669828847D-03 0.100000000000D+01
0.132632940488D-03 0.000000000000D+00 -.981449855696D-06 0.195154177609D-04 0.000000000000D+00  6 1 -1 25 2 -2 21 2 0.31533645D+00 0.39201117D-01 0.26797507D+06 0.26797507D+06 0.26797507D+06 0.10881978D+01  1  2  3  1  6  1        1 0.340259966815D-03 0.100000000000D+01
-.165901146415D-03 0.000000000000D+00 0.000000000000D+00 0.195154177609D-04 0.000000000000D+00  6 1 -1 25 2 -2 21 2 0.31533645D+00 0.39201117D-01 0.26797507D+06 0.26797507D+06 0.26797507D+06 0.10881978D+01  1  2 15  1  6  1        1 -.425607080460D-03 0.100000000000D+01
0.790574662058D-08 0.000000000000D+00 0.000000000000D+00 0.195154177609D-04 0.000000000000D+00  6 1 -1 25 2 -2 21 2 0.33231287D+00 0.39201117D-01 0.27535365D+06 0.27535365D+06 0.27535365D+06 0.10873171D+01  1  2 12  1  6  1        1 0.170590027716D-07 0.100000000000D+01
-.277068076761D-04 0.000000000000D+00 0.000000000000D+00 0.195154177609D-04 0.000000000000D+00  6 1 -1 25 2 -2 21 2 0.31533645D+00 0.39201117D-01 0.26797507D+06 0.26797507D+06 0.26797507D+06 0.10881978D+01  1  2  4  1  6  1        1 -.710797591137D-04 0.100000000000D+01
-.116898787784D-01 0.000000000000D+00 -.854488189692D-03 0.195154177609D-04 0.000000000000D+00  6 1 -1 25 2 -2 21 2 0.33219316D+00 0.39201117D-01 0.26797507D+06 0.26797507D+06 0.26797507D+06 0.10881978D+01  1  2  5  1  6  1        1 -.253350658679D-01 0.100000000000D+01
0.117196396822D-01 0.000000000000D+00 0.853330829791D-03 0.195154177609D-04 0.000000000000D+00  6 1 -1 25 2 -2 21 2 0.31533645D+00 0.39201117D-01 0.26797507D+06 0.26797507D+06 0.26797507D+06 0.10881978D+01  1  2  6  1  6  1        1 0.300658659506D-01 0.100000000000D+01
0.130421886801D-09 0.000000000000D+00 0.000000000000D+00 0.195154177609D-04 0.000000000000D+00  6 21 -1 25 2 -2 -1 2 0.33231287D+00 0.39201117D-01 0.27535365D+06 0.27535365D+06 0.27535365D+06 0.10873171D+01  1  2 12  5  6  1        1 0.125473360973D-09 0.100000000000D+01
-.104923652256D-03 0.000000000000D+00 -.772900674658D-05 0.195154177609D-04 0.000000000000D+00  6 21 -1 25 2 -2 -1 2 0.33219316D+00 0.39201117D-01 0.26797507D+06 0.26797507D+06 0.26797507D+06 0.10881978D+01  1  2  5  5  6  1        1 -.101585372279D-03 0.100000000000D+01
  </mgrwgt>
  </event>
  <event>
  5     66 0.18148205E-05 0.16577046E+03 0.75467711E-02 0.91398832E-01
        1 -1    0    0  502    0 0.00000000E+00 0.00000000E+00 0.15232635E+04 0.15232636E+04 0.32000000E+00 0.0000E+00 0.9000E+01
       -1 -1    0    0    0  501 0.00000000E+00 0.00000000E+00 -.38655527E+03 0.38655541E+03 0.32000000E+00 0.0000E+00 0.9000E+01
       25  1    1    2    0    0 0.43139268E+03 -.17214098E+03 0.81557748E+03 0.94684941E+03 0.12500000E+03 0.0000E+00 0.9000E+01
        2  1    1    2  502    0 0.16556619E+03 -.19400255E+02 0.29093361E+03 0.33530732E+03 0.32000000E+00 0.0000E+00 0.9000E+01
       -2  1    1    2    0  501 -.59695887E+03 0.19154124E+03 0.30197180E+02 0.62766226E+03 0.32000000E+00 0.0000E+00 0.9000E+01
#aMCatNLO 1  0  0  2  1 0.67151724D+02 0.00000000D+00  -5  6  0 0.00000000D+00 0.00000000D+00 0.00000000D+00 0.00000000D+00 0.00000000D+00
  <mgrwgt>
 0.9557214283D-04    9    4    0
 0.767349799172709D+03 0.000000000000000D+00 0.000000000000000D+00 0.767349799172709D+03
 0.767349799172709D+03 0.000000000000000D+00 0.000000000000000D+00 -.767349799172709D+03
 0.574431822595658D+03 0.431642744035802D+03 -.172195295624370D+03 0.313656245747871D+03
 0.201550175609355D+03 0.165378906634136D+03 -.193783100716467D+02 0.113563953908917D+03
 0.758717600140405D+03 -.597021650669938D+03 0.191573605696017D+03 -.427220199656788D+03
 0.000000000000000D+00 -.000000000000000D+00 0.000000000000000D+00 -.000000000000000D+00
 0.793280514354077D+03 0.000000000000000D+00 0.000000000000000D+00 0.793280514354077D+03
 0.812825883064999D+03 0.000000000000000D+00 0.000000000000000D+00 -.812825883064999D+03
 0.595068197588798D+03 0.456581000304441D+03 -.177861489496539D+03 0.313656245747871D+03
 0.208987295203393D+03 0.174133150737007D+03 -.213673522788010D+02 0.113563953908917D+03
 0.732112535516361D+03 -.565231395574299D+03 0.184350576680789D+03 -.427220199656788D+03
 0.699383691105252D+02 -.654827554671493D+02 0.148782650945505D+02 -.195453687109219D+02
 0.767349799172709D+03 0.000000000000000D+00 0.000000000000000D+00 0.767349799172709D+03
 0.767349799172709D+03 0.000000000000000D+00 0.000000000000000D+00 -.767349799172709D+03
 0.574431822595658D+03 0.431642744035802D+03 -.172195295624370D+03 0.313656245747871D+03
 0.201550175609355D+03 0.165378906634136D+03 -.193783100716467D+02 0.113563953908917D+03
 0.000000000000000D+00 -.000000000000000D+00 0.000000000000000D+00 -.000000000000000D+00
 0.758717600140405D+03 -.597021650669938D+03 0.191573605696017D+03 -.427220199656788D+03
 0.793280514354077D+03 0.000000000000000D+00 0.000000000000000D+00 0.793280514354077D+03
 0.812825883064999D+03 0.000000000000000D+00 0.000000000000000D+00 -.812825883064999D+03
 0.595068197588798D+03 0.456581000304441D+03 -.177861489496539D+03 0.313656245747871D+03
 0.208987295203393D+03 0.174133150737007D+03 -.213673522788010D+02 0.113563953908917D+03
 0.699383691105252D+02 -.654827554671493D+02 0.148782650945505D+02 -.195453687109219D+02
 0.732112535516361D+03 -.565231395574299D+03 0.184350576680789D+03 -.427220199656788D+03
0.587694661315D-04 0.000000000000D+00 0.000000000000D+00 0.204621793020D-07 0.000000000000D+00  6 1 -1 25 2 -2 21 0 0.23434825D+00 0.59470055D-01 0.40625015D+06 0.40625015D+06 0.40625015D+06 0.10749425D+01  1  2  2  2  6  2       -1 0.131151251568D-03 0.100000000000D+01
0.263456360312D-05 0.000000000000D+00 -.225690224301D-06 0.204621793020D-07 0.000000000000D+00  6 1 -1 25 2 -2 21 2 0.23434825D+00 0.59470055D-01 0.40625015D+06 0.40625015D+06 0.40625015D+06 0.10749425D+01  1  2  3  2  6  2       -1 0.679359863307D-05 0.100000000000D+01
-.449488262540D-04 0.000000000000D+00 0.000000000000D+00 0.204621793020D-07 0.000000000000D+00  6 1 -1 25 2 -2 21 2 0.23434825D+00 0.59470055D-01 0.40625015D+06 0.40625015D+06 0.40625015D+06 0.10749425D+01  1  2 15  2  6  2       -1 -.115906970033D-03 0.100000000000D+01
0.180806402073D-06 0.000000000000D+00 0.000000000000D+00 0.204621793020D-07 0.000000000000D+00  6 1 -1 25 2 -2 21 2 0.23434825D+00 0.63952037D-01 0.45079090D+06 0.45079090D+06 0.45079090D+06 0.10717050D+01  1  2 12  2  6  2       -1 0.401166609611D-06 0.100000000000D+01
-.347368725113D-04 0.000000000000D+00 0.000000000000D+00 0.204621793020D-07 0.000000000000D+00  6 1 -1 25 2 -2 21 2 0.23434825D+00 0.59470055D-01 0.40625015D+06 0.40625015D+06 0.40625015D+06 0.10749425D+01  1  2  4  2  6  2       -1 -.895739883946D-04 0.100000000000D+01
-.865264121007D-03 0.000000000000D+00 -.167880997264D-03 0.204621793020D-07 0.000000000000D+00  6 1 -1 25 2 -2 21 2 0.23434825D+00 0.64953411D-01 0.40625015D+06 0.40625015D+06 0.40625015D+06 0.10749425D+01  1  2  5  2  6  2       -1 -.188486825559D-02 0.100000000000D+01
0.877307225570D-03 0.000000000000D+00 0.167230152837D-03 0.204621793020D-07 0.000000000000D+00  6 1 -1 25 2 -2 21 2 0.23434825D+00 0.59470055D-01 0.40625015D+06 0.40625015D+06 0.40625015D+06 0.10749425D+01  1  2  6  2  6  2       -1 0.226226201614D-02 0.100000000000D+01
0.226728436751D-08 0.000000000000D+00 0.000000000000D+00 0.204621793020D-07 0.000000000000D+00  6 1 21 25 2 1 -2 2 0.23434825D+00 0.63952037D-01 0.45079090D+06 0.45079090D+06 0.45079090D+06 0.10717050D+01  3  4 12  6  5  2       -1 0.408984787667D-07 0.100000000000D+01
-.121599363448D-04 0.000000000000D+00 -.244418051523D-05 0.204621793020D-07 0.000000000000D+00  6 1 21 25 2 1 -2 2 0.23434825D+00 0.64953411D-01 0.40625015D+06 0.40625015D+06 0.40625015D+06 0.10749425D+01  3  4  5  6  5  2       -1 -.214727574578D-03 0.100000000000D+01
  </mgrwgt>
  </event>
  <event>
  5     66 0.18148205E-05 0.28710603E+02 0.75467711E-02 0.94300152E-01
        1 -1    0    0  502    0 0.00000000E+00 0.00000000E+00 0.12069678E+04 0.12069679E+04 0.32000000E+00 0.0000E+00 0.9000E+01
       -1 -1    0    0    0  501 0.00000000E+00 0.00000000E+00 -.98320805E+03 0.98320810E+03 0.32000000E+00 0.0000E+00 0.9000E+01
       25  1    1    2    0    0 -.19821582E+03 -.44169973E+03 0.25964923E+03 0.56341005E+03 0.12500000E+03 0.0000E+00 0.9000E+01
        2  1    1    2  502    0 0.22168631E+02 -.18252271E+02 0.72218770E+03 0.72275844E+03 0.32000000E+00 0.0000E+00 0.9000E+01
       -2  1    1    2    0  501 0.17604719E+03 0.45995200E+03 -.75807715E+03 0.90400748E+03 0.32000000E+00 0.0000E+00 0.9000E+01
#aMCatNLO 1  0  0  1  4 0.69086109D+01 0.00000000D+00  -5  6  0 0.00000000D+00 0.00000000D+00 0.00000000D+00 0.00000000D+00 0.00000000D+00
  <mgrwgt>
 0.7927447525D-01   13    2    0
 0.108935787996412D+04 0.000000000000000D+00 0.000000000000000D+00 0.108935787996412D+04
 0.108935787996412D+04 0.000000000000000D+00 0.000000000000000D+00 -.108935787996412D+04
 0.539805269087525D+03 -.198236808410458D+03 -.441764592711907D+03 0.203250930999033D+03
 0.652272920955336D+03 0.221646666092241D+02 -.182490071311054D+02 0.651640748192159D+03
 0.986637569885385D+03 0.176072141801233D+03 0.460013599843013D+03 -.854891679191193D+03
 0.000000000000000D+00 -.000000000000000D+00 0.000000000000000D+00 0.000000000000000D+00
 0.167710077028886D+04 0.000000000000000D+00 0.000000000000000D+00 0.167710077028886D+04
 0.108938365864306D+04 0.000000000000000D+00 0.000000000000000D+00 -.108938365864306D+04
 0.540698687016255D+03 -.197370594795744D+03 -.443242571848759D+03 0.203250930999033D+03
 0.652361662401252D+03 0.232105602701830D+02 -.200335657942407D+02 0.651640748192159D+03
 0.985666363932426D+03 0.177653289663003D+03 0.457315762367039D+03 -.854891679191193D+03
 0.587757715581989D+03 -.349325513744168D+01 0.596037527596109D+01 0.587717111645792D+03
0.739832363155D-04 0.000000000000D+00 0.000000000000D+00 0.269966978903D-03 0.000000000000D+00  6 1 -1 25 2 -2 21 0 0.18568737D+00 0.15126278D+00 0.26078789D+06 0.26078789D+06 0.26078789D+06 0.10890815D+01  1  2  2  1  6  1        1 0.341286749818D-04 0.100000000000D+01
0.442440263373D-04 0.000000000000D+00 -.284115107685D-06 0.269966978903D-03 0.000000000000D+00  6 1 -1 25 2 -2 21 2 0.18568737D+00 0.15126278D+00 0.26078789D+06 0.26078789D+06 0.26078789D+06 0.10890815D+01  1  2  3  1  6  1        1 0.242081454471D-04 0.100000000000D+01
-.503592589390D-04 0.000000000000D+00 0.000000000000D+00 0.269966978903D-03 0.000000000000D+00  6 1 -1 25 2 -2 21 2 0.18568737D+00 0.15126278D+00 0.26078789D+06 0.26078789D+06 0.26078789D+06 0.10890815D+01  1  2 15  1  6  1        1 -.275540986191D-04 0.100000000000D+01
0.419666238970D-08 0.000000000000D+00 0.000000000000D+00 0.269966978903D-03 0.000000000000D+00  6 1 -1 25 2 -2 21 2 0.28587278D+00 0.15126278D+00 0.26482474D+06 0.26482474D+06 0.26482474D+06 0.10885819D+01  1  2 12  1  6  1        1 0.832448495292D-09 0.100000000000D+01
0.375062898389D+00 0.000000000000D+00 0.000000000000D+00 0.269966978903D-03 0.000000000000D+00  6 1 -1 25 2 -2 21 2 0.29477347D+00 0.15126278D+00 0.26482474D+06 0.26482474D+06 0.26482474D+06 0.10885819D+01  1  2 12  1  6  1        1 0.681081302932D-01 0.100000000000D+01
-.223342606274D+00 0.000000000000D+00 0.000000000000D+00 0.269966978903D-03 0.000000000000D+00  6 1 -1 25 2 -2 21 2 0.18568737D+00 0.15126278D+00 0.26078789D+06 0.26078789D+06 0.26078789D+06 0.10890815D+01  1  2  4  1  6  1        1 -.122202040474D+00 0.100000000000D+01
-.437794157497D+00 0.000000000000D+00 -.465627937807D-04 0.269966978903D-03 0.000000000000D+00  6 1 -1 25 2 -2 21 2 0.28587345D+00 0.15126278D+00 0.26078789D+06 0.26078789D+06 0.26078789D+06 0.10890815D+01  1  2  5  1  6  1        1 -.870359256360D-01 0.100000000000D+01
0.400001036929D+00 0.000000000000D+00 0.425408600934D-04 0.269966978903D-03 0.000000000000D+00  6 1 -1 25 2 -2 21 2 0.18568737D+00 0.15126278D+00 0.26078789D+06 0.26078789D+06 0.26078789D+06 0.10890815D+01  1  2  6  1  6  1        1 0.218860806363D+00 0.100000000000D+01
0.987246882543D-02 0.000000000000D+00 0.000000000000D+00 0.269966978903D-03 0.177577854609D-04  6 1 -1 25 2 -2 21 2 0.28587155D+00 0.15126636D+00 0.26482474D+06 0.26482474D+06 0.26482474D+06 0.10885819D+01  1  2 11  1  6  1        1 0.195818956089D-02 0.100000000000D+01
0.211287856102D-09 0.000000000000D+00 0.000000000000D+00 0.269966978903D-03 0.000000000000D+00  6 21 -1 25 2 -2 -1 2 0.28587278D+00 0.15126278D+00 0.26482474D+06 0.26482474D+06 0.26482474D+06 0.10885819D+01  1  2 12  5  6  1        1 0.238737908977D-10 0.100000000000D+01
0.198896683508D-01 0.000000000000D+00 0.000000000000D+00 0.269966978903D-03 0.000000000000D+00  6 21 -1 25 2 -2 -1 2 0.29477347D+00 0.15126278D+00 0.26482474D+06 0.26482474D+06 0.26482474D+06 0.10885819D+01  1  2 12  5  6  1        1 0.196182333340D-02 0.100000000000D+01
-.220397989391D-01 0.000000000000D+00 -.234428988621D-05 0.269966978903D-03 0.000000000000D+00  6 21 -1 25 2 -2 -1 2 0.28587345D+00 0.15126278D+00 0.26078789D+06 0.26078789D+06 0.26078789D+06 0.10890815D+01  1  2  5  5  6  1        1 -.249770313781D-02 0.100000000000D+01
0.800198426470D-03 0.000000000000D+00 0.000000000000D+00 0.269966978903D-03 0.141080356375D-05  6 21 -1 25 2 -2 -1 2 0.28587155D+00 0.15126636D+00 0.26482474D+06 0.26482474D+06 0.26482474D+06 0.10885819D+01  1  2 11  5  6  1        1 0.904113659761D-04 0.100000000000D+01
  </mgrwgt>
  </event>
  <event>
  5     66 0.18148205E-05 0.68910200E+02 0.75467711E-02 0.88476063E-01
        1 -1    0    0  502    0 0.00000000E+00 0.00000000E+00 0.22556965E+04 0.22556966E+04 0.32000000E+00 0.0000E+00 0.9000E+01
       -1 -1    0    0    0  501 0.00000000E+00 0.00000000E+00 -.42563366E+03 0.42563378E+03 0.32000000E+00 0.0000E+00 0.9000E+01
       25  1    1    2    0    0 -.17321634E+02 0.55950485E+03 0.52349568E+03 0.77654263E+03 0.12500000E+03 0.0000E+00 0.9000E+01
        2  1    1    2  502    0 0.59809340E+02 0.34255980E+02 0.13076923E+04 0.13095075E+04 0.32000000E+00 0.0000E+00 0.9000E+01
       -2  1    1    2    0  501 -.42487706E+02 -.59376083E+03 -.11251413E+01 0.59528019E+03 0.32000000E+00 0.0000E+00 0.9000E+01
#aMCatNLO 1  0  0  2  2 0.46527737D+03 0.00000000D+00  -5  6  0 0.00000000D+00 0.00000000D+00 0.00000000D+00 0.00000000D+00 0.00000000D+00
  <mgrwgt>
 0.3221194704D-02    7    4    0
 0.979847216829281D+03 0.000000000000000D+00 0.000000000000000D+00 0.979847216829281D+03
 0.979847216829281D+03 0.000000000000000D+00 0.000000000000000D+00 -.979847216829281D+03
 0.573717946166055D+03 -.173093042379421D+02 0.559597765686628D+03 -.883234840396148D+01
 0.570408268279436D+03 0.597966627874418D+02 0.342487189856326D+02 0.566230498020791D+03
 0.815568219213071D+03 -.424873585494997D+02 -.593846484672261D+03 -.557398149616829D+03
 0.000000000000000D+00 0.000000000000000D+00 0.000000000000000D+00 -.000000000000000D+00
 0.122922412258215D+04 0.000000000000000D+00 0.000000000000000D+00 0.122922412258215D+04
 0.125072068572218D+04 0.000000000000000D+00 0.000000000000000D+00 -.125072068572218D+04
 0.520301694485981D+03 -.124459514226755D+03 0.489408492187348D+03 -.883234840396148D+01
 0.569933123923275D+03 -.518903811130061D+02 -.389124299423350D+02 0.566230498020791D+03
 0.923936301421403D+03 -.212857494273376D+03 -.705448282313917D+03 -.557398149616829D+03
 0.465773688473672D+03 0.389207389613138D+03 0.254952220068904D+03 -.214965631400298D+02
 0.979847216829281D+03 0.000000000000000D+00 0.000000000000000D+00 0.979847216829281D+03
 0.979847216829281D+03 0.000000000000000D+00 0.000000000000000D+00 -.979847216829281D+03
 0.573717946166055D+03 -.173093042379421D+02 0.559597765686628D+03 -.883234840396148D+01
 0.570408268279436D+03 0.597966627874418D+02 0.342487189856326D+02 0.566230498020791D+03
 0.000000000000000D+00 0.000000000000000D+00 0.000000000000000D+00 -.000000000000000D+00
 0.815568219213071D+03 -.424873585494997D+02 -.593846484672261D+03 -.557398149616829D+03
 0.122922412258215D+04 0.000000000000000D+00 0.000000000000000D+00 0.122922412258215D+04
 0.125072068572218D+04 0.000000000000000D+00 0.000000000000000D+00 -.125072068572218D+04
 0.520301694485981D+03 -.124459514226755D+03 0.489408492187348D+03 -.883234840396148D+01
 0.569933123923275D+03 -.518903811130061D+02 -.389124299423350D+02 0.566230498020791D+03
 0.465773688473672D+03 0.389207389613138D+03 0.254952220068904D+03 -.214965631400298D+02
 0.923936301421403D+03 -.212857494273376D+03 -.705448282313917D+03 -.557398149616829D+03
0.407801102009D-02 0.000000000000D+00 0.000000000000D+00 0.133456283826D-04 0.000000000000D+00  6 1 -1 25 2 -2 21 0 0.34703025D+00 0.65482113D-01 0.38311433D+06 0.38311433D+06 0.38311433D+06 0.10767806D+01  1  2  2  2  6  2       -1 0.245394375320D-02 0.100000000000D+01
0.136970875510D-02 0.000000000000D+00 -.156606360821D-04 0.133456283826D-04 0.000000000000D+00  6 1 -1 25 2 -2 21 2 0.34703025D+00 0.65482113D-01 0.38311433D+06 0.38311433D+06 0.38311433D+06 0.10767806D+01  1  2  3  2  6  2       -1 0.955650000110D-03 0.100000000000D+01
-.271805399499D-02 0.000000000000D+00 0.000000000000D+00 0.133456283826D-04 0.000000000000D+00  6 1 -1 25 2 -2 21 2 0.34703025D+00 0.65482113D-01 0.38311433D+06 0.38311433D+06 0.38311433D+06 0.10767806D+01  1  2 15  2  6  2       -1 -.189639461012D-02 0.100000000000D+01
-.116737477674D-03 0.000000000000D+00 0.000000000000D+00 0.133456283826D-04 0.000000000000D+00  6 1 -1 25 2 -2 21 2 0.34703025D+00 0.65482113D-01 0.38311433D+06 0.38311433D+06 0.38311433D+06 0.10767806D+01  1  2  4  2  6  2       -1 -.814480962735D-04 0.100000000000D+01
-.183894600995D-02 0.000000000000D+00 -.277789045066D-02 0.133456283826D-04 0.000000000000D+00  6 1 -1 25 2 -2 21 2 0.34703025D+00 0.10838293D+00 0.38311433D+06 0.38311433D+06 0.38311433D+06 0.10767806D+01  1  2  5  2  6  2       -1 -.443536881341D-03 0.100000000000D+01
0.314921680963D-02 0.000000000000D+00 0.245904252256D-02 0.133456283826D-04 0.000000000000D+00  6 1 -1 25 2 -2 21 2 0.34703025D+00 0.65482113D-01 0.38311433D+06 0.38311433D+06 0.38311433D+06 0.10767806D+01  1  2  6  2  6  2       -1 0.219721822852D-02 0.100000000000D+01
0.220660999626D-04 0.000000000000D+00 -.157592162009D-03 0.133456283826D-04 0.000000000000D+00  6 1 21 25 2 1 -2 2 0.34703025D+00 0.10838293D+00 0.38311433D+06 0.38311433D+06 0.38311433D+06 0.10767806D+01  3  4  5  6  5  2       -1 0.357623102111D-04 0.100000000000D+01
  </mgrwgt>
  </event>
  <event>
  5     66 -.18148205E-05 0.29532973E+02 0.75467711E-02 0.87616903E-01
        1 -1    0    0  502    0 0.00000000E+00 0.00000000E+00 0.26331481E+04 0.26331481E+04 0.32000000E+00 0.0000E+00 0.9000E+01
       -1 -1    0    0    0  501 0.00000000E+00 0.00000000E+00 -.47155724E+03 0.47155735E+03 0.32000000E+00 0.0000E+00 0.9000E+01
       25  1    1    2    0    0 -.75149120E+03 0.57916267E+03 0.10488013E+04 0.14197808E+04 0.12500000E+03 0.0000E+00 0.9000E+01
        2  1    1    2  502    0 0.75013359E+03 -.60866217E+03 0.12300338E+04 0.15640183E+04 0.32000000E+00 0.0000E+00 0.9000E+01
       -2  1    1    2    0  501 0.13576047E+01 0.29499499E+02 -.11724416E+03 0.12090640E+03 0.32000000E+00 0.0000E+00 0.9000E+01
#aMCatNLO 1  0  0  4  1 0.34487122D+02 0.00000000D+00  -5  6  0 0.00000000D+00 0.00000000D+00 0.00000000D+00 0.00000000D+00 0.00000000D+00
  <mgrwgt>
 -.8306675118D-03    6    2    0
 0.111430707909943D+04 0.000000000000000D+00 0.000000000000000D+00 0.111430707909943D+04
 0.111430707909943D+04 -.000000000000000D+00 -.000000000000000D+00 -.111430707909943D+04
 0.960634845813393D+03 -.751476311870316D+03 0.579148059773509D+03 0.840546521573232D+02
 0.985788244947504D+03 0.750118347761198D+03 -.608649795981794D+03 0.196586759676260D+03
 0.282191067437953D+03 0.135796410911792D+01 0.295017362082846D+02 -.280641411833583D+03
 0.000000000000000D+00 0.000000000000000D+00 -.000000000000000D+00 0.000000000000000D+00
 0.111430707909943D+04 0.000000000000000D+00 0.000000000000000D+00 0.111430707909943D+04
 0.111430707909943D+04 -.000000000000000D+00 -.000000000000000D+00 -.111430707909943D+04
 0.959556349603803D+03 -.750612439426367D+03 0.578447109332378D+03 0.842810509449764D+02
 0.635822814047777D+03 0.494918040341391D+03 -.369809827842171D+03 0.150224749757206D+03
 0.282104770156130D+03 0.161183446614069D+01 0.292957445251470D+02 -.280574878931123D+03
 0.351130224391140D+03 0.254082564618836D+03 -.237933026015355D+03 0.460690782289409D+02
0.766560291391D-04 0.000000000000D+00 0.000000000000D+00 0.135111920569D-05 0.000000000000D+00  6 1 -1 25 2 -2 21 0 0.40509972D+00 0.72547278D-01 0.95303579D+06 0.95303579D+06 0.95303579D+06 0.10492574D+01  1  2  2  3  6  4        2 0.192692615709D-04 0.100000000000D+01
0.432463518717D-04 0.000000000000D+00 -.294379335890D-06 0.135111920569D-05 0.000000000000D+00  6 1 -1 25 2 -2 21 2 0.40509972D+00 0.72547278D-01 0.95303579D+06 0.95303579D+06 0.95303579D+06 0.10492574D+01  1  2  3  3  6  4        2 0.119682963012D-04 0.100000000000D+01
-.582658061421D-04 0.000000000000D+00 0.000000000000D+00 0.135111920569D-05 0.000000000000D+00  6 1 -1 25 2 -2 21 2 0.40509972D+00 0.72547278D-01 0.95303579D+06 0.95303579D+06 0.95303579D+06 0.10492574D+01  1  2 15  3  6  4        2 -.161248845731D-04 0.100000000000D+01
-.459237845255D-02 0.000000000000D+00 0.000000000000D+00 0.135111920569D-05 0.000000000000D+00  6 1 -1 25 2 -2 21 2 0.40509972D+00 0.72547278D-01 0.95303579D+06 0.95303579D+06 0.95303579D+06 0.10492574D+01  1  2  4  3  6  4        2 -.127092676419D-02 0.100000000000D+01
-.371124491260D-02 0.000000000000D+00 0.000000000000D+00 0.135111920569D-05 0.000000000000D+00  6 1 -1 25 2 -2 21 2 0.40509972D+00 0.72547278D-01 0.95303579D+06 0.95303579D+06 0.95303579D+06 0.10492574D+01  1  2  5  3  6  4        2 -.102707573790D-02 0.100000000000D+01
0.524747346968D-02 0.000000000000D+00 -.000000000000D+00 0.135111920569D-05 0.000000000000D+00  6 1 -1 25 2 -2 21 2 0.40509972D+00 0.72547278D-01 0.95303579D+06 0.95303579D+06 0.95303579D+06 0.10492574D+01  1  2  6  3  6  4        2 0.145222231702D-02 0.100000000000D+01
  </mgrwgt>
  </event>
  <event>
  5     66 -.18148205E-05 0.32905648E+02 0.75467711E-02 0.93443386E-01
        1 -1    0    0  502    0 0.00000000E+00 0.00000000E+00 0.13366808E+04 0.13366809E+04 0.32000000E+00 0.0000E+00 0.9000E+01
       -1 -1    0    0    0  501 0.00000000E+00 0.00000000E+00 -.73714894E+03 0.73714901E+03 0.32000000E+00 0.0000E+00 0.9000E+01
       25  1    1    2    0    0 0.53335239E+03 0.41591080E+01 0.41032242E+03 0.68444982E+03 0.12500000E+03 0.0000E+00 0.9000E+01
        2  1    1    2  502    0 0.81774399E+00 -.32905307E+02 0.66959197E+03 0.67040058E+03 0.32000000E+00 0.0000E+00 0.9000E+01
       -2  1    1    2    0  501 -.53417013E+03 0.28746199E+02 -.48038249E+03 0.71897949E+03 0.32000000E+00 0.0000E+00 0.9000E+01
#aMCatNLO 1  0  0  5  1 0.38037475D+02 0.00000000D+00  -5  6  0 0.00000000D+00 0.00000000D+00 0.00000000D+00 0.00000000D+00 0.00000000D+00
  <mgrwgt>
 -.2207605642D-01    6    2    0
 0.992639400309225D+03 0.000000000000000D+00 0.000000000000000D+00 0.992639400309225D+03
 0.992639400309225D+03 -.000000000000000D+00 -.000000000000000D+00 -.992639400309225D+03
 0.591186204380263D+03 0.533434164936737D+03 0.414754394904463D+01 0.222051610683146D+03
 0.497945083547349D+03 0.817500046005387D+00 -.328954913273210D+02 0.496856643885321D+03
 0.896147512690838D+03 -.534251664982742D+03 0.287479473782764D+02 -.718908254568467D+03
 0.000000000000000D+00 0.000000000000000D+00 0.000000000000000D+00 -.000000000000000D+00
 0.992639400309225D+03 0.000000000000000D+00 0.000000000000000D+00 0.992639400309225D+03
 0.992639400309225D+03 -.000000000000000D+00 -.000000000000000D+00 -.992639400309225D+03
 0.588984798486917D+03 0.531868723757118D+03 0.423177994418545D+01 0.219945096731326D+03
 0.496169438924706D+03 -.501145986606703D+00 -.328245353168099D+02 0.495082226359211D+03
 0.804771864678018D+03 -.509758226174936D+03 0.262959160318834D+02 -.622183919612489D+03
 0.953526985288092D+02 -.216093515955755D+02 0.229683934074104D+01 -.928434034780479D+02
0.122979329727D-02 0.000000000000D+00 0.000000000000D+00 0.831753115966D-04 0.000000000000D+00  6 1 -1 25 2 -2 21 0 0.20564321D+00 0.11340754D+00 0.31126916D+06 0.31126916D+06 0.31126916D+06 0.10833690D+01  1  2  2  4  6  5       -2 0.966010247915D-03 0.100000000000D+01
0.637175220597D-03 0.000000000000D+00 -.472273007354D-05 0.831753115966D-04 0.000000000000D+00  6 1 -1 25 2 -2 21 2 0.20564321D+00 0.11340754D+00 0.31126916D+06 0.31126916D+06 0.31126916D+06 0.10833690D+01  1  2  3  4  6  5       -2 0.587437004892D-03 0.100000000000D+01
-.811231950045D-03 0.000000000000D+00 0.000000000000D+00 0.831753115966D-04 0.000000000000D+00  6 1 -1 25 2 -2 21 2 0.20564321D+00 0.11340754D+00 0.31126916D+06 0.31126916D+06 0.31126916D+06 0.10833690D+01  1  2 15  4  6  5       -2 -.747906779176D-03 0.100000000000D+01
-.282266164393D-01 0.000000000000D+00 0.000000000000D+00 0.831753115966D-04 0.000000000000D+00  6 1 -1 25 2 -2 21 2 0.20564321D+00 0.11340754D+00 0.31126916D+06 0.31126916D+06 0.31126916D+06 0.10833690D+01  1  2  4  4  6  5       -2 -.260232326735D-01 0.100000000000D+01
-.304177158026D-01 0.000000000000D+00 0.000000000000D+00 0.831753115966D-04 0.000000000000D+00  6 1 -1 25 2 -2 21 2 0.20564321D+00 0.11340754D+00 0.31126916D+06 0.31126916D+06 0.31126916D+06 0.10833690D+01  1  2  5  4  6  5       -2 -.280432937270D-01 0.100000000000D+01
0.338253534789D-01 0.000000000000D+00 -.000000000000D+00 0.831753115966D-04 0.000000000000D+00  6 1 -1 25 2 -2 21 2 0.20564321D+00 0.11340754D+00 0.31126916D+06 0.31126916D+06 0.31126916D+06 0.10833690D+01  1  2  6  4  6  5       -2 0.311849295056D-01 0.100000000000D+01
  </mgrwgt>
  </event>
  <event>
  5     66 -.18148205E-05 0.40406801E+02 0.75467711E-02 0.92061638E-01
        1 -1    0    0  502    0 0.00000000E+00 0.00000000E+00 0.13325875E+04 0.13325875E+04 0.32000000E+00 0.0000E+00 0.9000E+01
       -1 -1    0    0    0  501 0.00000000E+00 0.00000000E+00 -.70915904E+03 0.70915912E+03 0.32000000E+00 0.0000E+00 0.9000E+01
       25  1    1    2    0    0 -.37741862E+03 -.46841209E+03 0.48041391E+03 0.77992129E+03 0.12500000E+03 0.0000E+00 0.9000E+01
        2  1    1    2  502    0 -.25605731E+02 0.31281512E+02 0.54347134E+03 0.54497283E+03 0.32000000E+00 0.0000E+00 0.9000E+01
       -2  1    1    2    0  501 0.40302435E+03 0.43713058E+03 -.40045681E+03 0.71685251E+03 0.32000000E+00 0.0000E+00 0.9000E+01
#aMCatNLO 1  0  0  5  2 0.37869698D+02 0.00000000D+00  -5  6  0 0.00000000D+00 0.00000000D+00 0.00000000D+00 0.00000000D+00 0.00000000D+00
  <mgrwgt>
 -.6072216421D-02    6    2    0
 0.972119630935312D+03 0.000000000000000D+00 0.000000000000000D+00 0.972119630935312D+03
 0.972119630935312D+03 -.000000000000000D+00 -.000000000000000D+00 -.972119630935312D+03
 0.665128358205823D+03 -.377491155964919D+03 -.468471287117959D+03 0.254569859181886D+03
 0.397857884271927D+03 -.255941580821446D+02 0.312673735299117D+02 0.395800690375776D+03
 0.881253019392875D+03 0.403085314047064D+03 0.437203913588047D+03 -.650370549557662D+03
 0.000000000000000D+00 0.000000000000000D+00 0.000000000000000D+00 -.000000000000000D+00
 0.972119630935312D+03 0.000000000000000D+00 0.000000000000000D+00 0.972119630935312D+03
 0.972119630935312D+03 -.000000000000000D+00 -.000000000000000D+00 -.972119630935312D+03
 0.659437329794221D+03 -.374567975424130D+03 -.465300677998698D+03 0.249853362528407D+03
 0.395094341472621D+03 -.238441938960936D+02 0.331654610168973D+02 0.392977156176623D+03
 0.748339172930102D+03 0.398739702639185D+03 0.356094410281164D+03 -.523655362091742D+03
 0.141368417673681D+03 -.327533318961699D+00 0.760408067006375D+02 -.119175156613288D+03
0.787936960841D-03 0.000000000000D+00 0.000000000000D+00 0.253951696480D-04 0.000000000000D+00  6 1 -1 25 2 -2 21 0 0.20501347D+00 0.10910140D+00 0.39034634D+06 0.39034634D+06 0.39034634D+06 0.10761933D+01  1  2  2  4  6  5       -2 0.672945029207D-03 0.100000000000D+01
0.335384347511D-03 0.000000000000D+00 -.302588539819D-05 0.253951696480D-04 0.000000000000D+00  6 1 -1 25 2 -2 21 2 0.20501347D+00 0.10910140D+00 0.39034634D+06 0.39034634D+06 0.39034634D+06 0.10761933D+01  1  2  3  4  6  5       -2 0.331750423794D-03 0.100000000000D+01
-.454959280088D-03 0.000000000000D+00 0.000000000000D+00 0.253951696480D-04 0.000000000000D+00  6 1 -1 25 2 -2 21 2 0.20501347D+00 0.10910140D+00 0.39034634D+06 0.39034634D+06 0.39034634D+06 0.10761933D+01  1  2 15  4  6  5       -2 -.450029749743D-03 0.100000000000D+01
-.810400110255D-02 0.000000000000D+00 0.000000000000D+00 0.253951696480D-04 0.000000000000D+00  6 1 -1 25 2 -2 21 2 0.20501347D+00 0.10910140D+00 0.39034634D+06 0.39034634D+06 0.39034634D+06 0.10761933D+01  1  2  4  4  6  5       -2 -.801619342151D-02 0.100000000000D+01
-.811443748070D-02 0.000000000000D+00 0.000000000000D+00 0.253951696480D-04 0.000000000000D+00  6 1 -1 25 2 -2 21 2 0.20501347D+00 0.10910140D+00 0.39034634D+06 0.39034634D+06 0.39034634D+06 0.10761933D+01  1  2  5  4  6  5       -2 -.802651672044D-02 0.100000000000D+01
0.951896699874D-02 0.000000000000D+00 -.000000000000D+00 0.253951696480D-04 0.000000000000D+00  6 1 -1 25 2 -2 21 2 0.20501347D+00 0.10910140D+00 0.39034634D+06 0.39034634D+06 0.39034634D+06 0.10761933D+01  1  2  6  4  6  5       -2 0.941582801746D-02 0.100000000000D+01
  </mgrwgt>
  </event>
  <event>
  5     66 -.18148205E-05 0.20859831E+02 0.75467711E-02 0.90445568E-01
        1 -1    0    0  502    0 0.00000000E+00 0.00000000E+00 0.42360978E+04 0.42360978E+04 0.32000000E+00 0.0000E+00 0.9000E+01
       -1 -1    0    0    0  501 0.00000000E+00 0.00000000E+00 -.63031395E+03 0.63031403E+03 0.32000000E+00 0.0000E+00 0.9000E+01
       25  1    1    2    0    0 0.71212623E+03 0.93941723E+02 0.26580957E+04 0.27562740E+04 0.12500000E+03 0.0000E+00 0.9000E+01
        2  1    1    2  502    0 -.96841131E+01 -.18485739E+02 0.13141156E+04 0.13142813E+04 0.32000000E+00 0.0000E+00 0.9000E+01
       -2  1    1    2    0  501 -.70244212E+03 -.75455984E+02 -.36642737E+03 0.79585655E+03 0.32000000E+00 0.0000E+00 0.9000E+01
#aMCatNLO 1  0  0  5  2 0.46564385D+02 0.00000000D+00  -5  6  0 0.00000000D+00 0.00000000D+00 0.00000000D+00 0.00000000D+00 0.00000000D+00
  <mgrwgt>
 -.2040708568D-03    4    2    0
 0.163403542289155D+04 0.000000000000000D+00 0.000000000000000D+00 0.163403542289155D+04
 0.163403542289155D+04 -.000000000000000D+00 -.000000000000000D+00 -.163403542289155D+04
 0.117172900750732D+04 0.712190321829833D+03 0.939418249872516D+02 0.917215212501452D+03
 0.506937892358795D+03 -.967997568378719D+01 -.184778410307120D+02 0.506508533166799D+03
 0.158940394591698D+04 -.702510346146046D+03 -.754639839565398D+02 -.142372374566825D+04
 0.000000000000000D+00 -.000000000000000D+00 0.000000000000000D+00 0.000000000000000D+00
 0.163403542289155D+04 0.000000000000000D+00 0.000000000000000D+00 0.163403542289155D+04
 0.163403542289155D+04 -.000000000000000D+00 -.000000000000000D+00 -.163403542289155D+04
 0.116725825443944D+04 0.710160567745552D+03 0.937237878715106D+02 0.913101665841945D+03
 0.505180459150924D+03 -.105582837409431D+02 -.185721892855067D+02 0.504728533706514D+03
 0.957533178014412D+02 0.346033289946205D+01 -.166568944630652D+02 -.942298882152326D+02
 0.149987881439130D+04 -.703062616904071D+03 -.584947041229388D+02 -.132360031133323D+04
0.829189011783D-01 0.000000000000D+00 0.000000000000D+00 0.220205327419D-03 0.000000000000D+00  6 1 -1 25 2 -2 21 0 0.65170736D+00 0.96971384D-01 0.53039572D+06 0.53039572D+06 0.53039572D+06 0.10667037D+01  1  2  2  4  6  5       -2 0.557579942290D-03 0.100000000000D+01
0.523522374635D-01 0.000000000000D+00 -.318430413573D-03 0.220205327419D-03 0.000000000000D+00  6 1 -1 25 2 -2 21 2 0.65170736D+00 0.96971384D-01 0.53039572D+06 0.53039572D+06 0.53039572D+06 0.10667037D+01  1  2  3  4  6  5       -2 0.400568192068D-03 0.100000000000D+01
-.582532511098D-01 0.000000000000D+00 0.000000000000D+00 0.220205327419D-03 0.000000000000D+00  6 1 -1 25 2 -2 21 2 0.65170736D+00 0.96971384D-01 0.53039572D+06 0.53039572D+06 0.53039572D+06 0.10667037D+01  1  2 15  4  6  5       -2 -.445719239706D-03 0.100000000000D+01
-.936428949486D-01 0.000000000000D+00 0.000000000000D+00 0.220205327419D-03 0.000000000000D+00  6 1 -1 25 2 -2 21 2 0.65170736D+00 0.96971384D-01 0.53039572D+06 0.53039572D+06 0.53039572D+06 0.10667037D+01  1  2  5  4  6  5       -2 -.716499751434D-03 0.100000000000D+01
  </mgrwgt>
  </event>
  <event>
  5     66 0.18148205E-05 0.21959944E+02 0.75467711E-02 0.94652229E-01
        3 -1    0    0  502    0 0.00000000E+00 0.00000000E+00 0.16765009E+04 0.16765009E+04 0.50000000E+00 0.0000E+00 0.9000E+01
       -3 -1    0    0    0  501 0.00000000E+00 0.00000000E+00 -.26915660E+03 0.26915706E+03 0.50000000E+00 0.0000E+00 0.9000E+01
       25  1    1    2    0    0 0.19830616E+03 -.42962468E+03 0.21032035E+03 0.53269348E+03 0.12500000E+03 0.0000E+00 0.9000E+01
        4  1    1    2  502    0 -.17976266E+03 0.41785900E+03 0.12635248E+04 0.13429140E+04 0.15500000E+01 0.0000E+00 0.9000E+01
       -4  1    1    2    0  501 -.18543495E+02 0.11765681E+02 -.66500916E+02 0.70050459E+02 0.15500000E+01 0.0000E+00 0.9000E+01
#aMCatNLO 1  0  0  1  4 0.19145725D+03 0.00000000D+00  -5  6  0 0.00000000D+00 0.00000000D+00 0.00000000D+00 0.00000000D+00 0.00000000D+00
  <mgrwgt>
 0.5771742036D-04    7    2    0
 0.671745328515547D+03 0.000000000000000D+00 0.000000000000000D+00 0.671745328515547D+03
 0.671745328515547D+03 0.000000000000000D+00 0.000000000000000D+00 -.671745328515547D+03
 0.551215928858906D+03 0.198312035313697D+03 -.429649875222588D+03 -.253549446062777D+03
 0.621275744281568D+03 -.179772077608362D+03 0.417880886207387D+03 0.423132503463771D+03
 0.170998983890620D+03 -.185399577053345D+02 0.117689890152006D+02 -.169583057400994D+03
 0.000000000000000D+00 0.000000000000000D+00 -.000000000000000D+00 0.000000000000000D+00
 0.697112762453238D+03 0.000000000000000D+00 0.000000000000000D+00 0.697112762453238D+03
 0.679126149127141D+03 0.000000000000000D+00 0.000000000000000D+00 -.679126149127141D+03
 0.542272553719610D+03 0.197025186697337D+03 -.418722195167304D+03 -.253549446062777D+03
 0.630177690876498D+03 -.181244823912625D+03 0.430387174989913D+03 0.423132503463771D+03
 0.171312505423631D+03 -.189427996862114D+02 0.151898484884098D+02 -.169583057400994D+03
 0.324761615606401D+02 0.316243690149908D+01 -.268548283110191D+02 0.179866133260968D+02
0.129785732333D-03 0.000000000000D+00 0.000000000000D+00 0.154608588477D-04 0.000000000000D+00  6 3 -3 25 4 -4 21 0 0.25792325D+00 0.41408748D-01 0.23343845D+06 0.23343845D+06 0.23343845D+06 0.10927056D+01  1  2  2  1  6  1        3 0.123580984938D-04 0.100000000000D+01
0.558095832764D-04 0.000000000000D+00 -.498411385528D-06 0.154608588477D-04 0.000000000000D+00  6 3 -3 25 4 -4 21 2 0.25792325D+00 0.41408748D-01 0.23343845D+06 0.23343845D+06 0.23343845D+06 0.10927056D+01  1  2  3  1  6  1        3 0.634511973193D-05 0.100000000000D+01
-.834318399009D-04 0.000000000000D+00 0.000000000000D+00 0.154608588477D-04 0.000000000000D+00  6 3 -3 25 4 -4 21 2 0.25792325D+00 0.41408748D-01 0.23343845D+06 0.23343845D+06 0.23343845D+06 0.10927056D+01  1  2 15  1  6  1        3 -.948555754315D-05 0.100000000000D+01
-.566187593691D-04 0.000000000000D+00 0.000000000000D+00 0.154608588477D-04 0.000000000000D+00  6 3 -3 25 4 -4 21 2 0.25792325D+00 0.41408748D-01 0.23343845D+06 0.23343845D+06 0.23343845D+06 0.10927056D+01  1  2  4  1  6  1        3 -.643711682081D-05 0.100000000000D+01
-.416467636291D-02 0.000000000000D+00 -.579816147893D-03 0.154608588477D-04 0.000000000000D+00  6 3 -3 25 4 -4 21 2 0.26899000D+00 0.41408748D-01 0.23343845D+06 0.23343845D+06 0.23343845D+06 0.10927056D+01  1  2  5  1  6  1        3 -.375987302174D-03 0.100000000000D+01
0.418585240016D-02 0.000000000000D+00 0.579304830279D-03 0.154608588477D-04 0.000000000000D+00  6 3 -3 25 4 -4 21 2 0.25792325D+00 0.41408748D-01 0.23343845D+06 0.23343845D+06 0.23343845D+06 0.10927056D+01  1  2  6  1  6  1        3 0.475899175374D-03 0.100000000000D+01
-.304705471909D-04 0.000000000000D+00 -.429284856338D-05 0.154608588477D-04 0.000000000000D+00  6 21 -3 25 4 -4 -3 2 0.26899000D+00 0.41408748D-01 0.23343845D+06 0.23343845D+06 0.23343845D+06 0.10927056D+01  1  2  5  5  6  1        3 -.449749967039D-04 0.100000000000D+01
  </mgrwgt>
  </event>
  <event>
  5     66 0.18148205E-05 0.28450210E+02 0.75467711E-02 0.78334101E-01
        1 -1    0    0  502    0 0.00000000E+00 0.00000000E+00 0.10205274E+04 0.10205274E+04 0.32000000E+00 0.0000E+00 0.9000E+01
       -1 -1    0    0    0  501 0.00000000E+00 0.00000000E+00 -.13019199E+04 0.13019200E+04 0.32000000E+00 0.0000E+00 0.9000E+01
       25  1    1    2    0    0 -.44199193E+03 -.94698084E+02 -.18924051E+03 0.50572874E+03 0.12500000E+03 0.0000E+00 0.9000E+01
        2  1    1    2  502    0 0.45914810E+03 0.11739092E+03 0.79692144E+03 0.92719011E+03 0.32000000E+00 0.0000E+00 0.9000E+01
       -2  1    1    2    0  501 -.17156173E+02 -.22692836E+02 -.88907349E+03 0.88952857E+03 0.32000000E+00 0.0000E+00 0.9000E+01
#aMCatNLO 1  0  0  1  1 0.41678146D+03 0.00000000D+00  -5  6  0 0.00000000D+00 0.00000000D+00 0.00000000D+00 0.00000000D+00 0.00000000D+00
  <mgrwgt>
 0.2619245229D-01    3    2    0
 0.115266866743068D+04 0.000000000000000D+00 0.000000000000000D+00 0.115266866743068D+04
 0.115266866743068D+04 0.000000000000000D+00 0.000000000000000D+00 -.115266866743068D+04
 0.486359671906197D+03 -.441983111760625D+03 -.946944502639369D+02 -.128858916898711D+03
 0.103132768211685D+04 0.459140433557753D+03 0.117388959252211D+03 0.915994913969826D+03
 0.787649980838321D+03 -.171573217971280D+02 -.226945089882744D+02 -.787135997071115D+03
 0.000000000000000D+00 -.000000000000000D+00 0.000000000000000D+00 -.000000000000000D+00
 0.247091803800351D+04 0.000000000000000D+00 0.000000000000000D+00 0.247091803800351D+04
 0.447345329716442D+04 0.000000000000000D+00 0.000000000000000D+00 -.447345329716442D+04
 0.731757476837075D+03 -.302518700846094D+03 -.641655530702452D+03 -.128858916898711D+03
 0.159498897722999D+04 0.759832124951077D+03 -.106188431430119D+04 0.915994913969826D+03
 0.123935936124266D+04 0.214918603004713D+03 -.932865768745528D+03 -.787135997071115D+03
 0.337826551985820D+04 -.672232027109696D+03 0.263640561374917D+04 -.200253525916091D+04
0.102462216201D+00 0.000000000000D+00 0.000000000000D+00 0.471153106866D-03 0.000000000000D+00  6 1 -1 25 2 -2 21 0 0.15700422D+00 0.20029538D+00 0.23587457D+06 0.23587457D+06 0.23587457D+06 0.10923644D+01  1  2  2  1  6  1        1 0.259940904085D-01 0.100000000000D+01
0.646055353952D-01 0.000000000000D+00 -.393481889134D-03 0.471153106866D-03 0.000000000000D+00  6 1 -1 25 2 -2 21 2 0.15700422D+00 0.20029538D+00 0.23587457D+06 0.23587457D+06 0.23587457D+06 0.10923644D+01  1  2  3  1  6  1        1 0.195576066764D-01 0.100000000000D+01
-.639502775233D-01 0.000000000000D+00 0.000000000000D+00 0.471153106866D-03 0.000000000000D+00  6 1 -1 25 2 -2 21 2 0.15700422D+00 0.20029538D+00 0.23587457D+06 0.23587457D+06 0.23587457D+06 0.10923644D+01  1  2 15  1  6  1        1 -.193592447922D-01 0.100000000000D+01
  </mgrwgt>
  </event>
  <event>
  6     66 0.18148205E-05 0.35520758E+02 0.75467711E-02 0.94456478E-01
        1 -1    0    0  502    0 0.00000000E+00 0.00000000E+00 0.26188819E+04 0.26188819E+04 0.32000000E+00 0.0000E+00 0.9000E+01
       -1 -1    0    0    0  501 0.00000000E+00 0.00000000E+00 -.44946882E+03 0.44946893E+03 0.32000000E+00 0.0000E+00 0.9000E+01
       25  1    1    2    0    0 0.37195193E+03 0.30142079E+03 0.10525250E+04 0.11630291E+04 0.12500000E+03 0.0000E+00 0.9000E+01
        2  1    1    2  502    0 -.52568802E+02 0.29311561E+02 0.13681510E+04 0.13694743E+04 0.32000000E+00 0.0000E+00 0.9000E+01
       -2  1    1    2    0  503 -.26273477E+03 -.27947407E+03 -.15689380E+03 0.41442862E+03 0.32000000E+00 0.0000E+00 0.9000E+01
       21  1    1    2  503  501 -.56648360E+02 -.51258278E+02 -.94369107E+02 0.12141886E+03 0.75000000E+00 0.0000E+00 0.9000E+01
#aMCatNLO 2  0  0  5  2 0.49406468D+02 0.00000000D+00  -5  6  0 0.00000000D+00 0.00000000D+00 0.00000000D+00 0.00000000D+00 0.00000000D+00
  <mgrwgt>
 0.6308118528D-02    3    2    0
 0.108494514414086D+04 0.000000000000000D+00 0.000000000000000D+00 0.108494514414086D+04
 0.108494514414086D+04 -.000000000000000D+00 -.000000000000000D+00 -.108494514414086D+04
 0.593868005684033D+03 0.372527042298835D+03 0.302030786620395D+03 0.327192932174088D+03
 0.569982989046099D+03 -.520332972798087D+02 0.298486700080747D+02 0.566817607943566D+03
 0.100603929355159D+04 -.320493745019027D+03 -.331879456628470D+03 -.894010540117654D+03
 0.000000000000000D+00 0.000000000000000D+00 0.000000000000000D+00 -.000000000000000D+00
 0.108494514414086D+04 0.000000000000000D+00 0.000000000000000D+00 0.108494514414086D+04
 0.108494514414086D+04 -.000000000000000D+00 -.000000000000000D+00 -.108494514414086D+04
 0.592397300862589D+03 0.371980231198233D+03 0.301464549763150D+03 0.325667614145298D+03
 0.568547201771222D+03 -.525581047940082D+02 0.293052184264011D+02 0.565353668454827D+03
 0.742759382768985D+03 -.262728985939328D+03 -.279468586093263D+03 -.636052112665062D+03
 0.266186402878930D+03 -.566931404648967D+02 -.513011820962882D+02 -.254969169935062D+03
-.467671321508D-09 0.000000000000D+00 0.000000000000D+00 0.115319169388D-03 0.000000000000D+00  6 1 -1 25 2 -2 21 2 0.40290492D+00 0.69149059D-01 0.25758544D+06 0.25758544D+06 0.25758544D+06 0.10894839D+01  1  2 13  4  6  5       -2 -.173860928945D-09 0.100000000000D+01
-.156136744908D-01 0.000000000000D+00 0.000000000000D+00 0.115319169388D-03 0.000000000000D+00  6 1 -1 25 2 -2 21 2 0.40290492D+00 0.69149059D-01 0.25758544D+06 0.25758544D+06 0.25758544D+06 0.10894839D+01  1  2 13  4  6  5       -2 -.580452088117D-02 0.100000000000D+01
0.325819848958D-01 0.000000000000D+00 0.000000000000D+00 0.115319169388D-03 0.438268242784D-06  6 1 -1 25 2 -2 21 2 0.40290492D+00 0.69149059D-01 0.25758544D+06 0.25758544D+06 0.25758544D+06 0.10894839D+01  1  2  1  4  6  5       -2 0.121126395833D-01 0.100000000000D+01
  </mgrwgt>
  </event>
  <event>
  5     66 0.18148205E-05 0.10990697E+03 0.75467711E-02 0.93593041E-01
        1 -1    0    0  502    0 0.00000000E+00 0.00000000E+00 0.12770770E+04 0.12770771E+04 0.32000000E+00 0.0000E+00 0.9000E+01
       -1 -1    0    0    0  501 0.00000000E+00 0.00000000E+00 -.93171049E+03 0.93171055E+03 0.32000000E+00 0.0000E+00 0.9000E+01
       25  1    1    2    0    0 -.42777090E+03 0.32964709E+03 -.29705167E+03 0.62890369E+03 0.12500000E+03 0.0000E+00 0.9000E+01
        2  1    1    2  502    0 0.97451294E+02 -.50834886E+02 0.10078683E+04 0.10138440E+04 0.32000000E+00 0.0000E+00 0.9000E+01
       -2  1    1    2    0  501 0.33031961E+03 -.27881220E+03 -.36545015E+03 0.56603993E+03 0.32000000E+00 0.0000E+00 0.9000E+01
#aMCatNLO 1  0  0  5  2 0.10552887D+02 0.00000000D+00  -5  6  0 0.00000000D+00 0.00000000D+00 0.00000000D+00 0.00000000D+00 0.00000000D+00
  <mgrwgt>
 0.3335242168D-02    8    2    0
 0.109080986731089D+04 0.000000000000000D+00 0.000000000000000D+00 0.109080986731089D+04
 0.109080986731089D+04 -.000000000000000D+00 -.000000000000000D+00 -.109080986731089D+04
 0.683770404915547D+03 -.427809796329197D+03 0.329679721831068D+03 -.400258698614449D+03
 0.866866222607134D+03 0.974456526366736D+02 -.508319436293035D+02 0.859870633401467D+03
 0.630983107099090D+03 0.330364143692524D+03 -.278847778201765D+03 -.459611934787019D+03
 0.000000000000000D+00 0.000000000000000D+00 -.000000000000000D+00 0.000000000000000D+00
 0.109080986731089D+04 0.000000000000000D+00 0.000000000000000D+00 0.109080986731089D+04
 0.109080986731089D+04 -.000000000000000D+00 -.000000000000000D+00 -.109080986731089D+04
 0.683749677061323D+03 -.427714711586269D+03 0.329599464424771D+03 -.400390983196478D+03
 0.866719414543769D+03 0.975661902045125D+02 -.509336847946916D+02 0.859702938129972D+03
 0.512628510207374D+03 0.265264595243464D+03 -.218998319842913D+03 -.380082122565287D+03
 0.118522132809305D+03 0.648839261382920D+02 -.596674597871666D+02 -.792298323682062D+02
0.104086369652D-03 0.000000000000D+00 0.000000000000D+00 0.164794151471D-04 0.000000000000D+00  6 1 -1 25 2 -2 21 0 0.19647340D+00 0.14334008D+00 0.30063304D+06 0.30063304D+06 0.30063304D+06 0.10844841D+01  1  2  2  4  6  5       -2 0.494079820868D-04 0.100000000000D+01
0.243487988501D-04 0.000000000000D+00 -.399719066035D-06 0.164794151471D-04 0.000000000000D+00  6 1 -1 25 2 -2 21 2 0.19647340D+00 0.14334008D+00 0.30063304D+06 0.30063304D+06 0.30063304D+06 0.10844841D+01  1  2  3  4  6  5       -2 0.135933722403D-04 0.100000000000D+01
-.769557136737D-04 0.000000000000D+00 0.000000000000D+00 0.164794151471D-04 0.000000000000D+00  6 1 -1 25 2 -2 21 2 0.19647340D+00 0.14334008D+00 0.30063304D+06 0.30063304D+06 0.30063304D+06 0.10844841D+01  1  2 15  4  6  5       -2 -.429625982138D-04 0.100000000000D+01
0.541557674806D-08 0.000000000000D+00 0.000000000000D+00 0.164794151471D-04 0.000000000000D+00  6 1 -1 25 2 -2 21 2 0.19647340D+00 0.14334008D+00 0.30055117D+06 0.30055117D+06 0.30055117D+06 0.10844929D+01  1  2 12  4  6  5       -2 0.302349967806D-08 0.100000000000D+01
0.229544118833D-01 0.000000000000D+00 0.000000000000D+00 0.164794151471D-04 0.000000000000D+00  6 1 -1 25 2 -2 21 2 0.19647340D+00 0.14334008D+00 0.30055117D+06 0.30055117D+06 0.30055117D+06 0.10844929D+01  1  2 12  4  6  5       -2 0.128153768597D-01 0.100000000000D+01
-.217377745345D-01 0.000000000000D+00 0.000000000000D+00 0.164794151471D-04 0.000000000000D+00  6 1 -1 25 2 -2 21 2 0.19647340D+00 0.14334008D+00 0.30063304D+06 0.30063304D+06 0.30063304D+06 0.10844841D+01  1  2  4  4  6  5       -2 -.121356976475D-01 0.100000000000D+01
-.230167247358D-01 0.000000000000D+00 0.000000000000D+00 0.164794151471D-04 0.000000000000D+00  6 1 -1 25 2 -2 21 2 0.19647340D+00 0.14334008D+00 0.30063304D+06 0.30063304D+06 0.30063304D+06 0.10844841D+01  1  2  5  4  6  5       -2 -.128497060168D-01 0.100000000000D+01
0.277375382218D-01 0.000000000000D+00 -.000000000000D+00 0.164794151471D-04 0.000000000000D+00  6 1 -1 25 2 -2 21 2 0.19647340D+00 0.14334008D+00 0.30063304D+06 0.30063304D+06 0.30063304D+06 0.10844841D+01  1  2  6  4  6  5       -2 0.154852271933D-01 0.100000000000D+01
  </mgrwgt>
  </event>
  <event>
  5     66 -.18148205E-05 0.16437976E+02 0.75467711E-02 0.93185696E-01
        1 -1    0    0  502    0 0.00000000E+00 0.00000000E+00 0.15472259E+04 0.15472259E+04 0.32000000E+00 0.0000E+00 0.9000E+01
       -1 -1    0    0    0  501 0.00000000E+00 0.00000000E+00 -.10826371E+04 0.10826371E+04 0.32000000E+00 0.0000E+00 0.9000E+01
       25  1    1    2    0    0 -.50908704E+03 -.20731695E+03 0.77169242E+03 0.95565900E+03 0.12500000E+03 0.0000E+00 0.9000E+01
        2  1    1    2  502    0 -.26791785E+01 -.16224377E+02 0.60472506E+03 0.60494868E+03 0.32000000E+00 0.0000E+00 0.9000E+01
       -2  1    1    2    0  501 0.51176622E+03 0.22354133E+03 -.91182868E+03 0.10692554E+04 0.32000000E+00 0.0000E+00 0.9000E+01
#aMCatNLO 1  0  0  5  2 0.26042982D+02 0.00000000D+00  -5  6  0 0.00000000D+00 0.00000000D+00 0.00000000D+00 0.00000000D+00 0.00000000D+00
  <mgrwgt>
 -.5272687861D-01    6    2    0
 0.129425044709671D+04 0.000000000000000D+00 0.000000000000000D+00 0.129425044709671D+04
 0.129425044709671D+04 -.000000000000000D+00 -.000000000000000D+00 -.129425044709671D+04
 0.832598005915566D+03 -.509149618837003D+03 -.207349276929824D+03 0.612672328777292D+03
 0.505889556601104D+03 -.267818069673570D+01 -.162183351755989D+02 0.505622424770054D+03
 0.125001333167674D+04 0.511827799533739D+03 0.223567612105423D+03 -.111829475354735D+04
 0.000000000000000D+00 0.000000000000000D+00 0.000000000000000D+00 -.000000000000000D+00
 0.129425044709671D+04 0.000000000000000D+00 0.000000000000000D+00 0.129425044709671D+04
 0.129425044709671D+04 -.000000000000000D+00 -.000000000000000D+00 -.129425044709671D+04
 0.831800185882286D+03 -.508806907173533D+03 -.207199579652121D+03 0.611923536594478D+03
 0.505430845492831D+03 -.246994248846874D+01 -.161273762260972D+02 0.505167444216037D+03
 0.110232043757306D+04 0.472699405101701D+03 0.206142815726094D+03 -.974253949970069D+03
 0.148949425245234D+03 0.385774445603002D+02 0.171841401521244D+02 -.142837030840446D+03
0.876148696182D-03 0.000000000000D+00 0.000000000000D+00 0.325792470732D-03 0.000000000000D+00  6 1 -1 25 2 -2 21 0 0.23803476D+00 0.16655956D+00 0.32418600D+06 0.32418600D+06 0.32418600D+06 0.10820693D+01  1  2  2  4  6  5       -2 0.173737552285D-03 0.100000000000D+01
0.626029521886D-03 0.000000000000D+00 -.336464168859D-05 0.325792470732D-03 0.000000000000D+00  6 1 -1 25 2 -2 21 2 0.23803476D+00 0.16655956D+00 0.32418600D+06 0.32418600D+06 0.32418600D+06 0.10820693D+01  1  2  3  4  6  5       -2 0.145351956867D-03 0.100000000000D+01
-.644068468247D-03 0.000000000000D+00 0.000000000000D+00 0.325792470732D-03 0.000000000000D+00  6 1 -1 25 2 -2 21 2 0.23803476D+00 0.16655956D+00 0.32418600D+06 0.32418600D+06 0.32418600D+06 0.10820693D+01  1  2 15  4  6  5       -2 -.149540251606D-03 0.100000000000D+01
-.240349075211D+00 0.000000000000D+00 0.000000000000D+00 0.325792470732D-03 0.000000000000D+00  6 1 -1 25 2 -2 21 2 0.23803476D+00 0.16655956D+00 0.32418600D+06 0.32418600D+06 0.32418600D+06 0.10820693D+01  1  2  4  4  6  5       -2 -.558044104818D-01 0.100000000000D+01
-.992438128345D-01 0.000000000000D+00 0.000000000000D+00 0.325792470732D-03 0.000000000000D+00  6 1 -1 25 2 -2 21 2 0.23803476D+00 0.16655956D+00 0.32418600D+06 0.32418600D+06 0.32418600D+06 0.10820693D+01  1  2  5  4  6  5       -2 -.230424954385D-01 0.100000000000D+01
0.111768466825D+00 0.000000000000D+00 -.000000000000D+00 0.325792470732D-03 0.000000000000D+00  6 1 -1 25 2 -2 21 2 0.23803476D+00 0.16655956D+00 0.32418600D+06 0.32418600D+06 0.32418600D+06 0.10820693D+01  1  2  6  4  6  5       -2 0.259504780543D-01 0.100000000000D+01
  </mgrwgt>
  </event>
  <event>
  5     66 0.18148205E-05 0.40714198E+02 0.75467711E-02 0.89670755E-01
        1 -1    0    0  502    0 0.00000000E+00 0.00000000E+00 0.17117316E+04 0.17117317E+04 0.32000000E+00 0.0000E+00 0.9000E+01
       -1 -1    0    0    0  501 0.00000000E+00 0.00000000E+00 -.35522227E+03 0.35522242E+03 0.32000000E+00 0.0000E+00 0.9000E+01
       25  1    1    2    0    0 0.91264971E+02 0.56591222E+03 0.75490321E+03 0.95608043E+03 0.12500000E+03 0.0000E+00 0.9000E+01
        2  1    1    2  502    0 0.26140566E+02 -.31256409E+02 0.56045497E+03 0.56193431E+03 0.32000000E+00 0.0000E+00 0.9000E+01
       -2  1    1    2    0  501 -.11740554E+03 -.53465581E+03 0.41151190E+02 0.54893935E+03 0.32000000E+00 0.0000E+00 0.9000E+01
#aMCatNLO 1  0  0  1  2 0.51530273D+03 0.00000000D+00  -5  6  0 0.00000000D+00 0.00000000D+00 0.00000000D+00 0.00000000D+00 0.00000000D+00
  <mgrwgt>
 0.4615238300D-02    7    2    0
 0.779772650635483D+03 0.000000000000000D+00 0.000000000000000D+00 0.779772650635483D+03
 0.779772650635483D+03 0.000000000000000D+00 0.000000000000000D+00 -.779772650635483D+03
 0.610660169406238D+03 0.913026634959634D+02 0.566002348344455D+03 0.169073971404115D+03
 0.257068393202863D+03 0.261197248729789D+02 -.312314891190170D+02 0.253823783054052D+03
 0.691816738661866D+03 -.117422388368942D+03 -.534770859225438D+03 -.422897754458167D+03
 0.000000000000000D+00 -.000000000000000D+00 -.000000000000000D+00 0.000000000000000D+00
 0.103115203731496D+04 0.000000000000000D+00 0.000000000000000D+00 0.103115203731496D+04
 0.940754618645405D+03 0.000000000000000D+00 0.000000000000000D+00 -.940754618645405D+03
 0.712699400393856D+03 0.220132744148608D+03 0.644415240717510D+03 0.169073971404115D+03
 0.265236570038698D+03 0.769665181975258D+02 -.283405315338804D+00 0.253823783054052D+03
 0.622653411969201D+03 0.105423004320575D+02 -.456884690718268D+03 -.422897754458167D+03
 0.371317273558613D+03 -.307641562778191D+03 -.187247144683904D+03 0.903974186695594D+02
0.134284266193D-02 0.000000000000D+00 0.000000000000D+00 0.721000490538D-05 0.000000000000D+00  6 1 -1 25 2 -2 21 0 0.26334334D+00 0.54649594D-01 0.34516362D+06 0.34516362D+06 0.34516362D+06 0.10800745D+01  1  2  2  1  6  1        1 0.264817101226D-02 0.100000000000D+01
0.474232949400D-03 0.000000000000D+00 -.515686940041D-05 0.721000490538D-05 0.000000000000D+00  6 1 -1 25 2 -2 21 2 0.26334334D+00 0.54649594D-01 0.34516362D+06 0.34516362D+06 0.34516362D+06 0.10800745D+01  1  2  3  1  6  1        1 0.109098817374D-02 0.100000000000D+01
-.942965877772D-03 0.000000000000D+00 0.000000000000D+00 0.721000490538D-05 0.000000000000D+00  6 1 -1 25 2 -2 21 2 0.26334334D+00 0.54649594D-01 0.34516362D+06 0.34516362D+06 0.34516362D+06 0.10800745D+01  1  2 15  1  6  1        1 -.216932337197D-02 0.100000000000D+01
-.541804380772D-04 0.000000000000D+00 0.000000000000D+00 0.721000490538D-05 0.000000000000D+00  6 1 -1 25 2 -2 21 2 0.26334334D+00 0.54649594D-01 0.34516362D+06 0.34516362D+06 0.34516362D+06 0.10800745D+01  1  2  4  1  6  1        1 -.124643842789D-03 0.100000000000D+01
-.166806178309D-02 0.000000000000D+00 -.857913253280D-03 0.721000490538D-05 0.000000000000D+00  6 1 -1 25 2 -2 21 2 0.37854880D+00 0.54649594D-01 0.34516362D+06 0.34516362D+06 0.34516362D+06 0.10800745D+01  1  2  5  1  6  1        1 -.120275030035D-02 0.100000000000D+01
0.190604895031D-02 0.000000000000D+00 0.804367343960D-03 0.721000490538D-05 0.000000000000D+00  6 1 -1 25 2 -2 21 2 0.26334334D+00 0.54649594D-01 0.34516362D+06 0.34516362D+06 0.34516362D+06 0.10800745D+01  1  2  6  1  6  1        1 0.438492699841D-02 0.100000000000D+01
-.484019566365D-04 0.000000000000D+00 -.380415696475D-04 0.721000490538D-05 0.000000000000D+00  6 21 -1 25 2 -2 -1 2 0.37854880D+00 0.54649594D-01 0.34516362D+06 0.34516362D+06 0.34516362D+06 0.10800745D+01  1  2  5  5  6  1        1 -.121303689860D-04 0.100000000000D+01
  </mgrwgt>
  </event>
  <event>
  6     66 0.18148205E-05 0.74081005E+02 0.75467711E-02 0.89621475E-01
        1 -1    0    0  502    0 0.00000000E+00 0.00000000E+00 0.43514276E+04 0.43514276E+04 0.32000000E+00 0.0000E+00 0.9000E+01
       -1 -1    0    0    0  501 0.00000000E+00 0.00000000E+00 -.15483537E+04 0.15483537E+04 0.32000000E+00 0.0000E+00 0.9000E+01
       25  1    1    2    0    0 -.76196864E+03 0.16644443E+03 0.45256705E+03 0.91035262E+03 0.12500000E+03 0.0000E+00 0.9000E+01
        2  1    1    2  503    0 0.28617794E+03 -.13615185E+03 0.16009211E+04 0.16319876E+04 0.32000000E+00 0.0000E+00 0.9000E+01
       -2  1    1    2    0  501 0.45949110E+02 0.27801697E+02 -.12804539E+04 0.12815797E+04 0.32000000E+00 0.0000E+00 0.9000E+01
       21  1    1    2  502  503 0.42984160E+03 -.58094280E+02 0.20300397E+04 0.20758614E+04 0.75000000E+00 0.0000E+00 0.9000E+01
#aMCatNLO 2  0  0  4  1 0.60836406D+02 0.00000000D+00  -5  6  0 0.00000000D+00 0.00000000D+00 0.00000000D+00 0.00000000D+00 0.00000000D+00
  <mgrwgt>
 0.4366591194D-02    1    2    0
 0.259567894851458D+04 0.000000000000000D+00 0.000000000000000D+00 0.259567894851458D+04
 0.259567894851458D+04 -.000000000000000D+00 -.000000000000000D+00 -.259567894851458D+04
 0.790329468561458D+03 -.762084082527071D+03 0.166467803710505D+03 0.226272040542077D+02
 0.225182366485484D+04 0.716530958700863D+03 -.194384873629144D+03 0.212591338575392D+04
 0.214920476361287D+04 0.455531238262078D+02 0.279170699186381D+02 -.214854058980813D+04
 0.000000000000000D+00 0.000000000000000D+00 0.000000000000000D+00 0.000000000000000D+00
 0.259567894851458D+04 0.000000000000000D+00 0.000000000000000D+00 0.259567894851458D+04
 0.259567894851458D+04 -.000000000000000D+00 -.000000000000000D+00 -.259567894851458D+04
 0.790190073366508D+03 -.761935093949786D+03 0.166427385183691D+03 0.230692460998834D+02
 0.989930247988048D+03 0.286073413161004D+03 -.136113119043296D+03 0.937868390014503D+03
 0.214801048705655D+04 0.459582032760338D+02 0.278071775033725D+02 -.214733873828417D+04
 0.126322708861806D+04 0.429903477512749D+03 -.581214436437675D+02 0.118640110216978D+04
0.123285733108D+02 0.000000000000D+00 0.000000000000D+00 0.148648070274D-02 0.620185252660D-06  6 1 -1 25 2 -2 21 2 0.66945040D+00 0.23820827D+00 0.63535863D+06 0.63535863D+06 0.63535863D+06 0.10612336D+01  1  2  1  3  6  4        2 0.436659119392D-02 0.100000000000D+01
  </mgrwgt>
  </event>
  <event>
  6     66 -.18148205E-05 0.66261759E+02 0.75467711E-02 0.95458448E-01
        1 -1    0    0  502    0 0.00000000E+00 0.00000000E+00 0.16252497E+04 0.16252497E+04 0.32000000E+00 0.0000E+00 0.9000E+01
       -1 -1    0    0    0  501 0.00000000E+00 0.00000000E+00 -.14014171E+04 0.14014172E+04 0.32000000E+00 0.0000E+00 0.9000E+01
       25  1    1    2    0    0 -.76468991E+02 0.44733086E+03 0.42180508E+03 0.63205769E+03 0.12500000E+03 0.0000E+00 0.9000E+01
        2  1    1    2  502    0 -.12922310E+02 -.75571255E+02 0.10678960E+04 0.10706446E+04 0.32000000E+00 0.0000E+00 0.9000E+01
       -2  1    1    2    0  503 0.80137983E+02 -.33682078E+03 -.11985328E+04 0.12475381E+04 0.32000000E+00 0.0000E+00 0.9000E+01
       21  1    1    2  503  501 0.92533185E+01 -.34938825E+02 -.67335749E+02 0.76426507E+02 0.75000000E+00 0.0000E+00 0.9000E+01
#aMCatNLO 2  0  0  5  2 0.15122180D+02 0.00000000D+00  -5  6  0 0.00000000D+00 0.00000000D+00 0.00000000D+00 0.00000000D+00 0.00000000D+00
  <mgrwgt>
 -.7160933201D-02    6    2    0
 0.150918947735396D+04 0.000000000000000D+00 0.000000000000000D+00 0.150918947735396D+04
 0.150918947735396D+04 -.000000000000000D+00 -.000000000000000D+00 -.150918947735396D+04
 0.602823695728809D+03 -.764957724125032D+02 0.447433011491053D+03 0.376461824310516D+03
 0.994778912942694D+03 -.129524006395659D+02 -.754358092151517D+02 0.991830005414827D+03
 0.142077634603641D+04 0.894481730520690D+02 -.371997202275901D+03 -.136829182972534D+04
 0.000000000000000D+00 0.000000000000000D+00 0.000000000000000D+00 0.000000000000000D+00
 0.150918947735396D+04 0.000000000000000D+00 0.000000000000000D+00 0.150918947735396D+04
 0.150918947735396D+04 -.000000000000000D+00 -.000000000000000D+00 -.150918947735396D+04
 0.602582849685933D+03 -.764769050753073D+02 0.447354545979553D+03 0.376173209993948D+03
 0.994313497340483D+03 -.129212668471029D+02 -.755652884800410D+02 0.991353750703278D+03
 0.133997706815057D+04 0.801502575574012D+02 -.336874574868788D+03 -.129446127798010D+04
 0.815055395309243D+02 0.924791436500903D+01 -.349146826307235D+02 -.730656827171304D+02
-.120341525498D-09 0.000000000000D+00 0.000000000000D+00 0.987462395802D-03 0.000000000000D+00  6 1 -1 25 2 -2 21 2 0.25003842D+00 0.21560264D+00 0.21613329D+06 0.21613329D+06 0.21613329D+06 0.10952471D+01  1  2 13  4  6  5       -2 -.105409812328D-10 0.100000000000D+01
-.150737266556D+00 0.000000000000D+00 0.000000000000D+00 0.987462395802D-03 0.000000000000D+00  6 1 -1 25 2 -2 21 2 0.25003842D+00 0.21560264D+00 0.21613329D+06 0.21613329D+06 0.21613329D+06 0.10952471D+01  1  2 13  4  6  5       -2 -.132034116342D-01 0.100000000000D+01
-.458637889015D-01 0.000000000000D+00 0.000000000000D+00 0.987462395802D-03 0.000000000000D+00  6 1 -1 25 2 -2 21 2 0.25003842D+00 0.21560264D+00 0.21620705D+06 0.21620705D+06 0.21620705D+06 0.10952358D+01  1  2  8  4  6  5       -2 -.401709781059D-02 0.100000000000D+01
-.128950983891D+00 0.000000000000D+00 0.000000000000D+00 0.987462395802D-03 0.000000000000D+00  6 1 -1 25 2 -2 21 2 0.25003842D+00 0.21560264D+00 0.21620705D+06 0.21620705D+06 0.21620705D+06 0.10952358D+01  1  2  9  4  6  5       -2 -.112945032992D-01 0.100000000000D+01
0.136560319157D+00 0.000000000000D+00 0.000000000000D+00 0.987462395802D-03 0.000000000000D+00  6 1 -1 25 2 -2 21 2 0.25003842D+00 0.21560264D+00 0.21620705D+06 0.21620705D+06 0.21620705D+06 0.10952358D+01  1  2 10  4  6  5       -2 0.119609864828D-01 0.100000000000D+01
0.107236615290D+00 0.000000000000D+00 0.000000000000D+00 0.987462395802D-03 0.862041367298D-05  6 1 -1 25 2 -2 21 2 0.25003842D+00 0.21560264D+00 0.21613329D+06 0.21613329D+06 0.21613329D+06 0.10952471D+01  1  2  1  4  6  5       -2 0.939309307038D-02 0.100000000000D+01
  </mgrwgt>
  </event>
  <event>
  5     66 0.18148205E-05 0.69265661E+02 0.75467711E-02 0.89027166E-01
        1 -1    0    0  502    0 0.00000000E+00 0.00000000E+00 0.21131163E+04 0.21131163E+04 0.32000000E+00 0.0000E+00 0.9000E+01
       -1 -1    0    0    0  501 0.00000000E+00 0.00000000E+00 -.74197152E+03 0.74197159E+03 0.32000000E+00 0.0000E+00 0.9000E+01
       25  1    1    2    0    0 0.52495096E+03 -.22845165E+03 -.32265491E+03 0.66895057E+03 0.12500000E+03 0.0000E+00 0.9000E+01
        2  1    1    2  502    0 -.44593565E+02 -.53007081E+02 0.16234963E+04 0.16249735E+04 0.32000000E+00 0.0000E+00 0.9000E+01
       -2  1    1    2    0  501 -.48035740E+03 0.28145874E+03 0.70303359E+02 0.56116389E+03 0.32000000E+00 0.0000E+00 0.9000E+01
#aMCatNLO 1  0  0  4  1 0.18488306D+00 0.00000000D+00  -5  6  0 0.00000000D+00 0.00000000D+00 0.00000000D+00 0.00000000D+00 0.00000000D+00
  <mgrwgt>
 0.2857283534D-02    6    2    0
 0.125214706288031D+04 0.000000000000000D+00 0.000000000000000D+00 0.125214706288031D+04
 0.125214706288031D+04 -.000000000000000D+00 -.000000000000000D+00 -.125214706288031D+04
 0.939332193616063D+03 0.525004745963918D+03 -.228479545282223D+03 -.734089288892403D+03
 0.963641349994955D+03 -.445907539736492D+02 -.530037400837556D+02 0.961148749995179D+03
 0.601320582149600D+03 -.480413991990269D+03 0.281483285365979D+03 -.227059461102776D+03
 0.000000000000000D+00 0.000000000000000D+00 0.000000000000000D+00 0.000000000000000D+00
 0.125214706288031D+04 0.000000000000000D+00 0.000000000000000D+00 0.125214706288031D+04
 0.125214706288031D+04 -.000000000000000D+00 -.000000000000000D+00 -.125214706288031D+04
 0.892969096522742D+03 0.522252664456025D+03 -.231750865005139D+03 -.674768477614801D+03
 0.551641294206865D+03 -.358172644027830D+02 -.297113208255980D+03 0.463410166617831D+03
 0.588309892609505D+03 -.482200794220028D+03 0.279359365213760D+03 -.188545137468848D+03
 0.471373842421504D+03 -.423460583321296D+01 0.249504708047359D+03 0.399903448465818D+03
0.137147563764D-01 0.000000000000D+00 0.000000000000D+00 0.872685648826D-05 0.000000000000D+00  6 1 -1 25 2 -2 21 0 0.32509482D+00 0.11414947D+00 0.36731008D+06 0.36731008D+06 0.36731008D+06 0.10781071D+01  1  2  2  3  6  4        2 0.316014098075D-02 0.100000000000D+01
0.530483684215D-02 0.000000000000D+00 -.526682756636D-04 0.872685648826D-05 0.000000000000D+00  6 1 -1 25 2 -2 21 2 0.32509482D+00 0.11414947D+00 0.36731008D+06 0.36731008D+06 0.36731008D+06 0.10781071D+01  1  2  3  3  6  4        2 0.142073865004D-02 0.100000000000D+01
-.102224228865D-01 0.000000000000D+00 0.000000000000D+00 0.872685648826D-05 0.000000000000D+00  6 1 -1 25 2 -2 21 2 0.32509482D+00 0.11414947D+00 0.36731008D+06 0.36731008D+06 0.36731008D+06 0.10781071D+01  1  2 15  3  6  4        2 -.273776399239D-02 0.100000000000D+01
-.134997431287D-02 0.000000000000D+00 0.000000000000D+00 0.872685648826D-05 0.000000000000D+00  6 1 -1 25 2 -2 21 2 0.32509482D+00 0.11414947D+00 0.36731008D+06 0.36731008D+06 0.36731008D+06 0.10781071D+01  1  2  4  3  6  4        2 -.361549419882D-03 0.100000000000D+01
-.876433619951D-02 0.000000000000D+00 0.000000000000D+00 0.872685648826D-05 0.000000000000D+00  6 1 -1 25 2 -2 21 2 0.32509482D+00 0.11414947D+00 0.36731008D+06 0.36731008D+06 0.36731008D+06 0.10781071D+01  1  2  5  3  6  4        2 -.234725997256D-02 0.100000000000D+01
0.139010697564D-01 0.000000000000D+00 -.000000000000D+00 0.872685648826D-05 0.000000000000D+00  6 1 -1 25 2 -2 21 2 0.32509482D+00 0.11414947D+00 0.36731008D+06 0.36731008D+06 0.36731008D+06 0.10781071D+01  1  2  6  3  6  4        2 0.372297728798D-02 0.100000000000D+01
  </mgrwgt>
  </event>
  <event>
  6     66 0.18148205E-05 0.48203915E+02 0.75467711E-02 0.94780001E-01
        1 -1    0    0  502    0 0.00000000E+00 0.00000000E+00 0.21318552E+04 0.21318552E+04 0.32000000E+00 0.0000E+00 0.9000E+01
       -1 -1    0    0    0  501 0.00000000E+00 0.00000000E+00 -.65125672E+03 0.65125679E+03 0.32000000E+00 0.0000E+00 0.9000E+01
       25  1    1    2    0    0 0.15590188E+03 0.45840128E+03 0.10860312E+04 0.11956278E+04 0.12500000E+03 0.0000E+00 0.9000E+01
        2  1    1    2  503    0 -.10587349E+03 -.36346556E+03 0.78537150E+03 0.87185142E+03 0.32000000E+00 0.0000E+00 0.9000E+01
       -2  1    1    2    0  501 -.33594537E+02 -.46817843E+02 -.54768903E+03 0.55071215E+03 0.32000000E+00 0.0000E+00 0.9000E+01
       21  1    1    2  502  503 -.16433857E+02 -.48117878E+02 0.15688485E+03 0.16492065E+03 0.75000000E+00 0.0000E+00 0.9000E+01
#aMCatNLO 2  0  0  4  1 0.18558896D+02 0.00000000D+00  -5  6  0 0.00000000D+00 0.00000000D+00 0.00000000D+00 0.00000000D+00 0.00000000D+00
  <mgrwgt>
 0.4665265586D-02    6    2    0
 0.117829757421757D+04 0.000000000000000D+00 0.000000000000000D+00 0.117829757421757D+04
 0.117829757421757D+04 -.000000000000000D+00 -.000000000000000D+00 -.117829757421757D+04
 0.729875925176681D+03 0.155950940832629D+03 0.458536573479502D+03 0.531523641043002D+03
 0.631360033759594D+03 -.122515637640376D+03 -.412284374224304D+03 0.462198015500891D+03
 0.995359189498866D+03 -.334353031922524D+02 -.462521992551988D+02 -.993721656543893D+03
 0.000000000000000D+00 0.000000000000000D+00 0.000000000000000D+00 0.000000000000000D+00
 0.117829757421757D+04 0.000000000000000D+00 0.000000000000000D+00 0.117829757421757D+04
 0.117829757421757D+04 -.000000000000000D+00 -.000000000000000D+00 -.117829757421757D+04
 0.729929935152759D+03 0.155822909005786D+03 0.458105726261732D+03 0.532006649232221D+03
 0.535758625030532D+03 -.105785694721857D+03 -.363172938620704D+03 0.379410210379772D+03
 0.994735174251368D+03 -.336098438102241D+02 -.468395558640621D+02 -.993063190989581D+03
 0.961714140004825D+02 -.164273704737044D+02 -.480932317769668D+02 0.816463313775874D+02
-.562185240101D-09 0.000000000000D+00 0.000000000000D+00 0.866826664806D-04 0.000000000000D+00  6 1 -1 25 2 -2 21 2 0.32797773D+00 0.10019335D+00 0.24329774D+06 0.24329774D+06 0.24329774D+06 0.10913481D+01  1  2 13  3  6  4        2 -.209603007308D-09 0.100000000000D+01
-.176410825253D-01 0.000000000000D+00 0.000000000000D+00 0.866826664806D-04 0.000000000000D+00  6 1 -1 25 2 -2 21 2 0.32797773D+00 0.10019335D+00 0.24329774D+06 0.24329774D+06 0.24329774D+06 0.10913481D+01  1  2 13  3  6  4        2 -.657723413159D-02 0.100000000000D+01
-.204211952621D-02 0.000000000000D+00 0.000000000000D+00 0.866826664806D-04 0.000000000000D+00  6 1 -1 25 2 -2 21 2 0.32797773D+00 0.10019335D+00 0.24372788D+06 0.24372788D+06 0.24372788D+06 0.10912902D+01  1  2  8  3  6  4        2 -.761189435917D-03 0.100000000000D+01
-.804661120405D-03 0.000000000000D+00 0.000000000000D+00 0.866826664806D-04 0.000000000000D+00  6 1 -1 25 2 -2 21 2 0.32797773D+00 0.10019335D+00 0.24372788D+06 0.24372788D+06 0.24372788D+06 0.10912902D+01  1  2  9  3  6  4        2 -.299933249001D-03 0.100000000000D+01
0.936439588425D-03 0.000000000000D+00 0.000000000000D+00 0.866826664806D-04 0.000000000000D+00  6 1 -1 25 2 -2 21 2 0.32797773D+00 0.10019335D+00 0.24372788D+06 0.24372788D+06 0.24372788D+06 0.10912902D+01  1  2 10  3  6  4        2 0.349052987807D-03 0.100000000000D+01
0.320638653088D-01 0.000000000000D+00 0.000000000000D+00 0.866826664806D-04 0.202157504181D-05  6 1 -1 25 2 -2 21 2 0.32797773D+00 0.10019335D+00 0.24329774D+06 0.24329774D+06 0.24329774D+06 0.10913481D+01  1  2  1  3  6  4        2 0.119545696245D-01 0.100000000000D+01
  </mgrwgt>
  </event>
  <event>
  5     66 0.18148205E-05 0.92511569E+02 0.75467711E-02 0.93582842E-01
        1 -1    0    0  502    0 0.00000000E+00 0.00000000E+00 0.17396552E+04 0.17396552E+04 0.32000000E+00 0.0000E+00 0.9000E+01
       -1 -1    0    0    0  501 0.00000000E+00 0.00000000E+00 -.35230219E+03 0.35230233E+03 0.32000000E+00 0.0000E+00 0.9000E+01
       25  1    1    2    0    0 -.12619820E+03 0.43233074E+03 0.62508071E+02 0.47155924E+03 0.12500000E+03 0.0000E+00 0.9000E+01
        2  1    1    2  502    0 0.11930629E+03 -.52464507E+03 0.14008500E+04 0.15006223E+04 0.32000000E+00 0.0000E+00 0.9000E+01
       -2  1    1    2    0  501 0.68919083E+01 0.92314325E+02 -.76005038E+02 0.11977605E+03 0.32000000E+00 0.0000E+00 0.9000E+01
#aMCatNLO 1  0  0  5  2 0.84312058D+01 0.00000000D+00  -5  6  0 0.00000000D+00 0.00000000D+00 0.00000000D+00 0.00000000D+00 0.00000000D+00
  <mgrwgt>
 0.4458646502D-02    9    2    0
 0.782869405552214D+03 0.000000000000000D+00 0.000000000000000D+00 0.782869405552214D+03
 0.782869405552214D+03 -.000000000000000D+00 -.000000000000000D+00 -.782869405552214D+03
 0.574814181264846D+03 -.126190825612352D+03 0.432403072740539D+03 -.334499329145797D+03
 0.763725599797991D+03 0.119309306298691D+03 -.524658344576654D+03 0.542010795725888D+03
 0.227199030041592D+03 0.688151931366024D+01 0.922552718361151D+02 -.207511466580092D+03
 0.000000000000000D+00 0.000000000000000D+00 0.000000000000000D+00 0.000000000000000D+00
 0.782869405552214D+03 0.000000000000000D+00 0.000000000000000D+00 0.782869405552214D+03
 0.782869405552214D+03 -.000000000000000D+00 -.000000000000000D+00 -.782869405552214D+03
 0.575301072702590D+03 -.126173067794919D+03 0.432641138231580D+03 -.335034814199439D+03
 0.763007767554878D+03 0.119332879112210D+03 -.524342321875857D+03 0.541299960097638D+03
 0.257538497890510D+02 0.741208918654984D+00 0.217700787532542D+01 -.256509653815736D+02
 0.201676121057910D+03 0.609897976405361D+01 0.895241757689520D+02 -.180614180516626D+03
0.363466567281D-03 0.000000000000D+00 0.000000000000D+00 0.100246996267D-05 0.000000000000D+00  6 1 -1 25 2 -2 21 0 0.26763927D+00 0.54200350D-01 0.30141610D+06 0.30141610D+06 0.30141610D+06 0.10844006D+01  1  2  2  4  6  5       -2 0.702498647742D-03 0.100000000000D+01
0.431195519839D-04 0.000000000000D+00 -.139580732130D-05 0.100246996267D-05 0.000000000000D+00  6 1 -1 25 2 -2 21 2 0.26763927D+00 0.54200350D-01 0.30141610D+06 0.30141610D+06 0.30141610D+06 0.10844006D+01  1  2  3  4  6  5       -2 0.980019575547D-04 0.100000000000D+01
-.255576312731D-03 0.000000000000D+00 0.000000000000D+00 0.100246996267D-05 0.000000000000D+00  6 1 -1 25 2 -2 21 2 0.26763927D+00 0.54200350D-01 0.30141610D+06 0.30141610D+06 0.30141610D+06 0.10844006D+01  1  2 15  4  6  5       -2 -.580872894078D-03 0.100000000000D+01
0.150346884296D-07 0.000000000000D+00 0.000000000000D+00 0.100246996267D-05 0.000000000000D+00  6 1 -1 25 2 -2 21 2 0.26763927D+00 0.54200350D-01 0.30110453D+06 0.30110453D+06 0.30110453D+06 0.10844338D+01  1  2 12  4  6  5       -2 0.341748381374D-07 0.100000000000D+01
0.896298268330D-03 0.000000000000D+00 0.000000000000D+00 0.100246996267D-05 0.000000000000D+00  6 1 -1 25 2 -2 21 2 0.26763927D+00 0.54200350D-01 0.30110453D+06 0.30110453D+06 0.30110453D+06 0.10844338D+01  1  2 12  4  6  5       -2 0.203734506282D-02 0.100000000000D+01
-.761914120041D-03 0.000000000000D+00 0.000000000000D+00 0.100246996267D-05 0.000000000000D+00  6 1 -1 25 2 -2 21 2 0.26763927D+00 0.54200350D-01 0.30141610D+06 0.30141610D+06 0.30141610D+06 0.10844006D+01  1  2  4  4  6  5       -2 -.173167558143D-02 0.100000000000D+01
-.896705863987D-03 0.000000000000D+00 0.000000000000D+00 0.100246996267D-05 0.000000000000D+00  6 1 -1 25 2 -2 21 2 0.26763927D+00 0.54200350D-01 0.30141610D+06 0.30141610D+06 0.30141610D+06 0.10844006D+01  1  2  5  4  6  5       -2 -.203802975630D-02 0.100000000000D+01
0.262627477573D-02 0.000000000000D+00 -.000000000000D+00 0.100246996267D-05 0.000000000000D+00  6 1 -1 25 2 -2 21 2 0.26763927D+00 0.54200350D-01 0.30141610D+06 0.30141610D+06 0.30141610D+06 0.10844006D+01  1  2  6  4  6  5       -2 0.596898755333D-02 0.100000000000D+01
0.103707387083D-05 0.000000000000D+00 0.000000000000D+00 0.100246996267D-05 0.373116199426D-08  6 1 -1 25 2 -2 21 2 0.26763927D+00 0.54200350D-01 0.30110453D+06 0.30110453D+06 0.30110453D+06 0.10844338D+01  1  2 11  4  6  5       -2 0.235733728958D-05 0.100000000000D+01
  </mgrwgt>
  </event>
  <event>
  5     66 0.18148205E-05 0.14553853E+02 0.75467711E-02 0.90878585E-01
        1 -1    0    0  502    0 0.00000000E+00 0.00000000E+00 0.10865206E+04 0.10865207E+04 0.32000000E+00 0.0000E+00 0.9000E+01
       -1 -1    0    0    0  501 -.00000000E+00 -.00000000E+00 -.12775648E+04 0.12775648E+04 0.32000000E+00 0.0000E+00 0.9000E+01
       25  1    1    2    0    0 0.47057382E+03 0.11362321E+02 0.47977710E+03 0.68365188E+03 0.12500000E+03 0.0000E+00 0.9000E+01
        2  1    1    2  502    0 -.57667638E+01 -.13368246E+02 0.45874263E+03 0.45897371E+03 0.32000000E+00 0.0000E+00 0.9000E+01
       -2  1    1    2    0  501 -.46480706E+03 0.20059251E+01 -.11295639E+04 0.12214599E+04 0.32000000E+00 0.0000E+00 0.9000E+01
#aMCatNLO 1  0  0  4  5 0.60025984D+01 0.00000000D+00  -5  6  0 0.00000000D+00 0.00000000D+00 0.00000000D+00 0.00000000D+00 0.00000000D+00
  <mgrwgt>
 0.9600396743D-02    4    2    0
 0.117817680732821D+04 0.000000000000000D+00 0.000000000000000D+00 0.117817680732821D+04
 0.117817680732821D+04 -.000000000000000D+00 -.000000000000000D+00 -.117817680732821D+04
 0.724955447706928D+03 0.470633123869270D+03 0.113577731749475D+02 0.536945867723657D+03
 0.497495528779741D+03 -.576471041325355D+01 -.133634858412612D+02 0.497282602265408D+03
 0.113390263816976D+04 -.464868413456017D+03 0.200571266631353D+01 -.103422846998907D+04
 0.000000000000000D+00 0.000000000000000D+00 0.000000000000000D+00 -.000000000000000D+00
 0.117817680732821D+04 0.000000000000000D+00 0.000000000000000D+00 0.117817680732821D+04
 0.117817680732821D+04 -.000000000000000D+00 -.000000000000000D+00 -.117817680732821D+04
 0.793257851029413D+03 0.469590016609482D+03 0.893969002803973D+01 0.626927680408762D+03
 0.293371526888286D+03 -.804498961669823D+02 0.211555857581055D+03 0.186651509821460D+03
 0.101951208620349D+04 -.466347943726366D+03 -.142406617809787D+01 -.906599394072540D+03
 0.250212150535242D+03 0.772078232838663D+02 -.219071481430997D+03 0.930202038423168D+02
0.397656814564D-01 0.000000000000D+00 0.000000000000D+00 0.531522264627D-03 0.000000000000D+00  6 1 -1 25 2 -2 21 0 0.16715703D+00 0.19654844D+00 0.23353504D+06 0.23353504D+06 0.23353504D+06 0.10926920D+01  1  2  2  3  6  4        2 0.966515100009D-02 0.100000000000D+01
0.288536065820D-01 0.000000000000D+00 -.152710687337D-03 0.531522264627D-03 0.000000000000D+00  6 1 -1 25 2 -2 21 2 0.16715703D+00 0.19654844D+00 0.23353504D+06 0.23353504D+06 0.23353504D+06 0.10926920D+01  1  2  3  3  6  4        2 0.837328454369D-02 0.100000000000D+01
-.273183636424D-01 0.000000000000D+00 0.000000000000D+00 0.531522264627D-03 0.000000000000D+00  6 1 -1 25 2 -2 21 2 0.16715703D+00 0.19654844D+00 0.23353504D+06 0.23353504D+06 0.23353504D+06 0.10926920D+01  1  2 15  3  6  4        2 -.792775874988D-02 0.100000000000D+01
-.175838045030D-02 0.000000000000D+00 0.000000000000D+00 0.531522264627D-03 0.000000000000D+00  6 1 -1 25 2 -2 21 2 0.16715703D+00 0.19654844D+00 0.23353504D+06 0.23353504D+06 0.23353504D+06 0.10926920D+01  1  2  4  3  6  4        2 -.510280051286D-03 0.100000000000D+01
  </mgrwgt>
  </event>
  <event>
  6     66 0.18148205E-05 0.10539425E+03 0.75467711E-02 0.92177802E-01
        1 -1    0    0  502    0 0.00000000E+00 0.00000000E+00 0.15320914E+04 0.15320914E+04 0.32000000E+00 0.0000E+00 0.9000E+01
       -1 -1    0    0    0  503 0.00000000E+00 0.00000000E+00 -.43428765E+03 0.43428777E+03 0.32000000E+00 0.0000E+00 0.9000E+01
       25  1    1    2    0    0 0.21088408E+03 0.55819960E+03 0.26532444E+02 0.61023591E+03 0.12500000E+03 0.0000E+00 0.9000E+01
        2  1    1    2  502    0 -.13141233E+03 -.83188219E+02 0.54197867E+03 0.56385322E+03 0.32000000E+00 0.0000E+00 0.9000E+01
       -2  1    1    2    0  501 -.76963008E+02 -.37495498E+03 0.56803243E+03 0.68496386E+03 0.32000000E+00 0.0000E+00 0.9000E+01
       21  1    1    2  501  503 -.25087383E+01 -.10005641E+03 -.38739804E+02 0.10732620E+03 0.75000000E+00 0.0000E+00 0.9000E+01
#aMCatNLO 2  0  0  2  5 0.10008785D+03 0.00000000D+00  -5  6  0 0.00000000D+00 0.00000000D+00 0.00000000D+00 0.00000000D+00 0.00000000D+00
  <mgrwgt>
 0.2152973791D-04    3    2    0
 0.733881669863478D+03 0.000000000000000D+00 0.000000000000000D+00 0.733881669863478D+03
 0.733881669863478D+03 0.000000000000000D+00 0.000000000000000D+00 -.733881669863478D+03
 0.713969726961586D+03 0.209645621130767D+03 0.508418598236600D+03 -.437820755019023D+03
 0.300214748537489D+03 -.131841945154847D+03 -.103357169972797D+03 0.249126257452779D+03
 0.453578864227881D+03 -.778036759759199D+02 -.405061428263803D+03 0.188694497566244D+03
 0.000000000000000D+00 -.000000000000000D+00 -.000000000000000D+00 -.000000000000000D+00
 0.752426906452236D+03 0.000000000000000D+00 0.000000000000000D+00 0.752426906452236D+03
 0.884294590478058D+03 0.000000000000000D+00 0.000000000000000D+00 -.884294590478058D+03
 0.750644646907397D+03 0.210895847439935D+03 0.558281572271462D+03 -.437820755019023D+03
 0.293640800565881D+03 -.131335017294120D+03 -.831392857612847D+02 0.249126257452779D+03
 0.426886466289070D+03 -.770520918455421D+02 -.375085879274625D+03 0.188694497566244D+03
 0.165549583167945D+03 -.250873830027289D+01 -.100056407235553D+03 -.131867684025823D+03
-.187660817962D-05 0.000000000000D+00 0.000000000000D+00 0.590680842098D-08 0.000000000000D+00  6 1 -1 25 2 -2 21 2 0.22989662D+00 0.67416612D-01 0.38948977D+06 0.38948977D+06 0.38948977D+06 0.10762622D+01  1  2 13  2  6  2       -1 -.399692667045D-05 0.100000000000D+01
-.221893572272D-04 0.000000000000D+00 0.000000000000D+00 0.590680842098D-08 0.000000000000D+00  6 1 -1 25 2 -2 21 2 0.22989662D+00 0.68366755D-01 0.38948977D+06 0.38948977D+06 0.38948977D+06 0.10762622D+01  1  2 13  2  6  2       -1 -.459851235538D-04 0.100000000000D+01
0.349880744618D-04 0.000000000000D+00 0.000000000000D+00 0.590680842098D-08 0.768420146840D-11  6 1 -1 25 2 -2 21 2 0.23570612D+00 0.66813422D-01 0.38948977D+06 0.38948977D+06 0.38948977D+06 0.10762622D+01  1  2  1  2  6  2       -1 0.715117881347D-04 0.100000000000D+01
  </mgrwgt>
  </event>
  <event>
  5     66 -.18148205E-05 0.18136821E+02 0.75467711E-02 0.94346795E-01
        1 -1    0    0  502    0 0.00000000E+00 0.00000000E+00 0.52022386E+03 0.52022396E+03 0.32000000E+00 0.0000E+00 0.9000E+01
       -1 -1    0    0    0  501 0.00000000E+00 0.00000000E+00 -.15181319E+04 0.15181320E+04 0.32000000E+00 0.0000E+00 0.9000E+01
       25  1    1    2    0    0 0.23928579E+03 -.42927425E+03 -.43311153E+03 0.66689180E+03 0.12500000E+03 0.0000E+00 0.9000E+01
        2  1    1    2  502    0 0.18105431E+02 0.11164089E+01 0.33862854E+03 0.33911420E+03 0.32000000E+00 0.0000E+00 0.9000E+01
       -2  1    1    2    0  501 -.25739122E+03 0.42815784E+03 -.90342510E+03 0.10323499E+04 0.32000000E+00 0.0000E+00 0.9000E+01
#aMCatNLO 1  0  0  1  2 0.40954949D+03 0.00000000D+00  -5  6  0 0.00000000D+00 0.00000000D+00 0.00000000D+00 0.00000000D+00 0.00000000D+00
  <mgrwgt>
 -.7077021720D-02    1    2    0
 0.888689255589320D+03 0.000000000000000D+00 0.000000000000000D+00 0.888689255589320D+03
 0.888689255589320D+03 0.000000000000000D+00 0.000000000000000D+00 -.888689255589320D+03
 0.521703961866847D+03 0.239327681062232D+03 -.429342325822339D+03 -.122218869911331D+03
 0.578934301726542D+03 0.181024393650594D+02 0.111622443568943D+01 0.578650137343492D+03
 0.676740247585252D+03 -.257430120427292D+03 0.428226101386650D+03 -.456431267432160D+03
 0.000000000000000D+00 0.000000000000000D+00 -.000000000000000D+00 -.000000000000000D+00
 0.934286017222014D+03 0.000000000000000D+00 0.000000000000000D+00 0.934286017222014D+03
 0.108685113487049D+04 0.000000000000000D+00 0.000000000000000D+00 -.108685113487049D+04
 0.476938030759932D+03 0.228182826134377D+03 -.380578547582608D+03 -.122218869911331D+03
 0.581550834021180D+03 0.515141329232044D+01 0.577828178975327D+02 0.578650137343492D+03
 0.727830692248787D+03 -.273105146588727D+03 0.496811426596018D+03 -.456431267432160D+03
 0.234817595062602D+03 0.397709071620298D+02 -.174015696910942D+03 -.152565117648473D+03
-.154571281246D-01 0.000000000000D+00 0.000000000000D+00 0.675355836928D-04 0.000000000000D+00  6 1 -1 25 2 -2 21 2 0.80034450D-01 0.23355877D+00 0.26264113D+06 0.26264113D+06 0.26264113D+06 0.10888511D+01  1  2 14  1  6  1        1 -.707702172029D-02 0.100000000000D+01
  </mgrwgt>
  </event>
  <event>
  5     66 -.18148205E-05 0.13366418E+02 0.75467711E-02 0.94222217E-01
        1 -1    0    0  502    0 0.00000000E+00 0.00000000E+00 0.17187561E+04 0.17187562E+04 0.32000000E+00 0.0000E+00 0.9000E+01
       -1 -1    0    0    0  501 0.00000000E+00 0.00000000E+00 -.21003127E+03 0.21003151E+03 0.32000000E+00 0.0000E+00 0.9000E+01
       25  1    1    2    0    0 -.29841066E+03 -.39765767E+03 0.68426687E+03 0.85500099E+03 0.12500000E+03 0.0000E+00 0.9000E+01
        2  1    1    2  502    0 -.49281944E+01 -.12446972E+02 0.42677550E+03 0.42698553E+03 0.32000000E+00 0.0000E+00 0.9000E+01
       -2  1    1    2    0  501 0.30333885E+03 0.41010464E+03 0.39768251E+03 0.64680118E+03 0.32000000E+00 0.0000E+00 0.9000E+01
#aMCatNLO 1  0  0  2  5 0.10008785D+03 0.00000000D+00  -5  6  0 0.00000000D+00 0.00000000D+00 0.00000000D+00 0.00000000D+00 0.00000000D+00
  <mgrwgt>
 -.6917140494D-02    1    2    0
 0.600826764155321D+03 0.000000000000000D+00 0.000000000000000D+00 0.600826764155321D+03
 0.600826764155321D+03 0.000000000000000D+00 0.000000000000000D+00 -.600826764155321D+03
 0.513393492863422D+03 -.298494672815655D+03 -.397775983721650D+03 0.249614821165122D+02
 0.149294060232338D+03 -.492058372512946D+01 -.124277501435102D+02 0.148694503270401D+03
 0.538965975214883D+03 0.303415256540784D+03 0.410203733865161D+03 -.173655985386913D+03
 0.000000000000000D+00 -.000000000000000D+00 0.000000000000000D+00 0.000000000000000D+00
 0.116846225854259D+04 0.000000000000000D+00 0.000000000000000D+00 0.116846225854259D+04
 0.956040174331058D+03 0.000000000000000D+00 0.000000000000000D+00 -.956040174331058D+03
 0.790820995444624D+03 -.233767454976116D+03 -.744649278681288D+03 0.249614821165122D+02
 0.179482619618625D+03 0.113963641143942D+02 -.998703075358468D+02 0.148694503270401D+03
 0.421165407527962D+03 0.351065879749238D+03 0.154843945033018D+03 -.173655985386913D+03
 0.733033410282434D+03 -.128694788887516D+03 0.689675641184117D+03 0.212422084211529D+03
-.116560566646D-02 0.000000000000D+00 0.000000000000D+00 0.374309676145D-05 0.000000000000D+00  6 1 -1 25 2 -2 21 2 0.26442404D+00 0.32312524D-01 0.26851887D+06 0.26851887D+06 0.26851887D+06 0.10881320D+01  1  2 14  2  6  2       -1 -.691714049378D-02 0.100000000000D+01
  </mgrwgt>
  </event>
  <event>
  5     66 0.18148205E-05 0.11846939E+03 0.75467711E-02 0.93661101E-01
        1 -1    0    0  502    0 0.00000000E+00 0.00000000E+00 0.57178684E+03 0.57178693E+03 0.32000000E+00 0.0000E+00 0.9000E+01
       -1 -1    0    0    0  501 0.00000000E+00 0.00000000E+00 -.13168011E+04 0.13168011E+04 0.32000000E+00 0.0000E+00 0.9000E+01
       25  1    1    2    0    0 -.23340276E+03 -.39977215E+03 0.20486161E+02 0.47993677E+03 0.12500000E+03 0.0000E+00 0.9000E+01
        2  1    1    2  502    0 0.94322198E+02 -.71756545E+02 0.25207417E+03 0.27854473E+03 0.32000000E+00 0.0000E+00 0.9000E+01
       -2  1    1    2    0  501 0.13908057E+03 0.47152870E+03 -.10175745E+04 0.11301065E+04 0.32000000E+00 0.0000E+00 0.9000E+01
#aMCatNLO 1  0  0  2  5 0.10008785D+03 0.00000000D+00  -5  6  0 0.00000000D+00 0.00000000D+00 0.00000000D+00 0.00000000D+00 0.00000000D+00
  <mgrwgt>
 0.1196559568D-03    1    2    0
 0.867715185959157D+03 0.000000000000000D+00 0.000000000000000D+00 0.867715185959157D+03
 0.867715185959157D+03 0.000000000000000D+00 0.000000000000000D+00 -.867715185959157D+03
 0.531215901487450D+03 -.233400787691652D+03 -.399874686646113D+03 0.228450522603284D+03
 0.411185224961787D+03 0.942863195325505D+02 -.717292501577449D+02 0.393749023932364D+03
 0.793029245469076D+03 0.139114468159102D+03 0.471603936803858D+03 -.622199546535647D+03
 0.000000000000000D+00 0.000000000000000D+00 -.000000000000000D+00 -.000000000000000D+00
 0.925551940637794D+03 0.000000000000000D+00 0.000000000000000D+00 0.925551940637794D+03
 0.102459562727357D+04 0.000000000000000D+00 0.000000000000000D+00 -.102459562727357D+04
 0.497705061341150D+03 -.243098410895334D+03 -.347561288734876D+03 0.228450522603284D+03
 0.404294525261735D+03 0.866003887044333D+02 -.302678374708839D+02 0.393749023932364D+03
 0.842736189426868D+03 0.123697310369237D+03 0.554771110159828D+03 -.622199546535647D+03
 0.205411791881615D+03 0.328007118216636D+02 -.176941983954068D+03 -.990436866357793D+02
0.170096289545D-03 0.000000000000D+00 0.000000000000D+00 0.347825944417D-05 0.000000000000D+00  6 1 -1 25 2 -2 21 2 0.87967217D-01 0.20258479D+00 0.29688734D+06 0.29688734D+06 0.29688734D+06 0.10848871D+01  1  2 14  2  6  2       -1 0.119655956838D-03 0.100000000000D+01
  </mgrwgt>
  </event>
  <event>
  5     66 0.18148205E-05 0.19487785E+03 0.75467711E-02 0.88376280E-01
        1 -1    0    0  502    0 0.00000000E+00 0.00000000E+00 0.25117655E+04 0.25117655E+04 0.32000000E+00 0.0000E+00 0.9000E+01
       -1 -1    0    0    0  501 0.00000000E+00 0.00000000E+00 -.76472711E+03 0.76472718E+03 0.32000000E+00 0.0000E+00 0.9000E+01
       25  1    1    2    0    0 0.19741852E+03 0.43077906E+03 0.34034258E+03 0.59665965E+03 0.12500000E+03 0.0000E+00 0.9000E+01
        2  1    1    2  502    0 -.61007228E+02 -.29163198E+03 0.20171489E+04 0.20390343E+04 0.32000000E+00 0.0000E+00 0.9000E+01
       -2  1    1    2    0  501 -.13641129E+03 -.13914708E+03 -.61045309E+03 0.64079874E+03 0.32000000E+00 0.0000E+00 0.9000E+01
#aMCatNLO 1  0  0  5  2 0.15488893D+02 0.00000000D+00  -5  6  0 0.00000000D+00 0.00000000D+00 0.00000000D+00 0.00000000D+00 0.00000000D+00
  <mgrwgt>
 0.7316421477D-02    4    2    0
 0.138593480556585D+04 0.000000000000000D+00 0.000000000000000D+00 0.138593480556585D+04
 0.138593480556585D+04 -.000000000000000D+00 -.000000000000000D+00 -.138593480556585D+04
 0.490783771459021D+03 0.197428993461222D+03 0.430781717758812D+03 0.263175704273180D+02
 0.113884168411716D+04 -.610048396001803D+02 -.291620565691884D+03 0.109917980180393D+04
 0.114224415555552D+04 -.136424153861042D+03 -.139161152066928D+03 -.112549737223125D+04
 0.000000000000000D+00 0.000000000000000D+00 0.000000000000000D+00 0.000000000000000D+00
 0.138593480556585D+04 0.000000000000000D+00 0.000000000000000D+00 0.138593480556585D+04
 0.138593480556585D+04 -.000000000000000D+00 -.000000000000000D+00 -.138593480556585D+04
 0.480704377819381D+03 0.182295388695953D+03 0.415344496310435D+03 -.985344584373444D+02
 0.902206716190421D+03 -.927997923435376D+02 -.324053402022215D+03 0.836871883813722D+03
 0.857401634571942D+03 0.436675591443866D+03 -.164336160188496D+03 -.719336928885407D+03
 0.531556882549957D+03 -.526171187796282D+03 0.730450659002761D+02 -.190004964909706D+02
0.163883973215D+00 0.000000000000D+00 0.000000000000D+00 0.129240773757D-03 0.000000000000D+00  6 1 -1 25 2 -2 21 0 0.38642546D+00 0.11765033D+00 0.24151751D+06 0.24151751D+06 0.24151751D+06 0.10915887D+01  1  2  2  4  6  5       -2 0.194931178458D-01 0.100000000000D+01
0.226264566918D-01 0.000000000000D+00 -.629357608788D-03 0.129240773757D-03 0.000000000000D+00  6 1 -1 25 2 -2 21 2 0.38642546D+00 0.11765033D+00 0.24151751D+06 0.24151751D+06 0.24151751D+06 0.10915887D+01  1  2  3  4  6  5       -2 0.320685582062D-02 0.100000000000D+01
-.106969609192D+00 0.000000000000D+00 0.000000000000D+00 0.129240773757D-03 0.000000000000D+00  6 1 -1 25 2 -2 21 2 0.38642546D+00 0.11765033D+00 0.24151751D+06 0.24151751D+06 0.24151751D+06 0.10915887D+01  1  2 15  4  6  5       -2 -.151608410694D-01 0.100000000000D+01
-.157137201949D-02 0.000000000000D+00 0.000000000000D+00 0.129240773757D-03 0.000000000000D+00  6 1 -1 25 2 -2 21 2 0.38642546D+00 0.11765033D+00 0.24151751D+06 0.24151751D+06 0.24151751D+06 0.10915887D+01  1  2  4  4  6  5       -2 -.222711119806D-03 0.100000000000D+01
  </mgrwgt>
  </event>
  <event>
  5     66 0.18148205E-05 0.70273595E+02 0.75467711E-02 0.94479165E-01
        1 -1    0    0  502    0 0.00000000E+00 0.00000000E+00 0.27217063E+04 0.27217063E+04 0.32000000E+00 0.0000E+00 0.9000E+01
       -1 -1    0    0    0  501 0.00000000E+00 0.00000000E+00 -.21867801E+03 0.21867824E+03 0.32000000E+00 0.0000E+00 0.9000E+01
       25  1    1    2    0    0 -.43402841E+03 0.21417729E+03 0.10294432E+04 0.11443911E+04 0.12500000E+03 0.0000E+00 0.9000E+01
        2  1    1    2  502    0 0.16115557E+02 -.68428983E+02 0.13283002E+04 0.13301593E+04 0.32000000E+00 0.0000E+00 0.9000E+01
       -2  1    1    2    0  501 0.41791286E+03 -.14574831E+03 0.14528491E+03 0.46583423E+03 0.32000000E+00 0.0000E+00 0.9000E+01
#aMCatNLO 1  0  0  5  2 0.17902263D+02 0.00000000D+00  -5  6  0 0.00000000D+00 0.00000000D+00 0.00000000D+00 0.00000000D+00 0.00000000D+00
  <mgrwgt>
 0.3145087944D-02    8    2    0
 0.771477597811920D+03 0.000000000000000D+00 0.000000000000000D+00 0.771477597811920D+03
 0.771477597811920D+03 -.000000000000000D+00 -.000000000000000D+00 -.771477597811920D+03
 0.510950761149394D+03 -.434105552357951D+03 0.214187668858426D+03 0.105459434097364D+03
 0.379905848236739D+03 0.161092645859756D+02 -.684022644614859D+02 0.373349802913456D+03
 0.652098586237706D+03 0.417996287771975D+03 -.145785404396940D+03 -.478809237010820D+03
 0.000000000000000D+00 0.000000000000000D+00 -.000000000000000D+00 0.000000000000000D+00
 0.771477597811920D+03 0.000000000000000D+00 0.000000000000000D+00 0.771477597811920D+03
 0.771477597811920D+03 -.000000000000000D+00 -.000000000000000D+00 -.771477597811920D+03
 0.510669891213382D+03 -.433877578899184D+03 0.214108158097564D+03 0.105198293505822D+03
 0.379732910147911D+03 0.162787770902126D+02 -.684613856778781D+02 0.373155628574612D+03
 0.421009793393550D+03 0.264144650388773D+03 -.796646042071307D+02 -.318010063741375D+03
 0.231542600868997D+03 0.153454151420199D+03 -.659821682125556D+02 -.160343858339059D+03
0.112648578850D-03 0.000000000000D+00 0.000000000000D+00 0.123432837223D-04 0.000000000000D+00  6 1 -1 25 2 -2 21 0 0.41872406D+00 0.33642790D-01 0.25649789D+06 0.25649789D+06 0.25649789D+06 0.10896218D+01  1  2  2  4  6  5       -2 0.110349614744D-03 0.100000000000D+01
0.271993068315D-04 0.000000000000D+00 -.432600203838D-06 0.123432837223D-04 0.000000000000D+00  6 1 -1 25 2 -2 21 2 0.41872406D+00 0.33642790D-01 0.25649789D+06 0.25649789D+06 0.25649789D+06 0.10896218D+01  1  2  3  4  6  5       -2 0.316340262889D-04 0.100000000000D+01
-.745619950361D-04 0.000000000000D+00 0.000000000000D+00 0.123432837223D-04 0.000000000000D+00  6 1 -1 25 2 -2 21 2 0.41872406D+00 0.33642790D-01 0.25649789D+06 0.25649789D+06 0.25649789D+06 0.10896218D+01  1  2 15  4  6  5       -2 -.867189787498D-04 0.100000000000D+01
0.129572647936D-07 0.000000000000D+00 0.000000000000D+00 0.123432837223D-04 0.000000000000D+00  6 1 -1 25 2 -2 21 2 0.41872406D+00 0.33642790D-01 0.25655338D+06 0.25655338D+06 0.25655338D+06 0.10896147D+01  1  2 12  4  6  5       -2 0.150694782357D-07 0.100000000000D+01
0.937570061487D-02 0.000000000000D+00 0.000000000000D+00 0.123432837223D-04 0.000000000000D+00  6 1 -1 25 2 -2 21 2 0.41872406D+00 0.33642790D-01 0.25655338D+06 0.25655338D+06 0.25655338D+06 0.10896147D+01  1  2 12  4  6  5       -2 0.109040695402D-01 0.100000000000D+01
-.106028051210D-01 0.000000000000D+00 0.000000000000D+00 0.123432837223D-04 0.000000000000D+00  6 1 -1 25 2 -2 21 2 0.41872406D+00 0.33642790D-01 0.25649789D+06 0.25649789D+06 0.25649789D+06 0.10896218D+01  1  2  4  4  6  5       -2 -.123315427857D-01 0.100000000000D+01
-.941582282377D-02 0.000000000000D+00 0.000000000000D+00 0.123432837223D-04 0.000000000000D+00  6 1 -1 25 2 -2 21 2 0.41872406D+00 0.33642790D-01 0.25649789D+06 0.25649789D+06 0.25649789D+06 0.10896218D+01  1  2  5  4  6  5       -2 -.109510285900D-01 0.100000000000D+01
0.132998344030D-01 0.000000000000D+00 -.000000000000D+00 0.123432837223D-04 0.000000000000D+00  6 1 -1 25 2 -2 21 2 0.41872406D+00 0.33642790D-01 0.25649789D+06 0.25649789D+06 0.25649789D+06 0.10896218D+01  1  2  6  4  6  5       -2 0.154683100473D-01 0.100000000000D+01
  </mgrwgt>
  </event>
  <event>
  5     66 0.18148205E-05 0.18623437E+02 0.75467711E-02 0.88881749E-01
        1 -1    0    0  502    0 0.00000000E+00 0.00000000E+00 0.41991111E+04 0.41991112E+04 0.32000000E+00 0.0000E+00 0.9000E+01
       -1 -1    0    0    0  501 0.00000000E+00 0.00000000E+00 -.30374403E+03 0.30374420E+03 0.32000000E+00 0.0000E+00 0.9000E+01
       25  1    1    2    0    0 -.21641009E+03 -.67219580E+03 0.10283878E+04 0.12537492E+04 0.12500000E+03 0.0000E+00 0.9000E+01
        2  1    1    2  502    0 0.13937984E+02 0.12357017E+02 0.24345608E+04 0.24346321E+04 0.32000000E+00 0.0000E+00 0.9000E+01
       -2  1    1    2    0  501 0.20247211E+03 0.65983878E+03 0.43241850E+03 0.81447409E+03 0.32000000E+00 0.0000E+00 0.9000E+01
#aMCatNLO 1  0  0  2  5 0.20765221D+03 0.00000000D+00  -5  6  0 0.00000000D+00 0.00000000D+00 0.00000000D+00 0.00000000D+00 0.00000000D+00
  <mgrwgt>
 0.1311649059D-02    7    4    0
 0.112936059240987D+04 0.000000000000000D+00 0.000000000000000D+00 0.112936059240987D+04
 0.112936059240987D+04 0.000000000000000D+00 0.000000000000000D+00 -.112936059240987D+04
 0.725929105957900D+03 -.216435800624481D+03 -.672282082651627D+03 -.111983982919286D+03
 0.654799214861467D+03 0.139353557667759D+02 0.123546865974518D+02 0.654534322523980D+03
 0.877992864000375D+03 0.202500444857705D+03 0.659927396054175D+03 -.542550339604694D+03
 0.000000000000000D+00 0.000000000000000D+00 -.000000000000000D+00 -.000000000000000D+00
 0.123371937054921D+04 0.000000000000000D+00 0.000000000000000D+00 0.123371937054921D+04
 0.128424059123138D+04 0.000000000000000D+00 0.000000000000000D+00 -.128424059123138D+04
 0.745614753550989D+03 -.294351882667656D+03 -.664178377736314D+03 -.111983982919286D+03
 0.657177550377181D+03 -.555318834313740D+02 0.195796649713815D+02 0.654534322523980D+03
 0.868767121118239D+03 0.110012073932997D+03 0.669546699879751D+03 -.542550339604694D+03
 0.246400536734182D+03 0.239871692166033D+03 -.249479871148189D+02 -.505212206821646D+02
 0.112936059240987D+04 0.000000000000000D+00 0.000000000000000D+00 0.112936059240987D+04
 0.112936059240987D+04 0.000000000000000D+00 0.000000000000000D+00 -.112936059240987D+04
 0.725929105957900D+03 -.216435800624481D+03 -.672282082651627D+03 -.111983982919286D+03
 0.654799214861467D+03 0.139353557667759D+02 0.123546865974518D+02 0.654534322523980D+03
 0.000000000000000D+00 0.000000000000000D+00 -.000000000000000D+00 -.000000000000000D+00
 0.877992864000375D+03 0.202500444857705D+03 0.659927396054175D+03 -.542550339604694D+03
 0.123371937054921D+04 0.000000000000000D+00 0.000000000000000D+00 0.123371937054921D+04
 0.128424059123138D+04 0.000000000000000D+00 0.000000000000000D+00 -.128424059123138D+04
 0.745614753550989D+03 -.294351882667656D+03 -.664178377736314D+03 -.111983982919286D+03
 0.657177550377181D+03 -.555318834313740D+02 0.195796649713815D+02 0.654534322523980D+03
 0.246400536734182D+03 0.239871692166033D+03 -.249479871148189D+02 -.505212206821646D+02
 0.868767121118239D+03 0.110012073932997D+03 0.669546699879751D+03 -.542550339604694D+03
0.200255440322D-01 0.000000000000D+00 0.000000000000D+00 0.408641909178D-04 0.000000000000D+00  6 1 -1 25 2 -2 21 0 0.64601711D+00 0.46729865D-01 0.50848345D+06 0.50848345D+06 0.50848345D+06 0.10679944D+01  1  2  2  2  6  2       -1 0.623684365137D-03 0.100000000000D+01
0.186257997620D-01 0.000000000000D+00 -.769033619306D-04 0.408641909178D-04 0.000000000000D+00  6 1 -1 25 2 -2 21 2 0.64601711D+00 0.46729865D-01 0.50848345D+06 0.50848345D+06 0.50848345D+06 0.10679944D+01  1  2  3  2  6  2       -1 0.661657731978D-03 0.100000000000D+01
-.129024656062D-01 0.000000000000D+00 0.000000000000D+00 0.408641909178D-04 0.000000000000D+00  6 1 -1 25 2 -2 21 2 0.64601711D+00 0.46729865D-01 0.50848345D+06 0.50848345D+06 0.50848345D+06 0.10679944D+01  1  2 15  2  6  2       -1 -.458343600759D-03 0.100000000000D+01
-.237532493705D-02 0.000000000000D+00 0.000000000000D+00 0.408641909178D-04 0.000000000000D+00  6 1 -1 25 2 -2 21 2 0.64601711D+00 0.46729865D-01 0.50848345D+06 0.50848345D+06 0.50848345D+06 0.10679944D+01  1  2  4  2  6  2       -1 -.843803826221D-04 0.100000000000D+01
-.313056817183D-01 0.000000000000D+00 -.180595579141D-01 0.408641909178D-04 0.000000000000D+00  6 1 -1 25 2 -2 21 2 0.64601711D+00 0.65389286D-01 0.50848345D+06 0.50848345D+06 0.50848345D+06 0.10679944D+01  1  2  5  2  6  2       -1 -.593077118981D-03 0.100000000000D+01
0.362797330354D-01 0.000000000000D+00 0.170861190609D-01 0.408641909178D-04 0.000000000000D+00  6 1 -1 25 2 -2 21 2 0.64601711D+00 0.46729865D-01 0.50848345D+06 0.50848345D+06 0.50848345D+06 0.10679944D+01  1  2  6  2  6  2       -1 0.128879114904D-02 0.100000000000D+01
-.832161314431D-03 0.000000000000D+00 -.757484705471D-03 0.408641909178D-04 0.000000000000D+00  6 1 21 25 2 1 -2 2 0.64601711D+00 0.65389286D-01 0.50848345D+06 0.50848345D+06 0.50848345D+06 0.10679944D+01  3  4  5  6  5  2       -1 -.126683084407D-03 0.100000000000D+01
  </mgrwgt>
  </event>
  <event>
  5     66 0.18148205E-05 0.52884199E+02 0.75467711E-02 0.93493428E-01
        1 -1    0    0  502    0 0.00000000E+00 0.00000000E+00 0.33091240E+04 0.33091240E+04 0.32000000E+00 0.0000E+00 0.9000E+01
       -1 -1    0    0    0  501 0.00000000E+00 0.00000000E+00 -.16730082E+03 0.16730113E+03 0.32000000E+00 0.0000E+00 0.9000E+01
       25  1    1    2    0    0 0.48989243E+03 0.10461650E+03 0.94712441E+03 0.10787070E+04 0.12500000E+03 0.0000E+00 0.9000E+01
        2  1    1    2  502    0 -.44003582E+03 -.12223055E+03 0.22645315E+04 0.23101244E+04 0.32000000E+00 0.0000E+00 0.9000E+01
       -2  1    1    2    0  501 -.49856611E+02 0.17614055E+02 -.69832747E+02 0.87593672E+02 0.32000000E+00 0.0000E+00 0.9000E+01
#aMCatNLO 1  0  0  1  5 0.10298897D+03 0.00000000D+00  -5  6  0 0.00000000D+00 0.00000000D+00 0.00000000D+00 0.00000000D+00 0.00000000D+00
  <mgrwgt>
 0.7237435458D-02    7    2    0
 0.744056254986468D+03 0.000000000000000D+00 0.000000000000000D+00 0.744056254986468D+03
 0.744056254986468D+03 0.000000000000000D+00 0.000000000000000D+00 -.744056254986468D+03
 0.520329970762935D+03 0.489877682684394D+03 0.104608283264543D+03 -.647706843747291D+02
 0.615659776191440D+03 -.440013768968858D+03 -.122224429107664D+03 0.412899542343195D+03
 0.352122763018560D+03 -.498639137155356D+02 0.176161458431216D+02 -.348128857968466D+03
 0.000000000000000D+00 -.000000000000000D+00 -.000000000000000D+00 0.000000000000000D+00
 0.878243116058232D+03 0.000000000000000D+00 0.000000000000000D+00 0.878243116058232D+03
 0.765862775822253D+03 0.000000000000000D+00 0.000000000000000D+00 -.765862775822253D+03
 0.556178856654489D+03 0.525727713292597D+03 0.114564612822899D+03 -.647706843747291D+02
 0.585527052763331D+03 -.400011696075961D+03 -.111114987526101D+03 0.412899542343195D+03
 0.349966162741835D+03 -.264828611527117D+02 0.241095702778407D+02 -.348128857968466D+03
 0.152433819720831D+03 -.992331560639243D+02 -.275591955746390D+02 0.112380340235979D+03
0.316357227972D-02 0.000000000000D+00 0.000000000000D+00 0.136814619850D-04 0.000000000000D+00  6 1 -1 25 2 -2 21 0 0.50909602D+00 0.25738612D-01 0.26308737D+06 0.26308737D+06 0.26308737D+06 0.10887959D+01  1  2  2  1  6  1        1 0.176837315500D-02 0.100000000000D+01
0.992127186693D-03 0.000000000000D+00 -.121489505419D-04 0.136814619850D-04 0.000000000000D+00  6 1 -1 25 2 -2 21 2 0.50909602D+00 0.25738612D-01 0.26308737D+06 0.26308737D+06 0.26308737D+06 0.10887959D+01  1  2  3  1  6  1        1 0.657440534157D-03 0.100000000000D+01
-.207103722163D-02 0.000000000000D+00 0.000000000000D+00 0.136814619850D-04 0.000000000000D+00  6 1 -1 25 2 -2 21 2 0.50909602D+00 0.25738612D-01 0.26308737D+06 0.26308737D+06 0.26308737D+06 0.10887959D+01  1  2 15  1  6  1        1 -.137238837471D-02 0.100000000000D+01
-.417786938053D-03 0.000000000000D+00 0.000000000000D+00 0.136814619850D-04 0.000000000000D+00  6 1 -1 25 2 -2 21 2 0.50909602D+00 0.25738612D-01 0.26308737D+06 0.26308737D+06 0.26308737D+06 0.10887959D+01  1  2  4  1  6  1        1 -.276849653353D-03 0.100000000000D+01
-.135001117430D-01 0.000000000000D+00 -.247473253627D-02 0.136814619850D-04 0.000000000000D+00  6 1 -1 25 2 -2 21 2 0.60432950D+00 0.25738612D-01 0.26308737D+06 0.26308737D+06 0.26308737D+06 0.10887959D+01  1  2  5  1  6  1        1 -.268211356987D-02 0.100000000000D+01
0.138058085735D-01 0.000000000000D+00 0.245315986481D-02 0.136814619850D-04 0.000000000000D+00  6 1 -1 25 2 -2 21 2 0.50909602D+00 0.25738612D-01 0.26308737D+06 0.26308737D+06 0.26308737D+06 0.10887959D+01  1  2  6  1  6  1        1 0.914852277486D-02 0.100000000000D+01
-.320940392549D-03 0.000000000000D+00 -.628281419695D-04 0.136814619850D-04 0.000000000000D+00  6 21 -1 25 2 -2 -1 2 0.60432950D+00 0.25738612D-01 0.26308737D+06 0.26308737D+06 0.26308737D+06 0.10887959D+01  1  2  5  5  6  1        1 -.554940855041D-05 0.100000000000D+01
  </mgrwgt>
  </event>
  <event>
  5     66 0.18148205E-05 0.99163054E+02 0.75467711E-02 0.95183093E-01
        1 -1    0    0  502    0 0.00000000E+00 0.00000000E+00 0.12771016E+04 0.12771017E+04 0.32000000E+00 0.0000E+00 0.9000E+01
       -1 -1    0    0    0  501 0.00000000E+00 0.00000000E+00 -.11387231E+04 0.11387231E+04 0.32000000E+00 0.0000E+00 0.9000E+01
       25  1    1    2    0    0 -.43275259E+03 -.13753227E+03 -.54575000E+03 0.72087308E+03 0.12500000E+03 0.0000E+00 0.9000E+01
        2  1    1    2  502    0 0.54584774E+02 0.82790474E+02 0.11148011E+04 0.11192030E+04 0.32000000E+00 0.0000E+00 0.9000E+01
       -2  1    1    2    0  501 0.37816782E+03 0.54741795E+02 -.43067260E+03 0.57574869E+03 0.32000000E+00 0.0000E+00 0.9000E+01
#aMCatNLO 1  0  0  4  1 0.90246046D+00 0.00000000D+00  -5  6  0 0.00000000D+00 0.00000000D+00 0.00000000D+00 0.00000000D+00 0.00000000D+00
  <mgrwgt>
 0.1236437885D-01    9    2    0
 0.120592918976677D+04 0.000000000000000D+00 0.000000000000000D+00 0.120592918976677D+04
 0.120592918976677D+04 -.000000000000000D+00 -.000000000000000D+00 -.120592918976677D+04
 0.753371583115072D+03 -.432786027351507D+03 -.137538937219006D+03 -.587982174494497D+03
 0.105705858035753D+04 0.545835285659900D+02 0.827885843079883D+02 0.105239704058166D+04
 0.601428216060944D+03 0.378202498785517D+03 0.547503529110175D+02 -.464414866087166D+03
 0.000000000000000D+00 0.000000000000000D+00 0.000000000000000D+00 0.000000000000000D+00
 0.120592918976677D+04 0.000000000000000D+00 0.000000000000000D+00 0.120592918976677D+04
 0.120592918976677D+04 -.000000000000000D+00 -.000000000000000D+00 -.120592918976677D+04
 0.753371129524135D+03 -.432785998822272D+03 -.137538893947802D+03 -.587981624436933D+03
 0.718212812818921D+03 0.364957588871152D+02 0.555731135321353D+02 0.715128892671010D+03
 0.601427894445523D+03 0.378202521560848D+03 0.547503874550917D+02 -.464414426967669D+03
 0.338846542744967D+03 0.180877183743080D+02 0.272153929605748D+02 0.337267158733592D+03
0.898663449915D-05 0.000000000000D+00 0.000000000000D+00 0.461336484282D-04 0.000000000000D+00  6 1 -1 25 2 -2 21 0 0.19647718D+00 0.17518817D+00 0.22672499D+06 0.22672499D+06 0.22672499D+06 0.10936663D+01  1  2  2  3  6  4        2 0.238352755891D-05 0.100000000000D+01
0.213108257197D-05 0.000000000000D+00 -.345110427119D-07 0.461336484282D-04 0.000000000000D+00  6 1 -1 25 2 -2 21 2 0.19647718D+00 0.17518817D+00 0.22672499D+06 0.22672499D+06 0.22672499D+06 0.10936663D+01  1  2  3  3  6  4        2 0.676072179237D-06 0.100000000000D+01
-.561902310711D-05 0.000000000000D+00 0.000000000000D+00 0.461336484282D-04 0.000000000000D+00  6 1 -1 25 2 -2 21 2 0.19647718D+00 0.17518817D+00 0.22672499D+06 0.22672499D+06 0.22672499D+06 0.10936663D+01  1  2 15  3  6  4        2 -.178259878203D-05 0.100000000000D+01
0.157216190477D-12 0.000000000000D+00 0.000000000000D+00 0.461336484282D-04 0.000000000000D+00  6 1 -1 25 2 -2 21 2 0.19647718D+00 0.17518817D+00 0.22672510D+06 0.22672510D+06 0.22672510D+06 0.10936663D+01  1  2 12  3  6  4        2 0.498758175149D-13 0.100000000000D+01
0.289571708813D-05 0.000000000000D+00 0.000000000000D+00 0.461336484282D-04 0.000000000000D+00  6 1 -1 25 2 -2 21 2 0.19647718D+00 0.17518817D+00 0.22672510D+06 0.22672510D+06 0.22672510D+06 0.10936663D+01  1  2 12  3  6  4        2 0.918647479143D-06 0.100000000000D+01
-.953995387543D+00 0.000000000000D+00 0.000000000000D+00 0.461336484282D-04 0.000000000000D+00  6 1 -1 25 2 -2 21 2 0.19647718D+00 0.17518817D+00 0.22672499D+06 0.22672499D+06 0.22672499D+06 0.10936663D+01  1  2  4  3  6  4        2 -.302648873921D+00 0.100000000000D+01
-.756066149247D+00 0.000000000000D+00 0.000000000000D+00 0.461336484282D-04 0.000000000000D+00  6 1 -1 25 2 -2 21 2 0.19647718D+00 0.17518817D+00 0.22672499D+06 0.22672499D+06 0.22672499D+06 0.10936663D+01  1  2  5  3  6  4        2 -.239857101687D+00 0.100000000000D+01
0.103454209135D+01 0.000000000000D+00 -.000000000000D+00 0.461336484282D-04 0.000000000000D+00  6 1 -1 25 2 -2 21 2 0.19647718D+00 0.17518817D+00 0.22672499D+06 0.22672499D+06 0.22672499D+06 0.10936663D+01  1  2  6  3  6  4        2 0.328201795375D+00 0.100000000000D+01
0.714486978736D+00 0.000000000000D+00 0.000000000000D+00 0.461336484282D-04 0.169567957581D-03  6 1 -1 25 2 -2 21 2 0.19647718D+00 0.17518817D+00 0.22672510D+06 0.22672510D+06 0.22672510D+06 0.10936663D+01  1  2 11  3  6  4        2 0.226666363432D+00 0.100000000000D+01
  </mgrwgt>
  </event>
  <event>
  5     66 0.18148205E-05 0.19519336E+03 0.75467711E-02 0.95093406E-01
        1 -1    0    0  502    0 0.00000000E+00 0.00000000E+00 0.73698174E+03 0.73698181E+03 0.32000000E+00 0.0000E+00 0.9000E+01
       -1 -1    0    0    0  501 0.00000000E+00 0.00000000E+00 -.15600837E+04 0.15600837E+04 0.32000000E+00 0.0000E+00 0.9000E+01
       25  1    1    2    0    0 0.16463900E+03 -.43041996E+03 -.14468980E+03 0.49892633E+03 0.12500000E+03 0.0000E+00 0.9000E+01
        2  1    1    2  502    0 -.16461654E+03 0.23525221E+03 0.51459170E+03 0.58927662E+03 0.32000000E+00 0.0000E+00 0.9000E+01
       -2  1    1    2    0  501 -.22455257E-01 0.19516775E+03 -.11930039E+04 0.12088626E+04 0.32000000E+00 0.0000E+00 0.9000E+01
#aMCatNLO 1  0  0  2  5 0.59658544D+03 0.00000000D+00  -5  6  0 0.00000000D+00 0.00000000D+00 0.00000000D+00 0.00000000D+00 0.00000000D+00
  <mgrwgt>
 0.3606643346D-02    7    4    0
 0.107226550814506D+04 0.000000000000000D+00 0.000000000000000D+00 0.107226550814506D+04
 0.107226550814506D+04 0.000000000000000D+00 0.000000000000000D+00 -.107226550814506D+04
 0.478891667520822D+03 0.164628948362367D+03 -.430429294840281D+03 0.366082057095528D+02
 0.828640551740279D+03 -.164605155165277D+03 0.235235934275204D+03 0.777312268079645D+03
 0.836998797029026D+03 -.237931970901286D-01 0.195193360565077D+03 -.813920473789198D+03
 0.000000000000000D+00 0.000000000000000D+00 -.000000000000000D+00 -.000000000000000D+00
 0.116085503664832D+04 0.000000000000000D+00 0.000000000000000D+00 0.116085503664832D+04
 0.183778740275409D+04 0.000000000000000D+00 0.000000000000000D+00 -.183778740275409D+04
 0.434567337724966D+03 0.740696573733970D+02 -.407918246893516D+03 0.366082057095528D+02
 0.890816233238391D+03 -.335070152980853D+03 0.277609783464671D+03 0.777312268079645D+03
 0.864379396166396D+03 -.168696499903194D+03 0.237121685605013D+03 -.813920473789198D+03
 0.808879472272655D+03 0.429696995510650D+03 -.106813222176169D+03 -.676932366105767D+03
 0.107226550814506D+04 0.000000000000000D+00 0.000000000000000D+00 0.107226550814506D+04
 0.107226550814506D+04 0.000000000000000D+00 0.000000000000000D+00 -.107226550814506D+04
 0.478891667520822D+03 0.164628948362367D+03 -.430429294840281D+03 0.366082057095528D+02
 0.828640551740279D+03 -.164605155165277D+03 0.235235934275204D+03 0.777312268079645D+03
 0.000000000000000D+00 0.000000000000000D+00 -.000000000000000D+00 -.000000000000000D+00
 0.836998797029026D+03 -.237931970901286D-01 0.195193360565077D+03 -.813920473789198D+03
 0.116085503664832D+04 0.000000000000000D+00 0.000000000000000D+00 0.116085503664832D+04
 0.183778740275409D+04 0.000000000000000D+00 0.000000000000000D+00 -.183778740275409D+04
 0.434567337724966D+03 0.740696573733970D+02 -.407918246893516D+03 0.366082057095528D+02
 0.890816233238391D+03 -.335070152980853D+03 0.277609783464671D+03 0.777312268079645D+03
 0.808879472272655D+03 0.429696995510650D+03 -.106813222176169D+03 -.676932366105767D+03
 0.864379396166396D+03 -.168696499903194D+03 0.237121685605013D+03 -.813920473789198D+03
0.849670106306D-02 0.000000000000D+00 0.000000000000D+00 0.360073642397D-04 0.000000000000D+00  6 1 -1 25 2 -2 21 0 0.11338181D+00 0.24001289D+00 0.23029988D+06 0.23029988D+06 0.23029988D+06 0.10931509D+01  1  2  2  2  6  2       -1 0.175755015684D-02 0.100000000000D+01
0.101301332980D-02 0.000000000000D+00 -.326295693149D-04 0.360073642397D-04 0.000000000000D+00  6 1 -1 25 2 -2 21 2 0.11338181D+00 0.24001289D+00 0.23029988D+06 0.23029988D+06 0.23029988D+06 0.10931509D+01  1  2  3  2  6  2       -1 0.250399129439D-03 0.100000000000D+01
-.557548900799D-02 0.000000000000D+00 0.000000000000D+00 0.360073642397D-04 0.000000000000D+00  6 1 -1 25 2 -2 21 2 0.11338181D+00 0.24001289D+00 0.23029988D+06 0.23029988D+06 0.23029988D+06 0.10931509D+01  1  2 15  2  6  2       -1 -.137816310282D-02 0.100000000000D+01
-.681744683348D-03 0.000000000000D+00 0.000000000000D+00 0.360073642397D-04 0.000000000000D+00  6 1 -1 25 2 -2 21 2 0.11338181D+00 0.24001289D+00 0.23029988D+06 0.23029988D+06 0.23029988D+06 0.10931509D+01  1  2  4  2  6  2       -1 -.168515329648D-03 0.100000000000D+01
-.122826739820D-01 0.000000000000D+00 -.446554753262D-02 0.360073642397D-04 0.000000000000D+00  6 1 -1 25 2 -2 21 2 0.11338181D+00 0.42016169D+00 0.23029988D+06 0.23029988D+06 0.23029988D+06 0.10931509D+01  1  2  5  2  6  2       -1 -.763025636100D-04 0.100000000000D+01
0.132672677606D-01 0.000000000000D+00 0.384659394116D-02 0.360073642397D-04 0.000000000000D+00  6 1 -1 25 2 -2 21 2 0.11338181D+00 0.24001289D+00 0.23029988D+06 0.23029988D+06 0.23029988D+06 0.10931509D+01  1  2  6  2  6  2       -1 0.327943591614D-02 0.100000000000D+01
-.532710469806D-03 0.000000000000D+00 -.276167389845D-03 0.360073642397D-04 0.000000000000D+00  6 1 21 25 2 1 -2 2 0.11338181D+00 0.42016169D+00 0.23029988D+06 0.23029988D+06 0.23029988D+06 0.10931509D+01  3  4  5  6  5  2       -1 -.577608605439D-04 0.100000000000D+01
  </mgrwgt>
  </event>
  <event>
  6     66 0.18148205E-05 0.14810643E+02 0.75467711E-02 0.87522775E-01
        1 -1    0    0  503    0 0.00000000E+00 0.00000000E+00 0.15344730E+04 0.15344730E+04 0.32000000E+00 0.0000E+00 0.9000E+01
       -1 -1    0    0    0  501 0.00000000E+00 0.00000000E+00 -.93443545E+03 0.93443550E+03 0.32000000E+00 0.0000E+00 0.9000E+01
       25  1    1    2    0    0 -.87709955E+03 0.37929066E+03 0.16266906E+03 0.97736956E+03 0.12500000E+03 0.0000E+00 0.9000E+01
        2  1    1    2  502    0 -.18588247E+02 0.35008510E+00 0.17417297E+03 0.17516270E+03 0.32000000E+00 0.0000E+00 0.9000E+01
       -2  1    1    2    0  501 0.90311000E+03 -.38069635E+03 -.70493639E+02 0.98260207E+03 0.32000000E+00 0.0000E+00 0.9000E+01
       21  1    1    2  503  502 -.74221990E+01 0.10556120E+01 0.33368912E+03 0.33377416E+03 0.75000000E+00 0.0000E+00 0.9000E+01
#aMCatNLO 2  0  0  1  4 0.74968897D+01 0.00000000D+00  -5  6  0 0.00000000D+00 0.00000000D+00 0.00000000D+00 0.00000000D+00 0.00000000D+00
  <mgrwgt>
 0.2403337198D-02    3    2    0
 0.105922152542610D+04 0.000000000000000D+00 0.000000000000000D+00 0.105922152542610D+04
 0.105922152542610D+04 0.000000000000000D+00 0.000000000000000D+00 -.105922152542610D+04
 0.968047536408241D+03 -.880637819550937D+03 0.379829817771634D+03 0.411991875429963D+02
 0.154439216328058D+03 -.190967743272085D+02 0.426413837815393D+00 0.153253394486253D+03
 0.995956298115903D+03 0.899734593878146D+03 -.380256231609450D+03 -.194452582029250D+03
 0.000000000000000D+00 -.000000000000000D+00 0.000000000000000D+00 0.000000000000000D+00
 0.135362729210665D+04 0.000000000000000D+00 0.000000000000000D+00 0.135362729210665D+04
 0.105927588520451D+04 0.000000000000000D+00 0.000000000000000D+00 -.105927588520451D+04
 0.964778918590972D+03 -.877251894759140D+03 0.379348259314396D+03 0.411991875429963D+02
 0.154373063254647D+03 -.185557970704320D+02 0.349474097805412D+00 0.153253394486253D+03
 0.999304334215390D+03 0.903229890842669D+03 -.380753345372255D+03 -.194452582029250D+03
 0.294446861250157D+03 -.742219901309728D+01 0.105561196005307D+01 0.294351406902140D+03
-.164558067583D-06 0.000000000000D+00 0.000000000000D+00 0.878809779533D-06 0.000000000000D+00  6 1 -1 25 2 -2 21 2 0.23607650D+00 0.14375186D+00 0.97038017D+06 0.97038017D+06 0.97038017D+06 0.10487343D+01  1  2 13  1  6  1        1 -.520533161934D-07 0.100000000000D+01
-.730706045414D-02 0.000000000000D+00 0.000000000000D+00 0.878809779533D-06 0.000000000000D+00  6 1 -1 25 2 -2 21 2 0.24521826D+00 0.14375186D+00 0.97038017D+06 0.97038017D+06 0.97038017D+06 0.10487343D+01  1  2 13  1  6  1        1 -.210579221017D-02 0.100000000000D+01
0.142565477258D-01 0.000000000000D+00 0.000000000000D+00 0.878809779533D-06 0.227896607423D-06  6 1 -1 25 2 -2 21 2 0.23607266D+00 0.14375924D+00 0.97038017D+06 0.97038017D+06 0.97038017D+06 0.10487343D+01  1  2  1  1  6  1        1 0.450918146180D-02 0.100000000000D+01
  </mgrwgt>
  </event>
  <event>
  5     66 0.18148205E-05 0.13896332E+03 0.75467711E-02 0.94134121E-01
        1 -1    0    0  502    0 0.00000000E+00 0.00000000E+00 0.20420116E+04 0.20420116E+04 0.32000000E+00 0.0000E+00 0.9000E+01
       -1 -1    0    0    0  501 0.00000000E+00 0.00000000E+00 -.38726689E+03 0.38726702E+03 0.32000000E+00 0.0000E+00 0.9000E+01
       25  1    1    2    0    0 0.19483433E+03 -.46518201E+03 0.34452050E+03 0.62343732E+03 0.12500000E+03 0.0000E+00 0.9000E+01
        2  1    1    2  502    0 0.75664837E+01 0.15686981E+03 0.14140093E+04 0.14227044E+04 0.32000000E+00 0.0000E+00 0.9000E+01
       -2  1    1    2    0  501 -.20240081E+03 0.30831220E+03 -.10378505E+03 0.38313697E+03 0.32000000E+00 0.0000E+00 0.9000E+01
#aMCatNLO 1  0  0  5  2 0.29845417D+02 0.00000000D+00  -5  6  0 0.00000000D+00 0.00000000D+00 0.00000000D+00 0.00000000D+00 0.00000000D+00
  <mgrwgt>
 0.1635959951D-02    8    2    0
 0.889271430398668D+03 0.000000000000000D+00 0.000000000000000D+00 0.889271430398668D+03
 0.889271430398668D+03 -.000000000000000D+00 -.000000000000000D+00 -.889271430398668D+03
 0.531027003050655D+03 0.194865646449789D+03 -.465219262905425D+03 -.109375935307539D+03
 0.627583333000306D+03 0.756555526590235D+01 0.156850561886243D+03 0.607619538419611D+03
 0.619932524746376D+03 -.202431201715691D+03 0.308368701019182D+03 -.498243603112072D+03
 0.000000000000000D+00 -.000000000000000D+00 0.000000000000000D+00 0.000000000000000D+00
 0.889271430398668D+03 0.000000000000000D+00 0.000000000000000D+00 0.889271430398668D+03
 0.889271430398668D+03 -.000000000000000D+00 -.000000000000000D+00 -.889271430398668D+03
 0.530618203071761D+03 0.194522688372500D+03 -.464696825969314D+03 -.110220057491750D+03
 0.626767799517481D+03 0.716034470198491D+01 0.157467829650182D+03 0.606622194286522D+03
 0.442279494734753D+03 -.124982632350005D+03 0.204304262861717D+03 -.371820200164303D+03
 0.178877363473342D+03 -.767004007244802D+02 0.102924733457415D+03 -.124581936630470D+03
0.806194366622D-04 0.000000000000D+00 0.000000000000D+00 0.626534841973D-05 0.000000000000D+00  6 1 -1 25 2 -2 21 0 0.31415564D+00 0.59579534D-01 0.27329366D+06 0.27329366D+06 0.27329366D+06 0.10875604D+01  1  2  2  4  6  5       -2 0.827112400622D-04 0.100000000000D+01
0.107234361028D-04 0.000000000000D+00 -.309599864368D-06 0.626534841973D-05 0.000000000000D+00  6 1 -1 25 2 -2 21 2 0.31415564D+00 0.59579534D-01 0.27329366D+06 0.27329366D+06 0.27329366D+06 0.10875604D+01  1  2  3  4  6  5       -2 0.130126426996D-04 0.100000000000D+01
-.545057987840D-04 0.000000000000D+00 0.000000000000D+00 0.626534841973D-05 0.000000000000D+00  6 1 -1 25 2 -2 21 2 0.31415564D+00 0.59579534D-01 0.27329366D+06 0.27329366D+06 0.27329366D+06 0.10875604D+01  1  2 15  4  6  5       -2 -.661415312996D-04 0.100000000000D+01
0.306654239649D-08 0.000000000000D+00 0.000000000000D+00 0.626534841973D-05 0.000000000000D+00  6 1 -1 25 2 -2 21 2 0.31415564D+00 0.59579534D-01 0.27276440D+06 0.27276440D+06 0.27276440D+06 0.10876232D+01  1  2 12  4  6  5       -2 0.372206895424D-08 0.100000000000D+01
0.224444489004D-02 0.000000000000D+00 0.000000000000D+00 0.626534841973D-05 0.000000000000D+00  6 1 -1 25 2 -2 21 2 0.31415564D+00 0.59579534D-01 0.27276440D+06 0.27276440D+06 0.27276440D+06 0.10876232D+01  1  2 12  4  6  5       -2 0.272423386492D-02 0.100000000000D+01
-.167595628862D-02 0.000000000000D+00 0.000000000000D+00 0.626534841973D-05 0.000000000000D+00  6 1 -1 25 2 -2 21 2 0.31415564D+00 0.59579534D-01 0.27329366D+06 0.27329366D+06 0.27329366D+06 0.10875604D+01  1  2  4  4  6  5       -2 -.203373435109D-02 0.100000000000D+01
-.230198063924D-02 0.000000000000D+00 0.000000000000D+00 0.626534841973D-05 0.000000000000D+00  6 1 -1 25 2 -2 21 2 0.31415564D+00 0.59579534D-01 0.27329366D+06 0.27329366D+06 0.27329366D+06 0.10875604D+01  1  2  5  4  6  5       -2 -.279340048028D-02 0.100000000000D+01
0.305673280128D-02 0.000000000000D+00 -.000000000000D+00 0.626534841973D-05 0.000000000000D+00  6 1 -1 25 2 -2 21 2 0.31415564D+00 0.59579534D-01 0.27329366D+06 0.27329366D+06 0.27329366D+06 0.10875604D+01  1  2  6  4  6  5       -2 0.370927484342D-02 0.100000000000D+01
  </mgrwgt>
  </event>
  <event>
  6     66 0.18148205E-05 0.34173468E+02 0.75467711E-02 0.94014234E-01
        1 -1    0    0  502    0 0.00000000E+00 0.00000000E+00 0.21486373E+04 0.21486373E+04 0.32000000E+00 0.0000E+00 0.9000E+01
       -1 -1    0    0    0  501 0.00000000E+00 0.00000000E+00 -.13371970E+04 0.13371970E+04 0.32000000E+00 0.0000E+00 0.9000E+01
       25  1    1    2    0    0 -.17802576E+03 -.48754912E+03 -.41717911E+03 0.67754020E+03 0.12500000E+03 0.0000E+00 0.9000E+01
        2  1    1    2  502    0 0.15648981E+02 0.24838637E+02 0.19409596E+04 0.19411817E+04 0.32000000E+00 0.0000E+00 0.9000E+01
       -2  1    1    2    0  503 0.80691751E+02 0.29756597E+03 -.48165449E+03 0.57188094E+03 0.32000000E+00 0.0000E+00 0.9000E+01
       21  1    1    2  503  501 0.81685026E+02 0.16514451E+03 -.23068578E+03 0.29523151E+03 0.75000000E+00 0.0000E+00 0.9000E+01
#aMCatNLO 2  0  0  5  2 0.29845417D+02 0.00000000D+00  -5  6  0 0.00000000D+00 0.00000000D+00 0.00000000D+00 0.00000000D+00 0.00000000D+00
  <mgrwgt>
 0.4033472816D-01    1    2    0
 0.169503728691213D+04 0.000000000000000D+00 0.000000000000000D+00 0.169503728691213D+04
 0.169503728691213D+04 -.000000000000000D+00 -.000000000000000D+00 -.169503728691213D+04
 0.796375168368488D+03 -.178090668858653D+03 -.487734147215885D+03 -.590751660259207D+03
 0.153218175369554D+04 0.155189991019900D+02 0.244681689600237D+02 0.153190776345449D+04
 0.106151765176024D+04 0.162571669756663D+03 0.463265978255861D+03 -.941156103195287D+03
 0.000000000000000D+00 0.000000000000000D+00 0.000000000000000D+00 0.000000000000000D+00
 0.169503728691213D+04 0.000000000000000D+00 0.000000000000000D+00 0.169503728691213D+04
 0.169503728691213D+04 -.000000000000000D+00 -.000000000000000D+00 -.169503728691213D+04
 0.796532539935528D+03 -.178023044570572D+03 -.487541444317413D+03 -.591143149204030D+03
 0.153143623289751D+04 0.156490599863802D+02 0.248387918547138D+02 0.153115481802855D+04
 0.703077393808807D+03 0.806433767140065D+02 0.297451465471656D+03 -.631931240852920D+03
 0.359028407182419D+03 0.817306078701855D+02 0.165251186991044D+03 -.308080427971603D+03
0.888063776923D+00 0.000000000000D+00 0.000000000000D+00 0.942150357310D-03 0.245626664418D-05  6 1 -1 25 2 -2 21 2 0.33055958D+00 0.20572262D+00 0.27866347D+06 0.27866347D+06 0.27866347D+06 0.10869304D+01  1  2  1  4  6  5       -2 0.403347281588D-01 0.100000000000D+01
  </mgrwgt>
  </event>
  <event>
  5     66 0.18148205E-05 0.23253672E+02 0.75467711E-02 0.92595099E-01
        1 -1    0    0  502    0 0.00000000E+00 0.00000000E+00 0.12872048E+04 0.12872048E+04 0.32000000E+00 0.0000E+00 0.9000E+01
       -1 -1    0    0    0  501 0.00000000E+00 0.00000000E+00 -.62111965E+03 0.62111974E+03 0.32000000E+00 0.0000E+00 0.9000E+01
       25  1    1    2    0    0 0.38398019E+03 0.33665158E+03 0.18472103E+03 0.55724495E+03 0.12500000E+03 0.0000E+00 0.9000E+01
        2  1    1    2  502    0 -.36160078E+03 -.34295685E+03 0.84805491E+03 0.98365225E+03 0.32000000E+00 0.0000E+00 0.9000E+01
       -2  1    1    2    0  501 -.22379420E+02 0.63052724E+01 -.36669082E+03 0.36742734E+03 0.32000000E+00 0.0000E+00 0.9000E+01
#aMCatNLO 1  0  0  1  2 0.54125218D+02 0.00000000D+00  -5  6  0 0.00000000D+00 0.00000000D+00 0.00000000D+00 0.00000000D+00 0.00000000D+00
  <mgrwgt>
 0.6996503049D-02    7    2    0
 0.894152278676959D+03 0.000000000000000D+00 0.000000000000000D+00 0.894152278676959D+03
 0.894152278676959D+03 0.000000000000000D+00 0.000000000000000D+00 -.894152278676959D+03
 0.525816378456537D+03 0.383964572196153D+03 0.336633346076138D+03 -.103470508337323D+02
 0.733758474979565D+03 -.361582248088322D+03 -.342939280749067D+03 0.538565155938484D+03
 0.528729703917817D+03 -.223823241078309D+02 0.630593467292874D+01 -.528218105104752D+03
 0.000000000000000D+00 -.000000000000000D+00 0.000000000000000D+00 0.000000000000000D+00
 0.110213752006156D+04 0.000000000000000D+00 0.000000000000000D+00 0.110213752006156D+04
 0.918592168303815D+03 0.000000000000000D+00 0.000000000000000D+00 -.918592168303815D+03
 0.515219177142594D+03 0.399132665885132D+03 0.300685639926424D+03 -.103470508337323D+02
 0.748988462333729D+03 -.339978332313062D+03 -.394139598461801D+03 0.538565155938484D+03
 0.529127908784218D+03 -.696912972386980D+01 -.302226492021588D+02 -.528218105104752D+03
 0.227394140104838D+03 -.521852038482006D+02 0.123676607737535D+03 0.183545351757750D+03
0.254905303968D-02 0.000000000000D+00 0.000000000000D+00 0.783746207307D-04 0.000000000000D+00  6 1 -1 25 2 -2 21 0 0.19803151D+00 0.95556879D-01 0.27421695D+06 0.27421695D+06 0.27421695D+06 0.10874511D+01  1  2  2  1  6  1        1 0.323083074187D-02 0.100000000000D+01
0.176004240046D-02 0.000000000000D+00 -.978903485346D-05 0.783746207307D-04 0.000000000000D+00  6 1 -1 25 2 -2 21 2 0.19803151D+00 0.95556879D-01 0.27421695D+06 0.27421695D+06 0.27421695D+06 0.10874511D+01  1  2  3  1  6  1        1 0.263801918208D-02 0.100000000000D+01
-.163088591347D-02 0.000000000000D+00 0.000000000000D+00 0.783746207307D-04 0.000000000000D+00  6 1 -1 25 2 -2 21 2 0.19803151D+00 0.95556879D-01 0.27421695D+06 0.27421695D+06 0.27421695D+06 0.10874511D+01  1  2 15  1  6  1        1 -.244443447634D-02 0.100000000000D+01
-.348740015975D-02 0.000000000000D+00 0.000000000000D+00 0.783746207307D-04 0.000000000000D+00  6 1 -1 25 2 -2 21 2 0.19803151D+00 0.95556879D-01 0.27421695D+06 0.27421695D+06 0.27421695D+06 0.10874511D+01  1  2  4  1  6  1        1 -.522704936801D-02 0.100000000000D+01
-.148093483475D-01 0.000000000000D+00 -.262431119908D-02 0.783746207307D-04 0.000000000000D+00  6 1 -1 25 2 -2 21 2 0.24675311D+00 0.95556879D-01 0.27421695D+06 0.27421695D+06 0.27421695D+06 0.10874511D+01  1  2  5  1  6  1        1 -.135354933861D-01 0.100000000000D+01
0.150824847363D-01 0.000000000000D+00 0.256207992280D-02 0.783746207307D-04 0.000000000000D+00  6 1 -1 25 2 -2 21 2 0.19803151D+00 0.95556879D-01 0.27421695D+06 0.27421695D+06 0.27421695D+06 0.10874511D+01  1  2  6  1  6  1        1 0.226062076899D-01 0.100000000000D+01
-.420040475880D-03 0.000000000000D+00 -.807323592650D-04 0.783746207307D-04 0.000000000000D+00  6 21 -1 25 2 -2 -1 2 0.24675311D+00 0.95556879D-01 0.27421695D+06 0.27421695D+06 0.27421695D+06 0.10874511D+01  1  2  5  5  6  1        1 -.271577333997D-03 0.100000000000D+01
  </mgrwgt>
  </event>
  <event>
  6     66 0.18148205E-05 0.31806065E+02 0.75467711E-02 0.93350770E-01
        1 -1    0    0  502    0 0.00000000E+00 0.00000000E+00 0.14784440E+04 0.14784441E+04 0.32000000E+00 0.0000E+00 0.9000E+01
       -1 -1    0    0    0  503 0.00000000E+00 0.00000000E+00 -.49567002E+03 0.49567012E+03 0.32000000E+00 0.0000E+00 0.9000E+01
       25  1    1    2    0    0 -.17174307E+03 -.51992273E+03 0.34067666E+03 0.65688729E+03 0.12500000E+03 0.0000E+00 0.9000E+01
        2  1    1    2  502    0 0.14563652E+03 0.48810287E+03 0.91099731E+03 0.10437292E+04 0.32000000E+00 0.0000E+00 0.9000E+01
       -2  1    1    2    0  501 0.14524988E+02 0.34888314E+02 -.21248146E+03 0.21581623E+03 0.32000000E+00 0.0000E+00 0.9000E+01
       21  1    1    2  501  503 0.11581561E+02 -.30684507E+01 -.56418480E+02 0.57681499E+02 0.75000000E+00 0.0000E+00 0.9000E+01
#aMCatNLO 2  0  0  2  1 0.11981150D+02 0.00000000D+00  -5  6  0 0.00000000D+00 0.00000000D+00 0.00000000D+00 0.00000000D+00 0.00000000D+00
  <mgrwgt>
 0.3870005083D-02    2    2    0
 0.805085350757633D+03 0.000000000000000D+00 0.000000000000000D+00 0.805085350757633D+03
 0.805085350757633D+03 0.000000000000000D+00 0.000000000000000D+00 -.805085350757633D+03
 0.561689296322907D+03 -.167695767753600D+03 -.520970170656300D+03 -.183868531184142D+02
 0.654379648594102D+03 0.150334315354197D+03 0.486827695442201D+03 0.410622835545664D+03
 0.394101756598257D+03 0.173614523994025D+02 0.341424752140995D+02 -.392235982427250D+03
 0.000000000000000D+00 0.000000000000000D+00 -.000000000000000D+00 -.000000000000000D+00
 0.805450344607112D+03 0.000000000000000D+00 0.000000000000000D+00 0.805450344607112D+03
 0.909824042468833D+03 0.000000000000000D+00 0.000000000000000D+00 -.909824042468833D+03
 0.561918243944257D+03 -.171736628035717D+03 -.519899574053221D+03 -.183868531184142D+02
 0.654244178153663D+03 0.145628075981257D+03 0.488074579406055D+03 0.410622835545664D+03
 0.394052854184585D+03 0.145269905889001D+02 0.348934452981953D+02 -.392235982427250D+03
 0.105059110793440D+03 0.115815614655592D+02 -.306845065102855D+01 -.104373697861722D+03
-.118625750745D-07 0.000000000000D+00 0.000000000000D+00 0.190848700021D-04 0.000000000000D+00  6 1 -1 25 2 -2 21 2 0.22734949D+00 0.76270926D-01 0.31401021D+06 0.31401021D+06 0.31401021D+06 0.10830883D+01  1  2 13  2  6  2       -1 -.208038901085D-07 0.100000000000D+01
0.220820240872D-02 0.000000000000D+00 0.000000000000D+00 0.190848700021D-04 0.388361722180D-06  6 1 -1 25 2 -2 21 2 0.22745256D+00 0.76256810D-01 0.31401021D+06 0.31401021D+06 0.31401021D+06 0.10830883D+01  1  2  1  2  6  2       -1 0.387002588672D-02 0.100000000000D+01
  </mgrwgt>
  </event>
  <event>
  5     66 0.18148205E-05 0.70340632E+02 0.75467711E-02 0.89858655E-01
        1 -1    0    0  502    0 0.00000000E+00 0.00000000E+00 0.11627920E+04 0.11627921E+04 0.32000000E+00 0.0000E+00 0.9000E+01
       -1 -1    0    0    0  501 -.00000000E+00 -.00000000E+00 -.11917055E+04 0.11917055E+04 0.32000000E+00 0.0000E+00 0.9000E+01
       25  1    1    2    0    0 -.48224940E+03 -.45531469E+03 -.11986760E+03 0.68547005E+03 0.12500000E+03 0.0000E+00 0.9000E+01
        2  1    1    2  502    0 0.47633619E+03 0.52540066E+03 0.73488149E+03 0.10212702E+04 0.32000000E+00 0.0000E+00 0.9000E+01
       -2  1    1    2    0  501 0.59132112E+01 -.70085968E+02 -.64392734E+03 0.64775731E+03 0.32000000E+00 0.0000E+00 0.9000E+01
#aMCatNLO 1  0  0  5  2 0.12253413D+03 0.00000000D+00  -5  6  0 0.00000000D+00 0.00000000D+00 0.00000000D+00 0.00000000D+00 0.00000000D+00
  <mgrwgt>
 0.5723109209D-03    4    2    0
 0.117716003539223D+04 0.000000000000000D+00 0.000000000000000D+00 0.117716003539223D+04
 0.117716003539223D+04 -.000000000000000D+00 -.000000000000000D+00 -.117716003539223D+04
 0.684018692678843D+03 -.482239151861990D+03 -.455296775168580D+03 -.111385900663383D+03
 0.103034815169313D+04 0.476325018948614D+03 0.525388340908747D+03 0.747461625274633D+03
 0.639953226412487D+03 0.591413291337632D+01 -.700915657401667D+02 -.636075724611250D+03
 0.000000000000000D+00 0.000000000000000D+00 0.000000000000000D+00 0.000000000000000D+00
 0.117716003539223D+04 0.000000000000000D+00 0.000000000000000D+00 0.117716003539223D+04
 0.117716003539223D+04 -.000000000000000D+00 -.000000000000000D+00 -.117716003539223D+04
 0.705874550326364D+03 -.481519530503033D+03 -.463825394414739D+03 -.188782483399805D+03
 0.947355997654407D+03 0.477348981151992D+03 0.513252814848584D+03 0.637332632567122D+03
 0.551273637462520D+03 -.229062569785855D+02 0.597069621050321D+02 -.547551828988432D+03
 0.149815885341163D+03 0.270768063296263D+02 -.109134382538877D+03 0.990016798211153D+02
0.529372024473D-02 0.000000000000D+00 0.000000000000D+00 0.143547779483D-04 0.000000000000D+00  6 1 -1 25 2 -2 21 0 0.17889109D+00 0.18333931D+00 0.52881748D+06 0.52881748D+06 0.52881748D+06 0.10667947D+01  1  2  2  4  6  5       -2 0.135977075672D-02 0.100000000000D+01
0.193165427192D-02 0.000000000000D+00 -.203292796083D-04 0.143547779483D-04 0.000000000000D+00  6 1 -1 25 2 -2 21 2 0.17889109D+00 0.18333931D+00 0.52881748D+06 0.52881748D+06 0.52881748D+06 0.10667947D+01  1  2  3  4  6  5       -2 0.564671434353D-03 0.100000000000D+01
-.357183557388D-02 0.000000000000D+00 0.000000000000D+00 0.143547779483D-04 0.000000000000D+00  6 1 -1 25 2 -2 21 2 0.17889109D+00 0.18333931D+00 0.52881748D+06 0.52881748D+06 0.52881748D+06 0.10667947D+01  1  2 15  4  6  5       -2 -.104413794233D-02 0.100000000000D+01
-.105359788247D-02 0.000000000000D+00 0.000000000000D+00 0.143547779483D-04 0.000000000000D+00  6 1 -1 25 2 -2 21 2 0.17889109D+00 0.18333931D+00 0.52881748D+06 0.52881748D+06 0.52881748D+06 0.10667947D+01  1  2  4  4  6  5       -2 -.307993327881D-03 0.100000000000D+01
  </mgrwgt>
  </event>
  <event>
  5     66 0.18148205E-05 0.22814831E+03 0.75467711E-02 0.94507007E-01
        1 -1    0    0  502    0 0.00000000E+00 0.00000000E+00 0.51743442E+03 0.51743452E+03 0.32000000E+00 0.0000E+00 0.9000E+01
       -1 -1    0    0    0  501 -.00000000E+00 -.00000000E+00 -.14808686E+04 0.14808687E+04 0.32000000E+00 0.0000E+00 0.9000E+01
       25  1    1    2    0    0 0.26648330E+03 0.40982877E+03 -.98901271E+02 0.51417841E+03 0.12500000E+03 0.0000E+00 0.9000E+01
        2  1    1    2  502    0 -.20579765E+03 -.18994304E+03 0.23227712E+03 0.36384584E+03 0.32000000E+00 0.0000E+00 0.9000E+01
       -2  1    1    2    0  501 -.60685648E+02 -.21988573E+03 -.10968101E+04 0.11202789E+04 0.32000000E+00 0.0000E+00 0.9000E+01
#aMCatNLO 1  0  0  4  1 0.29687957D+02 0.00000000D+00  -5  6  0 0.00000000D+00 0.00000000D+00 0.00000000D+00 0.00000000D+00 0.00000000D+00
  <mgrwgt>
 0.7395113156D-03    8    2    0
 0.875358517812391D+03 0.000000000000000D+00 0.000000000000000D+00 0.875358517812391D+03
 0.875358517812391D+03 -.000000000000000D+00 -.000000000000000D+00 -.875358517812391D+03
 0.532503960952770D+03 0.266456978211741D+03 0.409831400168603D+03 0.170218596600076D+03
 0.543018677094876D+03 -.205757433527252D+03 -.189905925097135D+03 0.465262186122136D+03
 0.675194397577135D+03 -.606995446844896D+02 -.219925475071467D+03 -.635480782722212D+03
 0.000000000000000D+00 -.000000000000000D+00 0.000000000000000D+00 0.000000000000000D+00
 0.875358517812391D+03 0.000000000000000D+00 0.000000000000000D+00 0.875358517812391D+03
 0.875358517812391D+03 -.000000000000000D+00 -.000000000000000D+00 -.875358517812391D+03
 0.531916492803473D+03 0.265233528474356D+03 0.408702204735879D+03 0.172985081823322D+03
 0.496008882369985D+03 -.163154154240601D+03 -.164408703026115D+03 0.438606100861839D+03
 0.672509656722055D+03 -.622486018878590D+02 -.221355193241019D+03 -.631978028393910D+03
 0.502820037292692D+02 -.398307723458968D+02 -.229383084687446D+02 0.203868457087482D+02
0.273185526394D-03 0.000000000000D+00 0.000000000000D+00 0.432879555404D-05 0.000000000000D+00  6 1 -1 25 2 -2 21 0 0.79605305D-01 0.22782596D+00 0.25639753D+06 0.25639753D+06 0.25639753D+06 0.10896345D+01  1  2  2  3  6  4        2 0.118606038999D-03 0.100000000000D+01
0.238117589022D-04 0.000000000000D+00 -.104910435275D-05 0.432879555404D-05 0.000000000000D+00  6 1 -1 25 2 -2 21 2 0.79605305D-01 0.22782596D+00 0.25639753D+06 0.25639753D+06 0.25639753D+06 0.10896345D+01  1  2  3  3  6  4        2 0.122744570571D-04 0.100000000000D+01
-.182997711828D-03 0.000000000000D+00 0.000000000000D+00 0.432879555404D-05 0.000000000000D+00  6 1 -1 25 2 -2 21 2 0.79605305D-01 0.22782596D+00 0.25639753D+06 0.25639753D+06 0.25639753D+06 0.10896345D+01  1  2 15  3  6  4        2 -.943314420668D-04 0.100000000000D+01
0.487672650215D-08 0.000000000000D+00 0.000000000000D+00 0.432879555404D-05 0.000000000000D+00  6 1 -1 25 2 -2 21 2 0.79605305D-01 0.22782596D+00 0.25529317D+06 0.25529317D+06 0.25529317D+06 0.10897752D+01  1  2 12  3  6  4        2 0.251524837232D-08 0.100000000000D+01
0.148926890550D-02 0.000000000000D+00 0.000000000000D+00 0.432879555404D-05 0.000000000000D+00  6 1 -1 25 2 -2 21 2 0.79605305D-01 0.22782596D+00 0.25529317D+06 0.25529317D+06 0.25529317D+06 0.10897752D+01  1  2 12  3  6  4        2 0.768113854415D-03 0.100000000000D+01
-.447970969312D-03 0.000000000000D+00 0.000000000000D+00 0.432879555404D-05 0.000000000000D+00  6 1 -1 25 2 -2 21 2 0.79605305D-01 0.22782596D+00 0.25639753D+06 0.25639753D+06 0.25639753D+06 0.10896345D+01  1  2  4  3  6  4        2 -.230919540562D-03 0.100000000000D+01
-.331986239876D-02 0.000000000000D+00 0.000000000000D+00 0.432879555404D-05 0.000000000000D+00  6 1 -1 25 2 -2 21 2 0.79605305D-01 0.22782596D+00 0.25639753D+06 0.25639753D+06 0.25639753D+06 0.10896345D+01  1  2  5  3  6  4        2 -.171131870672D-02 0.100000000000D+01
0.364143804920D-02 0.000000000000D+00 -.000000000000D+00 0.432879555404D-05 0.000000000000D+00  6 1 -1 25 2 -2 21 2 0.79605305D-01 0.22782596D+00 0.25639753D+06 0.25639753D+06 0.25639753D+06 0.10896345D+01  1  2  6  3  6  4        2 0.187708413917D-02 0.100000000000D+01
  </mgrwgt>
  </event>
  <event>
  5     66 0.18148205E-05 0.25959418E+02 0.75467711E-02 0.92807348E-01
        1 -1    0    0  502    0 0.00000000E+00 0.00000000E+00 0.34175386E+04 0.34175386E+04 0.32000000E+00 0.0000E+00 0.9000E+01
       -1 -1    0    0    0  501 0.00000000E+00 0.00000000E+00 -.58177257E+03 0.58177266E+03 0.32000000E+00 0.0000E+00 0.9000E+01
       25  1    1    2    0    0 -.42217300E+03 -.31159963E+03 0.64712767E+03 0.84245094E+03 0.12500000E+03 0.0000E+00 0.9000E+01
        2  1    1    2  502    0 0.10287769E+02 -.23835828E+02 0.25269488E+04 0.25270822E+04 0.32000000E+00 0.0000E+00 0.9000E+01
       -2  1    1    2    0  501 0.41188523E+03 0.33543546E+03 -.33831048E+03 0.62977811E+03 0.32000000E+00 0.0000E+00 0.9000E+01
#aMCatNLO 1  0  0  1  5 0.92716163D+02 0.00000000D+00  -5  6  0 0.00000000D+00 0.00000000D+00 0.00000000D+00 0.00000000D+00 0.00000000D+00
  <mgrwgt>
 0.5958236126D-01    7    2    0
 0.141004624200469D+04 0.000000000000000D+00 0.000000000000000D+00 0.141004624200469D+04
 0.141004624200469D+04 0.000000000000000D+00 0.000000000000000D+00 -.141004624200469D+04
 0.544056082389279D+03 -.422213783272683D+03 -.311634192827051D+03 0.706517647364200D+02
 0.104271351529041D+04 0.102870551601584D+02 -.238341746328783D+02 0.104239032208908D+04
 0.123332288632969D+04 0.411926728112525D+03 0.335468367459929D+03 -.111304208682550D+04
 0.000000000000000D+00 0.000000000000000D+00 -.000000000000000D+00 0.000000000000000D+00
 0.266417052273998D+04 0.000000000000000D+00 0.000000000000000D+00 0.266417052273998D+04
 0.141252273844258D+04 0.000000000000000D+00 0.000000000000000D+00 -.141252273844258D+04
 0.546361431695115D+03 -.434463944528065D+03 -.298555226195558D+03 0.706517647364200D+02
 0.104247378569571D+04 -.131387247404911D+02 0.117651602253546D+01 0.104239032208908D+04
 0.123278096934276D+04 0.384221588095700D+03 0.365047945577049D+03 -.111304208682550D+04
 0.125507707444898D+04 0.633810811728565D+02 -.676692354040272D+02 0.125164778429740D+04
0.218037946589D-01 0.000000000000D+00 0.000000000000D+00 0.750952089662D-03 0.000000000000D+00  6 1 -1 25 2 -2 21 0 0.52577517D+00 0.89503480D-01 0.30066297D+06 0.30066297D+06 0.30066297D+06 0.10844809D+01  1  2  2  1  6  1        1 0.100388221029D-02 0.100000000000D+01
0.165182348446D-01 0.000000000000D+00 -.837323125610D-04 0.750952089662D-03 0.000000000000D+00  6 1 -1 25 2 -2 21 2 0.52577517D+00 0.89503480D-01 0.30066297D+06 0.30066297D+06 0.30066297D+06 0.10844809D+01  1  2  3  1  6  1        1 0.894454313275D-03 0.100000000000D+01
-.146401761893D-01 0.000000000000D+00 0.000000000000D+00 0.750952089662D-03 0.000000000000D+00  6 1 -1 25 2 -2 21 2 0.52577517D+00 0.89503480D-01 0.30066297D+06 0.30066297D+06 0.30066297D+06 0.10844809D+01  1  2 15  1  6  1        1 -.792758358430D-03 0.100000000000D+01
-.254241186742D-01 0.000000000000D+00 0.000000000000D+00 0.750952089662D-03 0.000000000000D+00  6 1 -1 25 2 -2 21 2 0.52577517D+00 0.89503480D-01 0.30066297D+06 0.30066297D+06 0.30066297D+06 0.10844809D+01  1  2  4  1  6  1        1 -.137670355358D-02 0.100000000000D+01
-.126471513971D+01 0.000000000000D+00 -.657356890477D-02 0.750952089662D-03 0.000000000000D+00  6 1 -1 25 2 -2 21 2 0.99341447D+00 0.89503480D-01 0.30066297D+06 0.30066297D+06 0.30066297D+06 0.10844809D+01  1  2  5  1  6  1        1 -.135668944407D-06 0.100000000000D+01
0.110534006795D+01 0.000000000000D+00 0.572122217622D-02 0.750952089662D-03 0.000000000000D+00  6 1 -1 25 2 -2 21 2 0.52577517D+00 0.89503480D-01 0.30066297D+06 0.30066297D+06 0.30066297D+06 0.10844809D+01  1  2  6  1  6  1        1 0.598536224187D-01 0.100000000000D+01
-.871273675234D-01 0.000000000000D+00 -.454797643723D-03 0.750952089662D-03 0.000000000000D+00  6 21 -1 25 2 -2 -1 2 0.99341447D+00 0.89503480D-01 0.30066297D+06 0.30066297D+06 0.30066297D+06 0.10844809D+01  1  2  5  5  6  1        1 -.983243135233D-10 0.100000000000D+01
  </mgrwgt>
  </event>
  <event>
  6     66 0.18148205E-05 0.67009425E+02 0.75467711E-02 0.92564718E-01
        1 -1    0    0  502    0 0.00000000E+00 0.00000000E+00 0.18727639E+04 0.18727640E+04 0.32000000E+00 0.0000E+00 0.9000E+01
       -1 -1    0    0    0  501 0.00000000E+00 0.00000000E+00 -.49044279E+03 0.49044290E+03 0.32000000E+00 0.0000E+00 0.9000E+01
       25  1    1    2    0    0 -.31742485E+03 0.39059713E+03 0.28001571E+03 0.58937123E+03 0.12500000E+03 0.0000E+00 0.9000E+01
        2  1    1    2  502    0 -.90011448E+02 -.11787368E+01 0.10469065E+04 0.10507697E+04 0.32000000E+00 0.0000E+00 0.9000E+01
       -2  1    1    2    0  503 0.12883828E+02 -.11211686E+03 0.19123074E+03 0.22204837E+03 0.32000000E+00 0.0000E+00 0.9000E+01
       21  1    1    2  503  501 0.39455247E+03 -.27730154E+03 -.13583184E+03 0.50101761E+03 0.75000000E+00 0.0000E+00 0.9000E+01
#aMCatNLO 2  0  0  5  2 0.13353801D+03 0.00000000D+00  -5  6  0 0.00000000D+00 0.00000000D+00 0.00000000D+00 0.00000000D+00 0.00000000D+00
  <mgrwgt>
 0.9931955903D-03    1    2    0
 0.958375569346033D+03 0.000000000000000D+00 0.000000000000000D+00 0.958375569346033D+03
 0.958375569346033D+03 -.000000000000000D+00 -.000000000000000D+00 -.958375569346033D+03
 0.549562187621168D+03 -.338445869757708D+03 0.410683939216818D+03 -.564508049213605D+02
 0.568358924430095D+03 -.111635637420375D+03 0.195026144720655D+02 0.556946136952071D+03
 0.798830026640802D+03 0.450081507178082D+03 -.430186553688884D+03 -.500495332030710D+03
 0.000000000000000D+00 0.000000000000000D+00 0.000000000000000D+00 0.000000000000000D+00
 0.958375569346033D+03 0.000000000000000D+00 0.000000000000000D+00 0.958375569346033D+03
 0.958375569346033D+03 -.000000000000000D+00 -.000000000000000D+00 -.958375569346033D+03
 0.524903511733925D+03 -.317595633521880D+03 0.390755346002387D+03 -.796364851622522D+02
 0.540581833693133D+03 -.901164053106053D+02 -.106540299075824D+01 0.533016526319205D+03
 0.135018816784527D+03 0.127028218147051D+02 -.111348539258384D+03 0.753008765477650D+02
 0.716246976480480D+03 0.395009217017780D+03 -.278341403753245D+03 -.528680917704718D+03
0.103509217333D-02 0.000000000000D+00 0.000000000000D+00 0.250942753248D-05 0.908107954388D-10  6 1 -1 25 2 -2 21 2 0.28811754D+00 0.75452747D-01 0.36255184D+06 0.36255184D+06 0.36255184D+06 0.10785187D+01  1  2  1  4  6  5       -2 0.993195590286D-03 0.100000000000D+01
  </mgrwgt>
  </event>
  <event>
  5     66 0.18148205E-05 0.26362051E+03 0.75467711E-02 0.93380790E-01
        1 -1    0    0  502    0 0.00000000E+00 0.00000000E+00 0.15276095E+04 0.15276095E+04 0.32000000E+00 0.0000E+00 0.9000E+01
       -1 -1    0    0    0  501 -.00000000E+00 -.00000000E+00 -.17600363E+04 0.17600364E+04 0.32000000E+00 0.0000E+00 0.9000E+01
       25  1    1    2    0    0 -.20344121E+03 -.50692189E+03 0.20785388E+03 0.59765070E+03 0.12500000E+03 0.0000E+00 0.9000E+01
        2  1    1    2  502    0 0.15860493E+03 0.24716675E+03 0.10942577E+04 0.11329815E+04 0.32000000E+00 0.0000E+00 0.9000E+01
       -2  1    1    2    0  501 0.44836281E+02 0.25975514E+03 -.15345385E+04 0.15570137E+04 0.32000000E+00 0.0000E+00 0.9000E+01
#aMCatNLO 1  0  0  4  1 0.24871773D+02 0.00000000D+00  -5  6  0 0.00000000D+00 0.00000000D+00 0.00000000D+00 0.00000000D+00 0.00000000D+00
  <mgrwgt>
 0.1908503522D-02    8    2    0
 0.163970980202516D+04 0.000000000000000D+00 0.000000000000000D+00 0.163970980202516D+04
 0.163970980202516D+04 -.000000000000000D+00 -.000000000000000D+00 -.163970980202516D+04
 0.613926345457647D+03 -.203436129438824D+03 -.506930606336294D+03 0.250829940887146D+03
 0.121330452188139D+04 0.158595280869163D+03 0.247151716976398D+03 0.117723040586772D+04
 0.145218873671129D+04 0.448408485696608D+02 0.259778889359896D+03 -.142806034675486D+04
 0.000000000000000D+00 0.000000000000000D+00 0.000000000000000D+00 0.000000000000000D+00
 0.163970980202516D+04 0.000000000000000D+00 0.000000000000000D+00 0.163970980202516D+04
 0.163970980202516D+04 -.000000000000000D+00 -.000000000000000D+00 -.163970980202516D+04
 0.614024138669314D+03 -.203367151982005D+03 -.506823113245755D+03 0.251341950822384D+03
 0.109101133190234D+04 0.153998171589821D+03 0.243443747383943D+03 0.105229531565335D+04
 0.145104889522351D+04 0.450039316507632D+02 0.260033034775089D+03 -.142684980404070D+04
 0.123335238255156D+03 0.436504874142005D+01 0.334633108672255D+01 0.123212537564970D+03
0.100178770552D-02 0.000000000000D+00 0.000000000000D+00 0.815558933083D-04 0.000000000000D+00  6 1 -1 25 2 -2 21 0 0.23501684D+00 0.27077482D+00 0.31227361D+06 0.31227361D+06 0.31227361D+06 0.10832658D+01  1  2  2  3  6  4        2 0.286804316420D-04 0.100000000000D+01
0.123082083299D-03 0.000000000000D+00 -.384712856596D-05 0.815558933083D-04 0.000000000000D+00  6 1 -1 25 2 -2 21 2 0.23501684D+00 0.27077482D+00 0.31227361D+06 0.31227361D+06 0.31227361D+06 0.10832658D+01  1  2  3  3  6  4        2 0.413499440561D-05 0.100000000000D+01
-.738007145457D-03 0.000000000000D+00 0.000000000000D+00 0.815558933083D-04 0.000000000000D+00  6 1 -1 25 2 -2 21 2 0.23501684D+00 0.27077482D+00 0.31227361D+06 0.31227361D+06 0.31227361D+06 0.10832658D+01  1  2 15  3  6  4        2 -.247936607503D-04 0.100000000000D+01
0.485692089797D-09 0.000000000000D+00 0.000000000000D+00 0.815558933083D-04 0.000000000000D+00  6 1 -1 25 2 -2 21 2 0.23501684D+00 0.27077482D+00 0.31230639D+06 0.31230639D+06 0.31230639D+06 0.10832625D+01  1  2 12  3  6  4        2 0.163167541473D-10 0.100000000000D+01
0.675212644562D-01 0.000000000000D+00 0.000000000000D+00 0.815558933083D-04 0.000000000000D+00  6 1 -1 25 2 -2 21 2 0.23501684D+00 0.27077482D+00 0.31230639D+06 0.31230639D+06 0.31230639D+06 0.10832625D+01  1  2 12  3  6  4        2 0.226836692421D-02 0.100000000000D+01
-.206339703790D-01 0.000000000000D+00 0.000000000000D+00 0.815558933083D-04 0.000000000000D+00  6 1 -1 25 2 -2 21 2 0.23501684D+00 0.27077482D+00 0.31227361D+06 0.31227361D+06 0.31227361D+06 0.10832658D+01  1  2  4  3  6  4        2 -.693206921720D-03 0.100000000000D+01
-.906786177624D-01 0.000000000000D+00 0.000000000000D+00 0.815558933083D-04 0.000000000000D+00  6 1 -1 25 2 -2 21 2 0.23501684D+00 0.27077482D+00 0.31227361D+06 0.31227361D+06 0.31227361D+06 0.10832658D+01  1  2  5  3  6  4        2 -.304638633915D-02 0.100000000000D+01
0.100362132016D+00 0.000000000000D+00 -.000000000000D+00 0.815558933083D-04 0.000000000000D+00  6 1 -1 25 2 -2 21 2 0.23501684D+00 0.27077482D+00 0.31227361D+06 0.31227361D+06 0.31227361D+06 0.10832658D+01  1  2  6  3  6  4        2 0.337170807723D-02 0.100000000000D+01
  </mgrwgt>
  </event>
  <event>
  6     66 0.18148205E-05 0.26375026E+03 0.75467711E-02 0.90942136E-01
        1 -1    0    0  503    0 0.00000000E+00 0.00000000E+00 0.11171569E+04 0.11171569E+04 0.32000000E+00 0.0000E+00 0.9000E+01
       -1 -1    0    0    0  501 0.00000000E+00 0.00000000E+00 -.19503433E+04 0.19503433E+04 0.32000000E+00 0.0000E+00 0.9000E+01
       25  1    1    2    0    0 -.47660941E+03 0.19094834E+03 -.36638318E+03 0.64302367E+03 0.12500000E+03 0.0000E+00 0.9000E+01
        2  1    1    2  502    0 0.27480451E+03 -.44649521E+03 0.29373310E+03 0.60096151E+03 0.32000000E+00 0.0000E+00 0.9000E+01
       -2  1    1    2    0  501 -.11998538E+02 0.56058030E+02 -.12510985E+04 0.12524113E+04 0.32000000E+00 0.0000E+00 0.9000E+01
       21  1    1    2  503  502 0.21380344E+03 0.19948885E+03 0.49056216E+03 0.57110376E+03 0.75000000E+00 0.0000E+00 0.9000E+01
#aMCatNLO 2  0  0  1  2 0.29241702D+03 0.00000000D+00  -5  6  0 0.00000000D+00 0.00000000D+00 0.00000000D+00 0.00000000D+00 0.00000000D+00
  <mgrwgt>
 0.4035636547D-02    1    2    0
 0.104811464451583D+04 0.000000000000000D+00 0.000000000000000D+00 0.104811464451583D+04
 0.104811464451583D+04 0.000000000000000D+00 0.000000000000000D+00 -.104811464451583D+04
 0.503947766928309D+03 -.424164721395033D+03 0.239852007373119D+03 -.298940709002391D+02
 0.886679216742655D+03 0.365090455912257D+03 -.362228687529282D+03 0.722287595308104D+03
 0.705602305360688D+03 0.590742654827760D+02 0.122376680156163D+03 -.692393524407864D+03
 0.000000000000000D+00 0.000000000000000D+00 0.000000000000000D+00 0.000000000000000D+00
 0.201637000508155D+04 0.000000000000000D+00 0.000000000000000D+00 0.201637000508155D+04
 0.108057494708022D+04 0.000000000000000D+00 0.000000000000000D+00 -.108057494708022D+04
 0.529264115509481D+03 -.476601714744842D+03 0.190925781374129D+03 -.298940709002391D+02
 0.892499291908422D+03 0.274794580291725D+03 -.446479063745845D+03 0.722287595308104D+03
 0.694763214920636D+03 -.119963045740041D+02 0.560644347289989D+02 -.692393524407864D+03
 0.980418329823226D+03 0.213803439027120D+03 0.199488847642717D+03 0.935795058001334D+03
0.120436574550D+00 0.000000000000D+00 0.000000000000D+00 0.863173093916D-05 0.370546843202D-08  6 1 -1 25 2 -2 21 2 0.17187027D+00 0.30005278D+00 0.49170701D+06 0.49170701D+06 0.49170701D+06 0.10690241D+01  1  2  1  1  6  1        1 0.403563654669D-02 0.100000000000D+01
  </mgrwgt>
  </event>
  <event>
  6     66 -.18148205E-05 0.12171587E+03 0.75467711E-02 0.92779088E-01
        1 -1    0    0  502    0 0.00000000E+00 0.00000000E+00 0.26097403E+04 0.26097403E+04 0.32000000E+00 0.0000E+00 0.9000E+01
       -1 -1    0    0    0  501 0.00000000E+00 0.00000000E+00 -.81585040E+03 0.81585047E+03 0.32000000E+00 0.0000E+00 0.9000E+01
       25  1    1    2    0    0 0.41449647E+03 0.40835115E+03 0.79298197E+02 0.60039253E+03 0.12500000E+03 0.0000E+00 0.9000E+01
        2  1    1    2  503    0 -.29691893E+03 -.26834877E+03 0.19880130E+04 0.20278974E+04 0.32000000E+00 0.0000E+00 0.9000E+01
       -2  1    1    2    0  501 -.70257651E+02 -.10565951E+03 -.52443486E+03 0.53956658E+03 0.32000000E+00 0.0000E+00 0.9000E+01
       21  1    1    2  502  503 -.47319885E+02 -.34342876E+02 0.25101351E+03 0.25773426E+03 0.75000000E+00 0.0000E+00 0.9000E+01
#aMCatNLO 2  0  0  4  1 0.86585157D+01 0.00000000D+00  -5  6  0 0.00000000D+00 0.00000000D+00 0.00000000D+00 0.00000000D+00 0.00000000D+00
  <mgrwgt>
 -.4338626484D-02    3    2    0
 0.145916338871848D+04 0.000000000000000D+00 0.000000000000000D+00 0.145916338871848D+04
 0.145916338871848D+04 -.000000000000000D+00 -.000000000000000D+00 -.145916338871848D+04
 0.655936025915860D+03 0.414514027158505D+03 0.408381171641022D+03 -.275735398583927D+03
 0.130636877024934D+04 -.344254759243665D+03 -.302705659838427D+03 0.122329771851445D+04
 0.956021981271758D+03 -.702592679148397D+02 -.105675511802595D+03 -.947562319930519D+03
 0.000000000000000D+00 -.000000000000000D+00 0.000000000000000D+00 0.000000000000000D+00
 0.145916338871848D+04 0.000000000000000D+00 0.000000000000000D+00 0.145916338871848D+04
 0.145916338871848D+04 -.000000000000000D+00 -.000000000000000D+00 -.145916338871848D+04
 0.655890667694495D+03 0.414497058556837D+03 0.408366251028812D+03 -.275675101228120D+03
 0.115887032521573D+04 -.297046231393652D+03 -.268467197694093D+03 0.108750601416393D+04
 0.955939099079833D+03 -.702839993112463D+02 -.105697258295467D+03 -.947474437744471D+03
 0.147626685446905D+03 -.471668278519382D+02 -.342017950392508D+02 0.135643524808662D+03
-.199324923248D-08 0.000000000000D+00 0.000000000000D+00 0.856704400154D-04 0.000000000000D+00  6 1 -1 25 2 -2 21 2 0.40149851D+00 0.12551545D+00 0.34852869D+06 0.34852869D+06 0.34852869D+06 0.10797668D+01  1  2 13  3  6  4        2 -.194325213426D-09 0.100000000000D+01
-.211362476013D+00 0.000000000000D+00 0.000000000000D+00 0.856704400154D-04 0.000000000000D+00  6 1 -1 25 2 -2 21 2 0.40149851D+00 0.12551545D+00 0.34852869D+06 0.34852869D+06 0.34852869D+06 0.10797668D+01  1  2 13  3  6  4        2 -.206060825672D-01 0.100000000000D+01
0.166859946617D+00 0.000000000000D+00 0.000000000000D+00 0.856704400154D-04 0.439518276046D-05  6 1 -1 25 2 -2 21 2 0.40149851D+00 0.12551545D+00 0.34852869D+06 0.34852869D+06 0.34852869D+06 0.10797668D+01  1  2  1  3  6  4        2 0.162674562770D-01 0.100000000000D+01
  </mgrwgt>
  </event>
  <event>
  6     66 -.18148205E-05 0.16660688E+03 0.75467711E-02 0.93120234E-01
        1 -1    0    0  502    0 0.00000000E+00 0.00000000E+00 0.11990931E+04 0.11990931E+04 0.32000000E+00 0.0000E+00 0.9000E+01
       -1 -1    0    0    0  501 0.00000000E+00 0.00000000E+00 -.72722474E+03 0.72722481E+03 0.32000000E+00 0.0000E+00 0.9000E+01
       25  1    1    2    0    0 -.49554722E+03 0.14580577E+03 0.31746372E+03 0.61905943E+03 0.12500000E+03 0.0000E+00 0.9000E+01
        2  1    1    2  503    0 0.33047392E+03 -.22541339E+03 0.60061481E+03 0.72163873E+03 0.32000000E+00 0.0000E+00 0.9000E+01
       -2  1    1    2    0  501 0.13416218E+03 0.10723602E+03 -.49361295E+03 0.52264032E+03 0.32000000E+00 0.0000E+00 0.9000E+01
       21  1    1    2  502  503 0.30911120E+02 -.27628402E+02 0.47402746E+02 0.62979431E+02 0.75000000E+00 0.0000E+00 0.9000E+01
#aMCatNLO 2  0  0  4  1 0.89289402D+01 0.00000000D+00  -5  6  0 0.00000000D+00 0.00000000D+00 0.00000000D+00 0.00000000D+00 0.00000000D+00
  <mgrwgt>
 -.9177957414D-03    6    2    0
 0.933814885588322D+03 0.000000000000000D+00 0.000000000000000D+00 0.933814885588322D+03
 0.933814885588322D+03 -.000000000000000D+00 -.000000000000000D+00 -.933814885588322D+03
 0.558424317194875D+03 -.495596975431358D+03 0.145728411157997D+03 0.171346392314567D+03
 0.644949158913367D+03 0.361513923115708D+03 -.253132035732219D+03 0.470309763307771D+03
 0.664256295068402D+03 0.134083052315650D+03 0.107403624574222D+03 -.641656155622338D+03
 0.000000000000000D+00 0.000000000000000D+00 -.000000000000000D+00 0.000000000000000D+00
 0.933814885588322D+03 0.000000000000000D+00 0.000000000000000D+00 0.933814885588322D+03
 0.933814885588322D+03 -.000000000000000D+00 -.000000000000000D+00 -.933814885588322D+03
 0.558331180428511D+03 -.495458109975198D+03 0.145631177570676D+03 0.171527048647954D+03
 0.592482895357706D+03 0.330425574206583D+03 -.225373877387403D+03 0.437105864285836D+03
 0.664063403279360D+03 0.134248225194790D+03 0.107287970530295D+03 -.641441274776191D+03
 0.527522921110670D+02 0.307843105738245D+02 -.275452707135682D+02 0.328083618424007D+02
-.813448842533D-08 0.000000000000D+00 0.000000000000D+00 0.243170664454D-05 0.000000000000D+00  6 1 -1 25 2 -2 21 2 0.18447586D+00 0.11188074D+00 0.32744714D+06 0.32744714D+06 0.32744714D+06 0.10817501D+01  1  2 13  3  6  4        2 -.960911738212D-08 0.100000000000D+01
-.297332651378D-02 0.000000000000D+00 0.000000000000D+00 0.243170664454D-05 0.000000000000D+00  6 1 -1 25 2 -2 21 2 0.18447586D+00 0.11188074D+00 0.32744714D+06 0.32744714D+06 0.32744714D+06 0.10817501D+01  1  2 13  3  6  4        2 -.351233439552D-02 0.100000000000D+01
-.134182329193D-02 0.000000000000D+00 0.000000000000D+00 0.243170664454D-05 0.000000000000D+00  6 1 -1 25 2 -2 21 2 0.18447586D+00 0.11188074D+00 0.32753186D+06 0.32753186D+06 0.32753186D+06 0.10817419D+01  1  2  8  3  6  4        2 -.158502146562D-02 0.100000000000D+01
-.171312179582D-02 0.000000000000D+00 0.000000000000D+00 0.243170664454D-05 0.000000000000D+00  6 1 -1 25 2 -2 21 2 0.18447586D+00 0.11188074D+00 0.32753186D+06 0.32753186D+06 0.32753186D+06 0.10817419D+01  1  2  9  3  6  4        2 -.202361580391D-02 0.100000000000D+01
0.185895274114D-02 0.000000000000D+00 0.000000000000D+00 0.243170664454D-05 0.000000000000D+00  6 1 -1 25 2 -2 21 2 0.18447586D+00 0.11188074D+00 0.32753186D+06 0.32753186D+06 0.32753186D+06 0.10817419D+01  1  2 10  3  6  4        2 0.219587781491D-02 0.100000000000D+01
0.339234051903D-02 0.000000000000D+00 0.000000000000D+00 0.243170664454D-05 0.113853248792D-06  6 1 -1 25 2 -2 21 2 0.18447586D+00 0.11188074D+00 0.32744714D+06 0.32744714D+06 0.32744714D+06 0.10817501D+01  1  2  1  3  6  4        2 0.400730771784D-02 0.100000000000D+01
  </mgrwgt>
  </event>
  <event>
  6     66 -.18148205E-05 0.34351050E+02 0.75467711E-02 0.92656398E-01
        1 -1    0    0  503    0 0.00000000E+00 0.00000000E+00 0.62079650E+03 0.62079658E+03 0.32000000E+00 0.0000E+00 0.9000E+01
       -1 -1    0    0    0  501 0.00000000E+00 0.00000000E+00 -.14577722E+04 0.14577722E+04 0.32000000E+00 0.0000E+00 0.9000E+01
       25  1    1    2    0    0 -.15145167E+03 0.50699747E+03 -.55148934E+03 0.77443498E+03 0.12500000E+03 0.0000E+00 0.9000E+01
        2  1    1    2  502    0 0.15110684E+03 -.54902487E+03 0.22821454E+03 0.61346847E+03 0.32000000E+00 0.0000E+00 0.9000E+01
       -2  1    1    2    0  501 0.31273045E+02 0.38876658E+02 -.59838005E+03 0.60045664E+03 0.32000000E+00 0.0000E+00 0.9000E+01
       21  1    1    2  503  502 -.30928210E+02 0.31507440E+01 0.84679179E+02 0.90208686E+02 0.75000000E+00 0.0000E+00 0.9000E+01
#aMCatNLO 2  0  0  1  4 0.31088283D+02 0.00000000D+00  -5  6  0 0.00000000D+00 0.00000000D+00 0.00000000D+00 0.00000000D+00 0.00000000D+00
  <mgrwgt>
 -.1098633420D-02    3    2    0
 0.880789663868003D+03 0.000000000000000D+00 0.000000000000000D+00 0.880789663868003D+03
 0.880789663868003D+03 0.000000000000000D+00 0.000000000000000D+00 -.880789663868003D+03
 0.589152636482025D+03 -.161762930514683D+03 0.508044405719836D+03 -.217254379016401D+03
 0.808207157332793D+03 0.136886650312945D+03 -.547573658882596D+03 0.578466889482866D+03
 0.364219533921188D+03 0.248762802017376D+02 0.395292531627600D+02 -.361212510466465D+03
 0.000000000000000D+00 -.000000000000000D+00 0.000000000000000D+00 0.000000000000000D+00
 0.102535492082377D+04 0.000000000000000D+00 0.000000000000000D+00 0.102535492082377D+04
 0.882599759783591D+03 0.000000000000000D+00 0.000000000000000D+00 -.882599759783591D+03
 0.585495605323819D+03 -.151452029877080D+03 0.506994005189229D+03 -.217254379016401D+03
 0.811715722282820D+03 0.151106110452449D+03 -.549022235394041D+03 0.578466889482866D+03
 0.364642301174157D+03 0.312741291004476D+02 0.388774862498446D+02 -.361212510466465D+03
 0.146101051826563D+03 -.309282096758165D+02 0.315074395496775D+01 0.142755161040177D+03
-.562540925983D-08 0.000000000000D+00 0.000000000000D+00 0.167477535066D-04 0.000000000000D+00  6 1 -1 25 2 -2 21 2 0.95582805D-01 0.22381245D+00 0.35647869D+06 0.35647869D+06 0.35647869D+06 0.10790527D+01  1  2 13  1  6  1        1 -.230277363073D-08 0.100000000000D+01
-.951399079818D-02 0.000000000000D+00 0.000000000000D+00 0.167477535066D-04 0.000000000000D+00  6 1 -1 25 2 -2 21 2 0.96182669D-01 0.22381245D+00 0.35647869D+06 0.35647869D+06 0.35647869D+06 0.10790527D+01  1  2 13  1  6  1        1 -.385876868649D-02 0.100000000000D+01
0.679330959762D-02 0.000000000000D+00 0.000000000000D+00 0.167477535066D-04 0.757177297997D-07  6 1 -1 25 2 -2 21 2 0.95507059D-01 0.22427241D+00 0.35647869D+06 0.35647869D+06 0.35647869D+06 0.10790527D+01  1  2  1  1  6  1        1 0.276013756928D-02 0.100000000000D+01
  </mgrwgt>
  </event>
  <event>
  5     66 0.18148205E-05 0.17145395E+03 0.75467711E-02 0.91937666E-01
        1 -1    0    0  502    0 0.00000000E+00 0.00000000E+00 0.91712089E+03 0.91712095E+03 0.32000000E+00 0.0000E+00 0.9000E+01
       -1 -1    0    0    0  501 0.00000000E+00 0.00000000E+00 -.77991521E+03 0.77991527E+03 0.32000000E+00 0.0000E+00 0.9000E+01
       25  1    1    2    0    0 -.29699686E+03 -.55797266E+03 -.12054300E+03 0.65551220E+03 0.12500000E+03 0.0000E+00 0.9000E+01
        2  1    1    2  502    0 0.18096998E+03 0.33859776E+03 0.54198846E+03 0.66419136E+03 0.32000000E+00 0.0000E+00 0.9000E+01
       -2  1    1    2    0  501 0.11602688E+03 0.21937490E+03 -.28423978E+03 0.37733266E+03 0.32000000E+00 0.0000E+00 0.9000E+01
#aMCatNLO 1  0  0  1  4 0.31088283D+02 0.00000000D+00  -5  6  0 0.00000000D+00 0.00000000D+00 0.00000000D+00 0.00000000D+00 0.00000000D+00
  <mgrwgt>
 0.3731088860D-04    1    2    0
 0.845740287287005D+03 0.000000000000000D+00 0.000000000000000D+00 0.845740287287005D+03
 0.845740287287005D+03 0.000000000000000D+00 0.000000000000000D+00 -.845740287287005D+03
 0.667423421285458D+03 -.297002373352731D+03 -.557983330887826D+03 -.173991999685499D+03
 0.622343366271706D+03 0.180950885972256D+03 0.338562046328490D+03 0.489840569159110D+03
 0.401713787016846D+03 0.116051487380474D+03 0.219421284559336D+03 -.315848569473610D+03
 0.000000000000000D+00 -.000000000000000D+00 0.000000000000000D+00 0.000000000000000D+00
 0.155836090054858D+04 0.000000000000000D+00 0.000000000000000D+00 0.155836090054858D+04
 0.101462840492317D+04 0.000000000000000D+00 0.000000000000000D+00 -.101462840492317D+04
 0.820478684650613D+03 -.178849657849656D+03 -.771556774254819D+03 -.173991999685499D+03
 0.586414288420137D+03 0.276937039037830D+03 0.165056992818041D+03 0.489840569159110D+03
 0.378138829024130D+03 0.177978749872955D+03 0.107481253113621D+03 -.315848569473610D+03
 0.787957503376873D+03 -.276066131061129D+03 0.499018528323157D+03 0.543732495625418D+03
0.235521994257D-04 0.000000000000D+00 0.000000000000D+00 0.232855671505D-06 0.000000000000D+00  6 1 -1 25 2 -2 21 2 0.14109553D+00 0.11998696D+00 0.40733175D+06 0.40733175D+06 0.40733175D+06 0.10748594D+01  1  2 14  1  6  1        1 0.373108886019D-04 0.100000000000D+01
  </mgrwgt>
  </event>
  <event>
  5     66 0.18148205E-05 0.23250353E+02 0.75467711E-02 0.91099843E-01
        1 -1    0    0  502    0 0.00000000E+00 0.00000000E+00 0.14794004E+04 0.14794004E+04 0.32000000E+00 0.0000E+00 0.9000E+01
       -1 -1    0    0    0  501 0.00000000E+00 0.00000000E+00 -.43910251E+03 0.43910263E+03 0.32000000E+00 0.0000E+00 0.9000E+01
       25  1    1    2    0    0 -.52707210E+03 0.40039888E+03 0.87849370E+03 0.11070232E+04 0.12500000E+03 0.0000E+00 0.9000E+01
        2  1    1    2  502    0 0.13407233E+02 0.19094449E+02 0.14625381E+03 0.14810345E+03 0.32000000E+00 0.0000E+00 0.9000E+01
       -2  1    1    2    0  501 0.51366486E+03 -.41949333E+03 0.15550336E+02 0.66337633E+03 0.32000000E+00 0.0000E+00 0.9000E+01
#aMCatNLO 1  0  0  4  5 0.15384565D+02 0.00000000D+00  -5  6  0 0.00000000D+00 0.00000000D+00 0.00000000D+00 0.00000000D+00 0.00000000D+00
  <mgrwgt>
 0.1277812126D-02    7    2    0
 0.805982972858059D+03 0.000000000000000D+00 0.000000000000000D+00 0.805982972858059D+03
 0.805982972858059D+03 -.000000000000000D+00 -.000000000000000D+00 -.805982972858059D+03
 0.750803285504644D+03 -.527140492971581D+03 0.400530952112905D+03 0.331328282212334D+03
 0.815961206884312D+02 0.133606884318223D+02 0.190281609196002D+02 0.782134771509782D+02
 0.779566539523043D+03 0.513779804539759D+03 -.419559113032506D+03 -.409541759363313D+03
 0.000000000000000D+00 0.000000000000000D+00 0.000000000000000D+00 0.000000000000000D+00
 0.805982972858059D+03 0.000000000000000D+00 0.000000000000000D+00 0.805982972858059D+03
 0.805982972858059D+03 -.000000000000000D+00 -.000000000000000D+00 -.805982972858059D+03
 0.753640337373626D+03 -.526074917008933D+03 0.402048534907594D+03 0.337566164461628D+03
 0.664078520759050D+02 0.564660122777873D+01 0.293958951695845D+02 0.592790018395091D+02
 0.776080836257845D+03 0.514881647390352D+03 -.417989879293078D+03 -.403091570732796D+03
 0.158369200087423D+02 0.554666839080255D+01 -.134545507841001D+02 0.624640443165867D+01
0.729947300863D-03 0.000000000000D+00 0.000000000000D+00 0.119481708941D-05 0.000000000000D+00  6 1 -1 25 2 -2 21 0 0.22760007D+00 0.67554244D-01 0.46261498D+06 0.46261498D+06 0.46261498D+06 0.10709039D+01  1  2  2  3  6  4        2 0.135571600450D-02 0.100000000000D+01
0.278267518197D-03 0.000000000000D+00 -.280318983485D-05 0.119481708941D-05 0.000000000000D+00  6 1 -1 25 2 -2 21 2 0.22760007D+00 0.67554244D-01 0.46261498D+06 0.46261498D+06 0.46261498D+06 0.10709039D+01  1  2  3  3  6  4        2 0.592707910446D-03 0.100000000000D+01
-.476377909492D-03 0.000000000000D+00 0.000000000000D+00 0.119481708941D-05 0.000000000000D+00  6 1 -1 25 2 -2 21 2 0.22760007D+00 0.67554244D-01 0.46261498D+06 0.46261498D+06 0.46261498D+06 0.10709039D+01  1  2 15  3  6  4        2 -.101468168885D-02 0.100000000000D+01
0.506775863466D-08 0.000000000000D+00 0.000000000000D+00 0.119481708941D-05 0.000000000000D+00  6 1 -1 25 2 -2 21 2 0.22760007D+00 0.67554244D-01 0.47712641D+06 0.47712641D+06 0.47712641D+06 0.10699506D+01  1  2 12  3  6  4        2 0.107574157374D-07 0.100000000000D+01
-.358870161725D-03 0.000000000000D+00 0.000000000000D+00 0.119481708941D-05 0.000000000000D+00  6 1 -1 25 2 -2 21 2 0.22760007D+00 0.67554244D-01 0.46261498D+06 0.46261498D+06 0.46261498D+06 0.10709039D+01  1  2  4  3  6  4        2 -.764390989850D-03 0.100000000000D+01
-.884507559329D-03 0.000000000000D+00 0.000000000000D+00 0.119481708941D-05 0.000000000000D+00  6 1 -1 25 2 -2 21 2 0.22760007D+00 0.67554244D-01 0.46261498D+06 0.46261498D+06 0.46261498D+06 0.10709039D+01  1  2  5  3  6  4        2 -.188399505145D-02 0.100000000000D+01
0.140490835358D-02 0.000000000000D+00 -.000000000000D+00 0.119481708941D-05 0.000000000000D+00  6 1 -1 25 2 -2 21 2 0.22760007D+00 0.67554244D-01 0.46261498D+06 0.46261498D+06 0.46261498D+06 0.10709039D+01  1  2  6  3  6  4        2 0.299244518374D-02 0.100000000000D+01
  </mgrwgt>
  </event>
  <event>
  5     66 -.18148205E-05 0.12045745E+03 0.75467711E-02 0.92246689E-01
        1 -1    0    0  502    0 0.00000000E+00 0.00000000E+00 0.16035172E+04 0.16035172E+04 0.32000000E+00 0.0000E+00 0.9000E+01
       -1 -1    0    0    0  501 0.00000000E+00 0.00000000E+00 -.48458840E+03 0.48458850E+03 0.32000000E+00 0.0000E+00 0.9000E+01
       25  1    1    2    0    0 -.42603182E+03 0.25488532E+03 0.42982160E+03 0.66846185E+03 0.12500000E+03 0.0000E+00 0.9000E+01
        2  1    1    2  502    0 -.11991216E+03 0.11853237E+02 0.79395123E+03 0.80304301E+03 0.32000000E+00 0.0000E+00 0.9000E+01
       -2  1    1    2    0  501 0.54594398E+03 -.26673856E+03 -.10484400E+03 0.61660089E+03 0.32000000E+00 0.0000E+00 0.9000E+01
#aMCatNLO 1  0  0  4  1 0.49660084D+01 0.00000000D+00  -5  6  0 0.00000000D+00 0.00000000D+00 0.00000000D+00 0.00000000D+00 0.00000000D+00
  <mgrwgt>
 -.6413624485D-02    9    2    0
 0.881502114537353D+03 0.000000000000000D+00 0.000000000000000D+00 0.881502114537353D+03
 0.881502114537353D+03 -.000000000000000D+00 -.000000000000000D+00 -.881502114537353D+03
 0.519059271287608D+03 -.426145232169554D+03 0.254932869152586D+03 0.848940541758363D+02
 0.447082094659134D+03 -.119873224672237D+03 0.118493890068231D+02 0.430548953490359D+03
 0.796862863127965D+03 0.546018456841791D+03 -.266782258159409D+03 -.515443007666195D+03
 0.000000000000000D+00 0.000000000000000D+00 0.000000000000000D+00 0.000000000000000D+00
 0.881502114537353D+03 0.000000000000000D+00 0.000000000000000D+00 0.881502114537353D+03
 0.881502114537353D+03 -.000000000000000D+00 -.000000000000000D+00 -.881502114537353D+03
 0.519073924560576D+03 -.426155288668120D+03 0.254933863230820D+03 0.849301741262707D+02
 0.141771785229322D+03 -.427628761837294D+02 0.339271902291491D+01 0.135126107637405D+03
 0.796815907819233D+03 0.546003018718495D+03 -.266780732111128D+03 -.515387558521090D+03
 0.305342611465576D+03 -.770848538666445D+02 0.845414985739238D+01 0.295331276757414D+03
0.306176746684D-04 0.000000000000D+00 0.000000000000D+00 0.140130043523D-05 0.000000000000D+00  6 1 -1 25 2 -2 21 0 0.24669497D+00 0.74552071D-01 0.38454586D+06 0.38454586D+06 0.38454586D+06 0.10766634D+01  1  2  2  3  6  4        2 0.389811454355D-04 0.100000000000D+01
0.482992874692D-05 0.000000000000D+00 -.117579932546D-06 0.140130043523D-05 0.000000000000D+00  6 1 -1 25 2 -2 21 2 0.24669497D+00 0.74552071D-01 0.38454586D+06 0.38454586D+06 0.38454586D+06 0.10766634D+01  1  2  3  3  6  4        2 0.712825121386D-05 0.100000000000D+01
-.219948538646D-04 0.000000000000D+00 0.000000000000D+00 0.140130043523D-05 0.000000000000D+00  6 1 -1 25 2 -2 21 2 0.24669497D+00 0.74552071D-01 0.38454586D+06 0.38454586D+06 0.38454586D+06 0.10766634D+01  1  2 15  3  6  4        2 -.324611090502D-04 0.100000000000D+01
0.101433502086D-07 0.000000000000D+00 0.000000000000D+00 0.140130043523D-05 0.000000000000D+00  6 1 -1 25 2 -2 21 2 0.24669497D+00 0.74552071D-01 0.38453419D+06 0.38453419D+06 0.38453419D+06 0.10766643D+01  1  2 12  3  6  4        2 0.149701185854D-07 0.100000000000D+01
0.202940309867D-02 0.000000000000D+00 0.000000000000D+00 0.140130043523D-05 0.000000000000D+00  6 1 -1 25 2 -2 21 2 0.24669497D+00 0.74552071D-01 0.38453419D+06 0.38453419D+06 0.38453419D+06 0.10766643D+01  1  2 12  3  6  4        2 0.299510560318D-02 0.100000000000D+01
-.144443858018D-01 0.000000000000D+00 0.000000000000D+00 0.140130043523D-05 0.000000000000D+00  6 1 -1 25 2 -2 21 2 0.24669497D+00 0.74552071D-01 0.38454586D+06 0.38454586D+06 0.38454586D+06 0.10766634D+01  1  2  4  3  6  4        2 -.213177493955D-01 0.100000000000D+01
-.531615769846D-02 0.000000000000D+00 0.000000000000D+00 0.140130043523D-05 0.000000000000D+00  6 1 -1 25 2 -2 21 2 0.24669497D+00 0.74552071D-01 0.38454586D+06 0.38454586D+06 0.38454586D+06 0.10766634D+01  1  2  5  3  6  4        2 -.784585229984D-02 0.100000000000D+01
0.966126629970D-02 0.000000000000D+00 -.000000000000D+00 0.140130043523D-05 0.000000000000D+00  6 1 -1 25 2 -2 21 2 0.24669497D+00 0.74552071D-01 0.38454586D+06 0.38454586D+06 0.38454586D+06 0.10766634D+01  1  2  6  3  6  4        2 0.142585816141D-01 0.100000000000D+01
0.371488059491D-02 0.000000000000D+00 0.000000000000D+00 0.140130043523D-05 0.693731209628D-07  6 1 -1 25 2 -2 21 2 0.24669497D+00 0.74552071D-01 0.38453419D+06 0.38453419D+06 0.38453419D+06 0.10766643D+01  1  2 11  3  6  4        2 0.548262673503D-02 0.100000000000D+01
  </mgrwgt>
  </event>
  <event>
  6     66 0.18148205E-05 0.14528260E+03 0.75467711E-02 0.93476417E-01
        1 -1    0    0  502    0 0.00000000E+00 0.00000000E+00 0.38839098E+03 0.38839112E+03 0.32000000E+00 0.0000E+00 0.9000E+01
       -1 -1    0    0    0  501 -.00000000E+00 -.00000000E+00 -.16301802E+04 0.16301803E+04 0.32000000E+00 0.0000E+00 0.9000E+01
       25  1    1    2    0    0 -.35057289E+03 -.41820955E+03 -.47299070E+03 0.73290230E+03 0.12500000E+03 0.0000E+00 0.9000E+01
        2  1    1    2  503    0 0.73285820E+02 0.11963439E+03 0.17150728E+03 0.22158080E+03 0.32000000E+00 0.0000E+00 0.9000E+01
       -2  1    1    2    0  501 0.27282735E+03 0.29210581E+03 -.96160861E+03 0.10413702E+04 0.32000000E+00 0.0000E+00 0.9000E+01
       21  1    1    2  502  503 0.44597205E+01 0.64693442E+01 0.21302791E+02 0.22718119E+02 0.75000000E+00 0.0000E+00 0.9000E+01
#aMCatNLO 2  0  0  4  1 0.70122100D+01 0.00000000D+00  -5  6  0 0.00000000D+00 0.00000000D+00 0.00000000D+00 0.00000000D+00 0.00000000D+00
  <mgrwgt>
 0.6138590488D-02    6    2    0
 0.795705639690631D+03 0.000000000000000D+00 0.000000000000000D+00 0.795705639690631D+03
 0.795705639690631D+03 -.000000000000000D+00 -.000000000000000D+00 -.795705639690631D+03
 0.560776266050524D+03 -.350746190179868D+03 -.418390684539909D+03 -.277734716969749D+02
 0.459714613766610D+03 0.777454234216872D+02 0.126103549460244D+03 0.435190843264302D+03
 0.570920399564127D+03 0.273000766758180D+03 0.292287135079665D+03 -.407417371567327D+03
 0.000000000000000D+00 0.000000000000000D+00 0.000000000000000D+00 0.000000000000000D+00
 0.795705639690631D+03 0.000000000000000D+00 0.000000000000000D+00 0.795705639690631D+03
 0.795705639690631D+03 -.000000000000000D+00 -.000000000000000D+00 -.795705639690631D+03
 0.560699825611706D+03 -.350709994735594D+03 -.418331975309239D+03 -.275708626529602D+02
 0.414753770376338D+03 0.732678245459305D+02 0.119606230104970D+03 0.390316366102898D+03
 0.570821455342011D+03 0.273037616276411D+03 0.292346905222270D+03 -.407211101253181D+03
 0.451362280512063D+02 0.440455391325221D+01 0.637883998199883D+01 0.444655978032435D+02
-.860768603751D-07 0.000000000000D+00 0.000000000000D+00 0.188851254883D-05 0.000000000000D+00  6 1 -1 25 2 -2 21 2 0.59752472D-01 0.25079697D+00 0.30694760D+06 0.30694760D+06 0.30694760D+06 0.10838170D+01  1  2 13  3  6  4        2 -.416630842563D-07 0.100000000000D+01
-.798685030875D-02 0.000000000000D+00 0.000000000000D+00 0.188851254883D-05 0.000000000000D+00  6 1 -1 25 2 -2 21 2 0.59752472D-01 0.25079697D+00 0.30694760D+06 0.30694760D+06 0.30694760D+06 0.10838170D+01  1  2 13  3  6  4        2 -.386581034561D-02 0.100000000000D+01
-.151398045190D-01 0.000000000000D+00 0.000000000000D+00 0.188851254883D-05 0.000000000000D+00  6 1 -1 25 2 -2 21 2 0.59752472D-01 0.25079697D+00 0.30701735D+06 0.30701735D+06 0.30701735D+06 0.10838097D+01  1  2  8  3  6  4        2 -.732778669078D-02 0.100000000000D+01
-.483816187068D-02 0.000000000000D+00 0.000000000000D+00 0.188851254883D-05 0.000000000000D+00  6 1 -1 25 2 -2 21 2 0.59752472D-01 0.25079697D+00 0.30701735D+06 0.30701735D+06 0.30701735D+06 0.10838097D+01  1  2  9  3  6  4        2 -.234170910987D-02 0.100000000000D+01
0.533638363171D-02 0.000000000000D+00 0.000000000000D+00 0.188851254883D-05 0.000000000000D+00  6 1 -1 25 2 -2 21 2 0.59752472D-01 0.25079697D+00 0.30701735D+06 0.30701735D+06 0.30701735D+06 0.10838097D+01  1  2 10  3  6  4        2 0.258285243408D-02 0.100000000000D+01
0.353105642016D-01 0.000000000000D+00 0.000000000000D+00 0.188851254883D-05 0.702821082309D-06  6 1 -1 25 2 -2 21 2 0.59752472D-01 0.25079697D+00 0.30694760D+06 0.30694760D+06 0.30694760D+06 0.10838170D+01  1  2  1  3  6  4        2 0.170910858628D-01 0.100000000000D+01
  </mgrwgt>
  </event>
  <event>
  6     66 0.18148205E-05 0.55609655E+02 0.75467711E-02 0.92633262E-01
        1 -1    0    0  502    0 0.00000000E+00 0.00000000E+00 0.17195613E+04 0.17195613E+04 0.32000000E+00 0.0000E+00 0.9000E+01
       -1 -1    0    0    0  501 0.00000000E+00 0.00000000E+00 -.21070447E+03 0.21070471E+03 0.32000000E+00 0.0000E+00 0.9000E+01
       25  1    1    2    0    0 0.29767335E+03 -.49654618E+03 0.83144310E+03 0.10208282E+04 0.12500000E+03 0.0000E+00 0.9000E+01
        2  1    1    2  502    0 -.19950653E+03 0.43351088E+03 0.56502890E+03 0.73958928E+03 0.32000000E+00 0.0000E+00 0.9000E+01
       -2  1    1    2    0  503 -.67983607E+02 0.68466413E+02 0.89132748E+02 0.13135513E+03 0.32000000E+00 0.0000E+00 0.9000E+01
       21  1    1    2  503  501 -.30183212E+02 -.54311158E+01 0.23252029E+02 0.38493411E+02 0.75000000E+00 0.0000E+00 0.9000E+01
#aMCatNLO 2  0  0  5  2 0.24612263D+01 0.00000000D+00  -5  6  0 0.00000000D+00 0.00000000D+00 0.00000000D+00 0.00000000D+00 0.00000000D+00
  <mgrwgt>
 0.4832480713D-02    1    2    0
 0.601929816628635D+03 0.000000000000000D+00 0.000000000000000D+00 0.601929816628635D+03
 0.601929816628635D+03 -.000000000000000D+00 -.000000000000000D+00 -.601929816628635D+03
 0.599155895108650D+03 0.301833647853904D+03 -.499228609997840D+03 0.550457139682806D+02
 0.474336615596421D+03 -.196196244792646D+03 0.431400643619077D+03 -.198932930852961D+02
 0.130367122552198D+03 -.105637403061258D+03 0.678279663787639D+02 -.351524208829845D+02
 0.000000000000000D+00 0.000000000000000D+00 0.000000000000000D+00 -.000000000000000D+00
 0.601929816628635D+03 0.000000000000000D+00 0.000000000000000D+00 0.601929816628635D+03
 0.601929816628635D+03 -.000000000000000D+00 -.000000000000000D+00 -.601929816628635D+03
 0.594687398632411D+03 0.297649653393076D+03 -.496542138848475D+03 0.536534274296405D+02
 0.477717557452824D+03 -.199532854720707D+03 0.433543023680127D+03 -.210035997864703D+02
 0.986576179613237D+02 -.677127186676185D+02 0.684198501443226D+02 -.216110485324260D+02
 0.327970592107103D+02 -.304040800047507D+02 -.542073497597437D+01 -.110387791107443D+02
0.844455270249D-03 0.000000000000D+00 0.000000000000D+00 0.889201110117D-08 0.558503028771D-08  6 1 -1 25 2 -2 21 2 0.26454791D+00 0.32416093D-01 0.35800047D+06 0.35800047D+06 0.35800047D+06 0.10789179D+01  1  2  1  4  6  5       -2 0.483248071274D-02 0.100000000000D+01
  </mgrwgt>
  </event>
  <event>
  6     66 0.18148205E-05 0.20711298E+03 0.75467711E-02 0.89811630E-01
        1 -1    0    0  502    0 0.00000000E+00 0.00000000E+00 0.14982583E+04 0.14982583E+04 0.32000000E+00 0.0000E+00 0.9000E+01
       -1 -1    0    0    0  501 0.00000000E+00 0.00000000E+00 -.11691288E+04 0.11691288E+04 0.32000000E+00 0.0000E+00 0.9000E+01
       25  1    1    2    0    0 -.16620111E+03 -.72608834E+03 0.65783627E+03 0.10015990E+04 0.12500000E+03 0.0000E+00 0.9000E+01
        2  1    1    2  502    0 -.14934062E+02 0.15967900E+02 0.50820392E+03 0.50867409E+03 0.32000000E+00 0.0000E+00 0.9000E+01
       -2  1    1    2    0  503 0.25765131E+03 0.47866546E+03 -.48182463E+03 0.72640202E+03 0.32000000E+00 0.0000E+00 0.9000E+01
       21  1    1    2  503  501 -.76516136E+02 0.23145498E+03 -.35508609E+03 0.43071200E+03 0.75000000E+00 0.0000E+00 0.9000E+01
#aMCatNLO 2  0  0  5  2 0.80575371D+00 0.00000000D+00  -5  6  0 0.00000000D+00 0.00000000D+00 0.00000000D+00 0.00000000D+00 0.00000000D+00
  <mgrwgt>
 0.1734507125D-02    1    2    0
 0.132350179119931D+04 0.000000000000000D+00 0.000000000000000D+00 0.132350179119931D+04
 0.132350179119931D+04 -.000000000000000D+00 -.000000000000000D+00 -.132350179119931D+04
 0.941322310059925D+03 -.168353291297439D+03 -.734499879467357D+03 0.550117976245381D+03
 0.454720847475917D+03 -.159561853906263D+02 0.119292915984666D+02 0.454284207604618D+03
 0.125096042486278D+04 0.184309476688065D+03 0.722570587868890D+03 -.100440218385000D+04
 0.000000000000000D+00 0.000000000000000D+00 0.000000000000000D+00 -.000000000000000D+00
 0.132350179119931D+04 0.000000000000000D+00 0.000000000000000D+00 0.132350179119931D+04
 0.132350179119931D+04 -.000000000000000D+00 -.000000000000000D+00 -.132350179119931D+04
 0.927672920917527D+03 -.166226269713306D+03 -.726161061170683D+03 0.538526683368916D+03
 0.449210074710246D+03 -.149274612129570D+02 0.159623226024639D+02 0.448678132273076D+03
 0.791713072546018D+03 0.257659913255797D+03 0.478591482629415D+03 -.575648461385809D+03
 0.478407514224832D+03 -.765061823295339D+02 0.231607255938804D+03 -.411556354256182D+03
0.972559719310D-02 0.000000000000D+00 0.000000000000D+00 0.714396181264D-04 0.986679304084D-08  6 1 -1 25 2 -2 21 2 0.23050128D+00 0.17986597D+00 0.61204927D+06 0.61204927D+06 0.61204927D+06 0.10623588D+01  1  2  1  4  6  5       -2 0.173450712454D-02 0.100000000000D+01
  </mgrwgt>
  </event>
  <event>
  5     66 0.18148205E-05 0.13974688E+02 0.75467711E-02 0.85499292E-01
        1 -1    0    0  502    0 0.00000000E+00 0.00000000E+00 0.21930131E+04 0.21930131E+04 0.32000000E+00 0.0000E+00 0.9000E+01
       -1 -1    0    0    0  501 0.00000000E+00 0.00000000E+00 -.99007634E+03 0.99007639E+03 0.32000000E+00 0.0000E+00 0.9000E+01
       25  1    1    2    0    0 -.35783933E+01 -.61207879E+03 0.68316390E+03 0.92573817E+03 0.12500000E+03 0.0000E+00 0.9000E+01
        2  1    1    2  502    0 -.10388932E+02 0.61166984E+03 0.13211177E+04 0.14558846E+04 0.32000000E+00 0.0000E+00 0.9000E+01
       -2  1    1    2    0  501 0.13967326E+02 0.40894470E+00 -.80134484E+03 0.80146672E+03 0.32000000E+00 0.0000E+00 0.9000E+01
#aMCatNLO 1  0  0  5  2 0.17356534D+02 0.00000000D+00  -5  6  0 0.00000000D+00 0.00000000D+00 0.00000000D+00 0.00000000D+00 0.00000000D+00
  <mgrwgt>
 0.2144046548D-01    3    2    0
 0.147351637247324D+04 0.000000000000000D+00 0.000000000000000D+00 0.147351637247324D+04
 0.147351637247324D+04 -.000000000000000D+00 -.000000000000000D+00 -.147351637247324D+04
 0.721054741820562D+03 -.358062987388568D+01 -.612028158206421D+03 0.360143934218085D+03
 0.103315358953829D+04 -.103880710979134D+02 0.611619140587997D+03 0.832598615433104D+03
 0.119282441358763D+04 0.139687009718013D+02 0.409017618423783D+00 -.119274254965119D+04
 0.000000000000000D+00 0.000000000000000D+00 0.000000000000000D+00 0.000000000000000D+00
 0.147351637247324D+04 0.000000000000000D+00 0.000000000000000D+00 0.147351637247324D+04
 0.147351637247324D+04 -.000000000000000D+00 -.000000000000000D+00 -.147351637247324D+04
 0.650072174743027D+03 -.147296218444621D+01 -.611966443575941D+03 0.180176953838573D+03
 0.847007110403989D+03 -.749792729696319D+01 0.611703766906275D+03 0.585818510900637D+03
 0.640402259667255D+03 -.597324894224826D+03 -.208698454921055D+02 -.229961897877370D+03
 0.809551200132212D+03 0.606295783706238D+03 0.211325221617713D+02 -.536033566861839D+03
0.144850200871D+00 0.000000000000D+00 0.000000000000D+00 0.302042634401D-03 0.000000000000D+00  6 1 -1 25 2 -2 21 0 0.33738664D+00 0.15231944D+00 0.39084690D+06 0.39084690D+06 0.39084690D+06 0.10761531D+01  1  2  2  4  6  5       -2 0.137109566959D-01 0.100000000000D+01
0.170617778934D+00 0.000000000000D+00 -.556262911277D-03 0.302042634401D-03 0.000000000000D+00  6 1 -1 25 2 -2 21 2 0.33738664D+00 0.15231944D+00 0.39084690D+06 0.39084690D+06 0.39084690D+06 0.10761531D+01  1  2  3  4  6  5       -2 0.187034218523D-01 0.100000000000D+01
-.100107065408D+00 0.000000000000D+00 0.000000000000D+00 0.302042634401D-03 0.000000000000D+00  6 1 -1 25 2 -2 21 2 0.33738664D+00 0.15231944D+00 0.39084690D+06 0.39084690D+06 0.39084690D+06 0.10761531D+01  1  2 15  4  6  5       -2 -.109739130729D-01 0.100000000000D+01
  </mgrwgt>
  </event>
  <event>
  5     66 0.18148205E-05 0.89326205E+02 0.75467711E-02 0.88283889E-01
        1 -1    0    0  502    0 0.00000000E+00 0.00000000E+00 0.27796663E+04 0.27796664E+04 0.32000000E+00 0.0000E+00 0.9000E+01
       -1 -1    0    0    0  501 0.00000000E+00 0.00000000E+00 -.49024428E+03 0.49024438E+03 0.32000000E+00 0.0000E+00 0.9000E+01
       25  1    1    2    0    0 -.15508830E+02 -.74124350E+03 0.53686139E+03 0.92386558E+03 0.12500000E+03 0.0000E+00 0.9000E+01
        2  1    1    2  502    0 0.13326063E+02 0.88341025E+02 0.16875468E+04 0.16899100E+04 0.32000000E+00 0.0000E+00 0.9000E+01
       -2  1    1    2    0  501 0.21827667E+01 0.65290247E+03 0.65013904E+02 0.65613514E+03 0.32000000E+00 0.0000E+00 0.9000E+01
#aMCatNLO 1  0  0  1  4 0.21900160D+01 0.00000000D+00  -5  6  0 0.00000000D+00 0.00000000D+00 0.00000000D+00 0.00000000D+00 0.00000000D+00
  <mgrwgt>
 0.9125221663D-03    7    2    0
 0.116735415597297D+04 0.000000000000000D+00 0.000000000000000D+00 0.116735415597297D+04
 0.116735415597297D+04 0.000000000000000D+00 0.000000000000000D+00 -.116735415597297D+04
 0.767540970465169D+03 -.155082325747118D+02 -.741320519274112D+03 -.153940000546264D+03
 0.711901546591750D+03 0.133239344368855D+02 0.883269133029291D+02 0.706275188009054D+03
 0.855265794889027D+03 0.218429813782633D+01 0.652993605971183D+03 -.552335187462790D+03
 0.000000000000000D+00 0.000000000000000D+00 -.000000000000000D+00 0.000000000000000D+00
 0.144757906404781D+04 0.000000000000000D+00 0.000000000000000D+00 0.144757906404781D+04
 0.122716038461209D+04 0.000000000000000D+00 0.000000000000000D+00 -.122716038461209D+04
 0.701669538825386D+03 -.455975107629642D+02 -.671519534309664D+03 -.153940000546264D+03
 0.723590643328325D+03 -.160747960829673D+02 0.156525968599353D+03 0.706275188009054D+03
 0.921979589580661D+03 -.342135022072843D+02 0.737429074935672D+03 -.552335187462790D+03
 0.327499676925526D+03 0.958858090532157D+02 -.222435509225361D+03 0.220418679435724D+03
0.157171485845D-02 0.000000000000D+00 0.000000000000D+00 0.697919377927D-05 0.000000000000D+00  6 1 -1 25 2 -2 21 0 0.42764099D+00 0.75422206D-01 0.55820973D+06 0.55820973D+06 0.55820973D+06 0.10651465D+01  1  2  2  1  6  1        1 0.298978871135D-03 0.100000000000D+01
0.510873287387D-03 0.000000000000D+00 -.603579889849D-05 0.697919377927D-05 0.000000000000D+00  6 1 -1 25 2 -2 21 2 0.42764099D+00 0.75422206D-01 0.55820973D+06 0.55820973D+06 0.55820973D+06 0.10651465D+01  1  2  3  1  6  1        1 0.110255092325D-03 0.100000000000D+01
-.995733436454D-03 0.000000000000D+00 0.000000000000D+00 0.697919377927D-05 0.000000000000D+00  6 1 -1 25 2 -2 21 2 0.42764099D+00 0.75422206D-01 0.55820973D+06 0.55820973D+06 0.55820973D+06 0.10651465D+01  1  2 15  1  6  1        1 -.214896109618D-03 0.100000000000D+01
-.621303149829D-04 0.000000000000D+00 0.000000000000D+00 0.697919377927D-05 0.000000000000D+00  6 1 -1 25 2 -2 21 2 0.42764099D+00 0.75422206D-01 0.55820973D+06 0.55820973D+06 0.55820973D+06 0.10651465D+01  1  2  4  1  6  1        1 -.134087723585D-04 0.100000000000D+01
-.451936828538D-02 0.000000000000D+00 -.112447274636D-02 0.697919377927D-05 0.000000000000D+00  6 1 -1 25 2 -2 21 2 0.53662930D+00 0.75422206D-01 0.55820973D+06 0.55820973D+06 0.55820973D+06 0.10651465D+01  1  2  5  1  6  1        1 -.277811542227D-03 0.100000000000D+01
0.468184845324D-02 0.000000000000D+00 0.109610477562D-02 0.697919377927D-05 0.000000000000D+00  6 1 -1 25 2 -2 21 2 0.42764099D+00 0.75422206D-01 0.55820973D+06 0.55820973D+06 0.55820973D+06 0.10651465D+01  1  2  6  1  6  1        1 0.101042204830D-02 0.100000000000D+01
-.126310342100D-03 0.000000000000D+00 -.354237400176D-04 0.697919377927D-05 0.000000000000D+00  6 21 -1 25 2 -2 -1 2 0.53662930D+00 0.75422206D-01 0.55820973D+06 0.55820973D+06 0.55820973D+06 0.10651465D+01  1  2  5  5  6  1        1 -.101742126308D-05 0.100000000000D+01
  </mgrwgt>
  </event>
  <event>
  6     66 0.18148205E-05 0.21821367E+02 0.75467711E-02 0.92550792E-01
        1 -1    0    0  502    0 0.00000000E+00 0.00000000E+00 0.23995679E+04 0.23995679E+04 0.32000000E+00 0.0000E+00 0.9000E+01
       21 -1    0    0  503  501 0.00000000E+00 0.00000000E+00 -.41979996E+03 0.41980063E+03 0.75000000E+00 0.0000E+00 0.9000E+01
       25  1    1    2    0    0 -.51827416E+03 0.20948198E+03 0.18379090E+03 0.60157701E+03 0.12500000E+03 0.0000E+00 0.9000E+01
        2  1    1    2  502    0 -.36053072E+01 -.16544913E+02 0.15369795E+04 0.15370728E+04 0.32000000E+00 0.0000E+00 0.9000E+01
        1  1    1    2  503    0 -.30195718E+02 0.23445218E+01 -.15450090E+02 0.34001263E+02 0.32000000E+00 0.0000E+00 0.9000E+01
       -2  1    1    2    0  501 0.55207518E+03 -.19528159E+03 0.27444766E+03 0.64671750E+03 0.32000000E+00 0.0000E+00 0.9000E+01
#aMCatNLO 2  0  0  2  5 0.30286601D+02 0.00000000D+00  -5  6  0 0.00000000D+00 0.00000000D+00 0.00000000D+00 0.00000000D+00 0.00000000D+00
  <mgrwgt>
 0.1434515309D-02    1    2    0
 0.971655634957363D+03 0.000000000000000D+00 0.000000000000000D+00 0.971655634957363D+03
 0.971655634957363D+03 0.000000000000000D+00 0.000000000000000D+00 -.971655634957363D+03
 0.681898957722189D+03 -.528883235184138D+03 0.210328234178911D+03 -.354126737187336D+03
 0.625004772171081D+03 -.133147731086693D+02 -.157883398533273D+02 0.624663437683338D+03
 0.000000000000000D+00 -.000000000000000D+00 0.000000000000000D+00 -.000000000000000D+00
 0.636407540021455D+03 0.542198008292808D+03 -.194539894325584D+03 -.270536700496002D+03
 0.975544227457146D+03 0.000000000000000D+00 0.000000000000000D+00 0.975544227457146D+03
 0.103259149659860D+04 0.000000000000000D+00 0.000000000000000D+00 -.103259149659860D+04
 0.673510078454887D+03 -.518353510797373D+03 0.209510662338214D+03 -.354126737187336D+03
 0.624892831695334D+03 -.360473213276387D+01 -.165422680457777D+02 0.624663437683338D+03
 0.645884594005141D+02 -.301957180504011D+02 0.234452183940017D+01 -.570472691414507D+02
 0.645144354505007D+03 0.552153960980538D+03 -.195312916131836D+03 -.270536700496002D+03
0.305926391161D-03 0.000000000000D+00 0.000000000000D+00 0.205245234346D-04 0.152051402956D-08  6 1 21 25 2 1 -2 2 0.36916420D+00 0.64584636D-01 0.36348440D+06 0.36348440D+06 0.36348440D+06 0.10784376D+01  1  2  1  6  5  2       -1 0.143451530854D-02 0.100000000000D+01
  </mgrwgt>
  </event>
  <event>
  5     66 0.18148205E-05 0.11294902E+03 0.75467711E-02 0.93549514E-01
        1 -1    0    0  502    0 0.00000000E+00 0.00000000E+00 0.18491228E+04 0.18491228E+04 0.32000000E+00 0.0000E+00 0.9000E+01
       -1 -1    0    0    0  501 0.00000000E+00 0.00000000E+00 -.29618351E+03 0.29618369E+03 0.32000000E+00 0.0000E+00 0.9000E+01
       25  1    1    2    0    0 0.49995804E+03 -.15385882E+03 0.30254169E+03 0.61707946E+03 0.12500000E+03 0.0000E+00 0.9000E+01
        2  1    1    2  502    0 -.98598898E+02 0.55157404E+02 0.10721934E+04 0.10781293E+04 0.32000000E+00 0.0000E+00 0.9000E+01
       -2  1    1    2    0  501 -.40135914E+03 0.98701419E+02 0.17820422E+03 0.45009774E+03 0.32000000E+00 0.0000E+00 0.9000E+01
#aMCatNLO 1  0  0  1  4 0.29550861D+02 0.00000000D+00  -5  6  0 0.00000000D+00 0.00000000D+00 0.00000000D+00 0.00000000D+00 0.00000000D+00
  <mgrwgt>
 0.5207072314D-03   11    2    0
 0.740053990564387D+03 0.000000000000000D+00 0.000000000000000D+00 0.740053990564387D+03
 0.740053990564387D+03 0.000000000000000D+00 0.000000000000000D+00 -.740053990564387D+03
 0.577009547047218D+03 0.500028311472650D+03 -.153873708967104D+03 -.208829085134599D+03
 0.437602466533973D+03 -.985733968730085D+02 0.551431384892637D+02 0.422774689903602D+03
 0.465495967547583D+03 -.401454914599642D+03 0.987305704778408D+02 -.213945604769003D+03
 0.000000000000000D+00 0.000000000000000D+00 -.000000000000000D+00 0.000000000000000D+00
 0.107195642610858D+04 0.000000000000000D+00 0.000000000000000D+00 0.107195642610858D+04
 0.740859530164911D+03 0.000000000000000D+00 0.000000000000000D+00 -.740859530164911D+03
 0.566809376009973D+03 0.489780279313710D+03 -.148840719999758D+03 -.208829085134599D+03
 0.439941511525040D+03 -.106435741800820D+03 0.590044744672759D+02 0.422774689903602D+03
 0.473652060718709D+03 -.409869200289159D+03 0.102862974278554D+03 -.213945604769003D+03
 0.332413008019767D+03 0.265246627762690D+02 -.130267287460713D+02 0.331096895943667D+03
0.444698926785D-05 0.000000000000D+00 0.000000000000D+00 0.138416060903D-05 0.000000000000D+00  6 1 -1 25 2 -2 21 0 0.28448045D+00 0.45566710D-01 0.28316268D+06 0.28316268D+06 0.28316268D+06 0.10864127D+01  1  2  2  1  6  1        1 0.100045933101D-04 0.100000000000D+01
0.706587026630D-06 0.000000000000D+00 -.170776097077D-07 0.138416060903D-05 0.000000000000D+00  6 1 -1 25 2 -2 21 2 0.28448045D+00 0.45566710D-01 0.28316268D+06 0.28316268D+06 0.28316268D+06 0.10864127D+01  1  2  3  1  6  1        1 0.187624118157D-05 0.100000000000D+01
-.292931038122D-05 0.000000000000D+00 0.000000000000D+00 0.138416060903D-05 0.000000000000D+00  6 1 -1 25 2 -2 21 2 0.28448045D+00 0.45566710D-01 0.28316268D+06 0.28316268D+06 0.28316268D+06 0.10864127D+01  1  2 15  1  6  1        1 -.777836637768D-05 0.100000000000D+01
0.119030137882D-07 0.000000000000D+00 0.000000000000D+00 0.138416060903D-05 0.000000000000D+00  6 1 -1 25 2 -2 21 2 0.41216642D+00 0.45566710D-01 0.30292083D+06 0.30292083D+06 0.30292083D+06 0.10842407D+01  1  2 12  1  6  1        1 0.854860794631D-08 0.100000000000D+01
0.408488827817D-03 0.000000000000D+00 0.000000000000D+00 0.138416060903D-05 0.000000000000D+00  6 1 -1 25 2 -2 21 2 0.42952393D+00 0.45566710D-01 0.30292083D+06 0.30292083D+06 0.30292083D+06 0.10842407D+01  1  2 12  1  6  1        1 0.243661386549D-03 0.100000000000D+01
-.213275596203D-03 0.000000000000D+00 0.000000000000D+00 0.138416060903D-05 0.000000000000D+00  6 1 -1 25 2 -2 21 2 0.28448045D+00 0.45566710D-01 0.28316268D+06 0.28316268D+06 0.28316268D+06 0.10864127D+01  1  2  4  1  6  1        1 -.566322960285D-03 0.100000000000D+01
-.476446621316D-03 0.000000000000D+00 -.271837179207D-05 0.138416060903D-05 0.000000000000D+00  6 1 -1 25 2 -2 21 2 0.41217342D+00 0.45566710D-01 0.28316268D+06 0.28316268D+06 0.28316268D+06 0.10864127D+01  1  2  5  1  6  1        1 -.345177436002D-03 0.100000000000D+01
0.446580558795D-03 0.000000000000D+00 0.254165105619D-05 0.138416060903D-05 0.000000000000D+00  6 1 -1 25 2 -2 21 2 0.28448045D+00 0.45566710D-01 0.28316268D+06 0.28316268D+06 0.28316268D+06 0.10864127D+01  1  2  6  1  6  1        1 0.118583104942D-02 0.100000000000D+01
0.536076027584D-09 0.000000000000D+00 0.000000000000D+00 0.138416060903D-05 0.000000000000D+00  6 21 -1 25 2 -2 -1 2 0.41216642D+00 0.45566710D-01 0.30292083D+06 0.30292083D+06 0.30292083D+06 0.10842407D+01  1  2 12  5  6  1        1 0.112796392657D-09 0.100000000000D+01
0.198722614155D-04 0.000000000000D+00 0.000000000000D+00 0.138416060903D-05 0.000000000000D+00  6 21 -1 25 2 -2 -1 2 0.42952393D+00 0.45566710D-01 0.30292083D+06 0.30292083D+06 0.30292083D+06 0.10842407D+01  1  2 12  5  6  1        1 0.315736042966D-05 0.100000000000D+01
-.213749191869D-04 0.000000000000D+00 -.122431375157D-06 0.138416060903D-05 0.000000000000D+00  6 21 -1 25 2 -2 -1 2 0.41217342D+00 0.45566710D-01 0.28316268D+06 0.28316268D+06 0.28316268D+06 0.10864127D+01  1  2  5  5  6  1        1 -.455329821914D-05 0.100000000000D+01
  </mgrwgt>
  </event>
  <event>
  5     66 0.18148205E-05 0.33417488E+02 0.75467711E-02 0.90955400E-01
        1 -1    0    0  502    0 0.00000000E+00 0.00000000E+00 0.11717371E+04 0.11717371E+04 0.32000000E+00 0.0000E+00 0.9000E+01
       -1 -1    0    0    0  501 0.00000000E+00 0.00000000E+00 -.71556226E+03 0.71556233E+03 0.32000000E+00 0.0000E+00 0.9000E+01
       25  1    1    2    0    0 -.47520747E+03 -.15185349E+03 -.10916012E+02 0.51441790E+03 0.12500000E+03 0.0000E+00 0.9000E+01
        2  1    1    2  502    0 0.48589072E+03 0.12019275E+03 0.85112538E+03 0.98739587E+03 0.32000000E+00 0.0000E+00 0.9000E+01
       -2  1    1    2    0  501 -.10683257E+02 0.31660733E+02 -.38403458E+03 0.38548566E+03 0.32000000E+00 0.0000E+00 0.9000E+01
#aMCatNLO 1  0  0  5  2 0.11292225D+02 0.00000000D+00  -5  6  0 0.00000000D+00 0.00000000D+00 0.00000000D+00 0.00000000D+00 0.00000000D+00
  <mgrwgt>
 0.2390338020D-02    4    2    0
 0.915669658713367D+03 0.000000000000000D+00 0.000000000000000D+00 0.915669658713367D+03
 0.915669658713367D+03 -.000000000000000D+00 -.000000000000000D+00 -.915669658713367D+03
 0.532831075900002D+03 -.475196063083983D+03 -.151853677850734D+03 -.139330964245005D+03
 0.805539962981296D+03 0.485879985576012D+03 0.120190097834870D+03 0.631165281015209D+03
 0.492968278545436D+03 -.106839224920290D+02 0.316635800158629D+02 -.491834316770204D+03
 0.000000000000000D+00 0.000000000000000D+00 -.000000000000000D+00 0.000000000000000D+00
 0.915669658713367D+03 0.000000000000000D+00 0.000000000000000D+00 0.915669658713367D+03
 0.915669658713367D+03 -.000000000000000D+00 -.000000000000000D+00 -.915669658713367D+03
 0.572785653108764D+03 -.477639313671783D+03 -.144612698655747D+03 -.251805992442362D+03
 0.692120216582172D+03 0.482570376542396D+03 0.129998674276275D+03 0.478807446236891D+03
 0.364068094705863D+03 0.530304382287562D+02 0.192320440533511D+03 -.304542605158983D+03
 0.202365353029935D+03 -.579615010993688D+02 -.177706416154040D+03 0.775411513644542D+02
0.342047244059D-02 0.000000000000D+00 0.000000000000D+00 0.768854546465D-04 0.000000000000D+00  6 1 -1 25 2 -2 21 0 0.18026725D+00 0.11008651D+00 0.27469854D+06 0.27469854D+06 0.27469854D+06 0.10873943D+01  1  2  2  4  6  5       -2 0.379245088770D-02 0.100000000000D+01
0.174824946577D-02 0.000000000000D+00 -.131355148029D-04 0.768854546465D-04 0.000000000000D+00  6 1 -1 25 2 -2 21 2 0.18026725D+00 0.11008651D+00 0.27469854D+06 0.27469854D+06 0.27469854D+06 0.10873943D+01  1  2  3  4  6  5       -2 0.229198281842D-02 0.100000000000D+01
-.249859947044D-02 0.000000000000D+00 0.000000000000D+00 0.768854546465D-04 0.000000000000D+00  6 1 -1 25 2 -2 21 2 0.18026725D+00 0.11008651D+00 0.27469854D+06 0.27469854D+06 0.27469854D+06 0.10873943D+01  1  2 15  4  6  5       -2 -.327570359294D-02 0.100000000000D+01
-.319135792867D-03 0.000000000000D+00 0.000000000000D+00 0.768854546465D-04 0.000000000000D+00  6 1 -1 25 2 -2 21 2 0.18026725D+00 0.11008651D+00 0.27469854D+06 0.27469854D+06 0.27469854D+06 0.10873943D+01  1  2  4  4  6  5       -2 -.418392093530D-03 0.100000000000D+01
  </mgrwgt>
  </event>
  <event>
  6     66 0.18148205E-05 0.26236845E+03 0.75467711E-02 0.90021250E-01
        1 -1    0    0  502    0 0.00000000E+00 0.00000000E+00 0.21242020E+04 0.21242020E+04 0.32000000E+00 0.0000E+00 0.9000E+01
       21 -1    0    0  503  501 0.00000000E+00 0.00000000E+00 -.22208031E+04 0.22208033E+04 0.75000000E+00 0.0000E+00 0.9000E+01
       25  1    1    2    0    0 0.54904721E+03 -.43412890E+03 -.15416622E+03 0.72753898E+03 0.12500000E+03 0.0000E+00 0.9000E+01
        2  1    1    2  502    0 -.38098619E+03 0.14360338E+03 0.17897584E+04 0.18354857E+04 0.32000000E+00 0.0000E+00 0.9000E+01
        1  1    1    2  503    0 -.67635144E+02 0.30576917E+03 -.12006200E+04 0.12407892E+04 0.32000000E+00 0.0000E+00 0.9000E+01
       -2  1    1    2    0  501 -.10042588E+03 -.15243648E+02 -.53157337E+03 0.54119135E+03 0.32000000E+00 0.0000E+00 0.9000E+01
#aMCatNLO 2  0  0  2  1 0.31316018D+03 0.00000000D+00  -5  6  0 0.00000000D+00 0.00000000D+00 0.00000000D+00 0.00000000D+00 0.00000000D+00
  <mgrwgt>
 0.8818651827D-05    1    2    0
 0.144215379434372D+04 0.000000000000000D+00 0.000000000000000D+00 0.144215379434372D+04
 0.144215379434372D+04 0.000000000000000D+00 0.000000000000000D+00 -.144215379434372D+04
 0.783092259391685D+03 0.530109976808346D+03 -.348501365879131D+03 -.441745059041761D+03
 0.131450996544114D+04 -.411345377683679D+03 0.280871203216302D+03 0.121648789418809D+04
 0.000000000000000D+00 -.000000000000000D+00 0.000000000000000D+00 -.000000000000000D+00
 0.786705363854610D+03 -.118764599124666D+03 0.676301626628284D+02 -.774742835146328D+03
 0.146447592009831D+04 0.000000000000000D+00 0.000000000000000D+00 0.146447592009831D+04
 0.322124420672768D+04 0.000000000000000D+00 0.000000000000000D+00 -.322124420672768D+04
 0.837070201027077D+03 0.549050202213730D+03 -.434127515493736D+03 -.441745059041761D+03
 0.128281386069577D+04 -.380981818522400D+03 0.143601735513110D+03 0.121648789418809D+04
 0.178446185442756D+04 -.676351441190294D+02 0.305769168295903D+03 -.175676828662937D+04
 0.781374210675582D+03 -.100433239572301D+03 -.152433883152778D+02 -.774742835146328D+03
0.283230301983D-03 0.000000000000D+00 0.000000000000D+00 0.294159149935D-04 0.351938306667D-09  6 1 21 25 2 1 -2 2 0.32680031D+00 0.34166203D+00 0.58745280D+06 0.58745280D+06 0.58745280D+06 0.10635979D+01  1  2  1  6  5  2       -1 0.881865182707D-05 0.100000000000D+01
  </mgrwgt>
  </event>
  <event>
  6     66 0.18148205E-05 0.96664190E+02 0.75467711E-02 0.94838688E-01
        3 -1    0    0  502    0 0.00000000E+00 0.00000000E+00 0.33608291E+04 0.33608291E+04 0.50000000E+00 0.0000E+00 0.9000E+01
       -3 -1    0    0    0  501 0.00000000E+00 0.00000000E+00 -.22150911E+03 0.22150967E+03 0.50000000E+00 0.0000E+00 0.9000E+01
       25  1    1    2    0    0 -.41603285E+03 -.23523938E+03 0.10604534E+04 0.11698749E+04 0.12500000E+03 0.0000E+00 0.9000E+01
        4  1    1    2  502    0 0.31911233E+01 0.20283873E+02 0.18514146E+04 0.18515291E+04 0.15500000E+01 0.0000E+00 0.9000E+01
       -4  1    1    2    0  503 0.90866843E+02 0.58515343E+02 0.16546121E+03 0.19763765E+03 0.15500000E+01 0.0000E+00 0.9000E+01
       21  1    1    2  503  501 0.32197488E+03 0.15644017E+03 0.61990728E+02 0.36329708E+03 0.75000000E+00 0.0000E+00 0.9000E+01
#aMCatNLO 2  0  0  5  4 0.19533056D+01 0.00000000D+00  -5  6  0 0.00000000D+00 0.00000000D+00 0.00000000D+00 0.00000000D+00 0.00000000D+00
  <mgrwgt>
 0.4690624132D-04    1    2    0
 0.862818244234830D+03 0.000000000000000D+00 0.000000000000000D+00 0.862818244234830D+03
 0.862818244234830D+03 -.000000000000000D+00 -.000000000000000D+00 -.862818244234830D+03
 0.506634265671171D+03 -.421681962474409D+03 -.238166728461691D+03 0.807106630486522D+02
 0.481563598632451D+03 -.186617000374278D+01 0.176281248682658D+02 0.481237224402874D+03
 0.737438624166039D+03 0.423548132478151D+03 0.220538603593425D+03 -.561947887451526D+03
 0.000000000000000D+00 0.000000000000000D+00 0.000000000000000D+00 -.000000000000000D+00
 0.862818244234830D+03 0.000000000000000D+00 0.000000000000000D+00 0.862818244234830D+03
 0.862818244234830D+03 -.000000000000000D+00 -.000000000000000D+00 -.862818244234830D+03
 0.499888083642610D+03 -.416416596545934D+03 -.235425088586005D+03 0.737247716392073D+02
 0.475039293385462D+03 0.313805496766042D+01 0.202337904411569D+02 0.474597805089280D+03
 0.108050492052769D+03 0.898720374097448D+02 0.578883535285841D+02 -.157119142823735D+02
 0.642658619388820D+03 0.323406504168529D+03 0.157302944616264D+03 -.532610662446114D+03
0.698929656537D-02 0.000000000000D+00 0.000000000000D+00 0.988991363563D-04 0.982707285747D-08  6 3 -3 25 4 -4 21 2 0.51705067D+00 0.34078370D-01 0.24080243D+06 0.24080243D+06 0.24080243D+06 0.10916859D+01  1  2  1  4  6  5       -4 0.469062413194D-04 0.100000000000D+01
  </mgrwgt>
  </event>
  <event>
  6     66 0.18148205E-05 0.17849581E+02 0.75467711E-02 0.95144239E-01
        1 -1    0    0  502    0 0.00000000E+00 0.00000000E+00 0.14609394E+04 0.14609395E+04 0.32000000E+00 0.0000E+00 0.9000E+01
       -1 -1    0    0    0  501 0.00000000E+00 0.00000000E+00 -.27344976E+03 0.27344995E+03 0.32000000E+00 0.0000E+00 0.9000E+01
       25  1    1    2    0    0 -.37635031E+03 -.24652616E+03 0.78675710E+03 0.91489149E+03 0.12500000E+03 0.0000E+00 0.9000E+01
        2  1    1    2  503    0 -.18475284E+02 -.28169713E+01 0.22809817E+03 0.22886273E+03 0.32000000E+00 0.0000E+00 0.9000E+01
       -2  1    1    2    0  501 0.39612753E+03 0.24877347E+03 0.52740144E+02 0.47073017E+03 0.32000000E+00 0.0000E+00 0.9000E+01
       21  1    1    2  502  503 -.13019365E+01 0.56965565E+00 0.11989425E+03 0.11990502E+03 0.75000000E+00 0.0000E+00 0.9000E+01
#aMCatNLO 2  0  0  4  1 0.56439513D+01 0.00000000D+00  -5  6  0 0.00000000D+00 0.00000000D+00 0.00000000D+00 0.00000000D+00 0.00000000D+00
  <mgrwgt>
 0.1867570082D-01    6    2    0
 0.632055161730143D+03 0.000000000000000D+00 0.000000000000000D+00 0.632055161730143D+03
 0.632055161730143D+03 -.000000000000000D+00 -.000000000000000D+00 -.632055161730143D+03
 0.516732953407405D+03 -.376741427134901D+03 -.246745524630843D+03 0.220387132773552D+03
 0.150756588667794D+03 -.197267717360620D+02 -.224158310525233D+01 0.149443563959128D+03
 0.596620781385087D+03 0.396468198870963D+03 0.248987107736096D+03 -.369830696732679D+03
 0.000000000000000D+00 0.000000000000000D+00 0.000000000000000D+00 0.000000000000000D+00
 0.632055161730143D+03 0.000000000000000D+00 0.000000000000000D+00 0.632055161730143D+03
 0.632055161730143D+03 -.000000000000000D+00 -.000000000000000D+00 -.632055161730143D+03
 0.516833688905961D+03 -.376766514410115D+03 -.246748375336120D+03 0.220577185756781D+03
 0.988990837742949D+02 -.183543826279350D+02 -.280167437169756D+01 0.971405992901903D+02
 0.596464192919071D+03 0.396439239682578D+03 0.248983817059431D+03 -.369611311402958D+03
 0.519133578609582D+02 -.131834264452816D+01 0.566232648386617D+00 0.518935263559862D+02
-.229108565235D-07 0.000000000000D+00 0.000000000000D+00 0.102393802457D-04 0.000000000000D+00  6 1 -1 25 2 -2 21 2 0.22475993D+00 0.42069211D-01 0.22826602D+06 0.22826602D+06 0.22826602D+06 0.10934431D+01  1  2 13  3  6  4        2 -.130154100189D-06 0.100000000000D+01
-.319157787156D-02 0.000000000000D+00 0.000000000000D+00 0.102393802457D-04 0.000000000000D+00  6 1 -1 25 2 -2 21 2 0.22475993D+00 0.42069211D-01 0.22826602D+06 0.22826602D+06 0.22826602D+06 0.10934431D+01  1  2 13  3  6  4        2 -.181310090101D-01 0.100000000000D+01
-.278135507655D-03 0.000000000000D+00 0.000000000000D+00 0.102393802457D-04 0.000000000000D+00  6 1 -1 25 2 -2 21 2 0.22475993D+00 0.42069211D-01 0.22819746D+06 0.22819746D+06 0.22819746D+06 0.10934530D+01  1  2  8  3  6  4        2 -.158010694482D-02 0.100000000000D+01
-.169393921592D-03 0.000000000000D+00 0.000000000000D+00 0.102393802457D-04 0.000000000000D+00  6 1 -1 25 2 -2 21 2 0.22475993D+00 0.42069211D-01 0.22819746D+06 0.22819746D+06 0.22819746D+06 0.10934530D+01  1  2  9  3  6  4        2 -.962338516844D-03 0.100000000000D+01
0.236935438878D-03 0.000000000000D+00 0.000000000000D+00 0.102393802457D-04 0.000000000000D+00  6 1 -1 25 2 -2 21 2 0.22475993D+00 0.42069211D-01 0.22819746D+06 0.22819746D+06 0.22819746D+06 0.10934530D+01  1  2 10  3  6  4        2 0.134604652100D-02 0.100000000000D+01
0.668966058905D-02 0.000000000000D+00 0.000000000000D+00 0.102393802457D-04 0.239859786731D-04  6 1 -1 25 2 -2 21 2 0.22475993D+00 0.42069211D-01 0.22826602D+06 0.22826602D+06 0.22826602D+06 0.10934431D+01  1  2  1  3  6  4        2 0.380032389293D-01 0.100000000000D+01
  </mgrwgt>
  </event>
  <event>
  5     66 0.18148205E-05 0.20343102E+03 0.75467711E-02 0.94647648E-01
        1 -1    0    0  502    0 0.00000000E+00 0.00000000E+00 0.12633938E+04 0.12633939E+04 0.32000000E+00 0.0000E+00 0.9000E+01
       -1 -1    0    0    0  501 0.00000000E+00 0.00000000E+00 -.46944184E+03 0.46944194E+03 0.32000000E+00 0.0000E+00 0.9000E+01
       25  1    1    2    0    0 -.12368950E+03 0.46212133E+03 0.77632960E+02 0.50050684E+03 0.12500000E+03 0.0000E+00 0.9000E+01
        2  1    1    2  502    0 0.12127965E+03 -.22447773E+03 0.89777029E+03 0.93332234E+03 0.32000000E+00 0.0000E+00 0.9000E+01
       -2  1    1    2    0  501 0.24098570E+01 -.23764360E+03 -.18145127E+03 0.29900661E+03 0.32000000E+00 0.0000E+00 0.9000E+01
#aMCatNLO 1  0  0  1  4 0.83022112D+01 0.00000000D+00  -5  6  0 0.00000000D+00 0.00000000D+00 0.00000000D+00 0.00000000D+00 0.00000000D+00
  <mgrwgt>
 0.3074197586D-02   13    2    0
 0.770123392539159D+03 0.000000000000000D+00 0.000000000000000D+00 0.770123392539159D+03
 0.770123392539159D+03 0.000000000000000D+00 0.000000000000000D+00 -.770123392539159D+03
 0.523062056524405D+03 -.123683624008705D+03 0.462147172287789D+03 -.170561623098554D+03
 0.587194207743284D+03 0.121268417953064D+03 -.224456946965492D+03 0.528876249583354D+03
 0.429990520810630D+03 0.241520605564102D+01 -.237690225322297D+03 -.358314626484800D+03
 0.000000000000000D+00 -.000000000000000D+00 0.000000000000000D+00 0.000000000000000D+00
 0.796571029348298D+03 0.000000000000000D+00 0.000000000000000D+00 0.796571029348298D+03
 0.770786395203665D+03 0.000000000000000D+00 0.000000000000000D+00 -.770786395203665D+03
 0.520700576062388D+03 -.121942262501612D+03 0.459937938480484D+03 -.170561623098554D+03
 0.588557557720414D+03 0.123229983545043D+03 -.226945549707308D+03 0.528876249583354D+03
 0.431011026349732D+03 0.385165808502332D+01 -.239512625997261D+03 -.358314626484800D+03
 0.270882644194291D+02 -.513937912845415D+01 0.652023722408464D+01 0.257846341446331D+02
0.657958452372D-04 0.000000000000D+00 0.000000000000D+00 0.206631383641D-05 0.000000000000D+00  6 1 -1 25 2 -2 21 0 0.19436829D+00 0.72221832D-01 0.24368836D+06 0.24368836D+06 0.24368836D+06 0.10912955D+01  1  2  2  1  6  1        1 0.155951064276D-03 0.100000000000D+01
0.471655525629D-05 0.000000000000D+00 -.252673370155D-06 0.206631383641D-05 0.000000000000D+00  6 1 -1 25 2 -2 21 2 0.19436829D+00 0.72221832D-01 0.24368836D+06 0.24368836D+06 0.24368836D+06 0.10912955D+01  1  2  3  1  6  1        1 0.133137241588D-04 0.100000000000D+01
-.409084528519D-04 0.000000000000D+00 0.000000000000D+00 0.206631383641D-05 0.000000000000D+00  6 1 -1 25 2 -2 21 2 0.19436829D+00 0.72221832D-01 0.24368836D+06 0.24368836D+06 0.24368836D+06 0.10912955D+01  1  2 15  1  6  1        1 -.115474923422D-03 0.100000000000D+01
0.158502024706D-07 0.000000000000D+00 0.000000000000D+00 0.206631383641D-05 0.000000000000D+00  6 1 -1 25 2 -2 21 2 0.20112542D+00 0.72221832D-01 0.24903249D+06 0.24903249D+06 0.24903249D+06 0.10905858D+01  1  2 12  1  6  1        1 0.416067867205D-07 0.100000000000D+01
0.125734628509D-02 0.000000000000D+00 0.000000000000D+00 0.206631383641D-05 0.000000000000D+00  6 1 -1 25 2 -2 21 2 0.20326286D+00 0.72221832D-01 0.24903249D+06 0.24903249D+06 0.24903249D+06 0.10905858D+01  1  2 12  1  6  1        1 0.322845571354D-02 0.100000000000D+01
-.532835605528D-03 0.000000000000D+00 0.000000000000D+00 0.206631383641D-05 0.000000000000D+00  6 1 -1 25 2 -2 21 2 0.19436829D+00 0.72221832D-01 0.24368836D+06 0.24368836D+06 0.24368836D+06 0.10912955D+01  1  2  4  1  6  1        1 -.150406936599D-02 0.100000000000D+01
-.675850680294D-02 0.000000000000D+00 -.391336668890D-03 0.206631383641D-05 0.000000000000D+00  6 1 -1 25 2 -2 21 2 0.20111347D+00 0.72221832D-01 0.24368836D+06 0.24368836D+06 0.24368836D+06 0.10912955D+01  1  2  5  1  6  1        1 -.177864210385D-01 0.100000000000D+01
0.676814590704D-02 0.000000000000D+00 0.391109060313D-03 0.206631383641D-05 0.000000000000D+00  6 1 -1 25 2 -2 21 2 0.19436829D+00 0.72221832D-01 0.24368836D+06 0.24368836D+06 0.24368836D+06 0.10912955D+01  1  2  6  1  6  1        1 0.191048811636D-01 0.100000000000D+01
0.544676546133D-05 0.000000000000D+00 0.000000000000D+00 0.206631383641D-05 0.647040730988D-07  6 1 -1 25 2 -2 21 2 0.20104330D+00 0.72284008D-01 0.24903249D+06 0.24903249D+06 0.24903249D+06 0.10905858D+01  1  2 11  1  6  1        1 0.142855768826D-04 0.100000000000D+01
0.459292610114D-09 0.000000000000D+00 0.000000000000D+00 0.206631383641D-05 0.000000000000D+00  6 21 -1 25 2 -2 -1 2 0.20112542D+00 0.72221832D-01 0.24903249D+06 0.24903249D+06 0.24903249D+06 0.10905858D+01  1  2 12  5  6  1        1 0.113759453266D-08 0.100000000000D+01
0.469777897056D-04 0.000000000000D+00 0.000000000000D+00 0.206631383641D-05 0.000000000000D+00  6 21 -1 25 2 -2 -1 2 0.20326286D+00 0.72221832D-01 0.24903249D+06 0.24903249D+06 0.24903249D+06 0.10905858D+01  1  2 12  5  6  1        1 0.112204300708D-03 0.100000000000D+01
-.600370484239D-04 0.000000000000D+00 -.237989942593D-05 0.206631383641D-05 0.000000000000D+00  6 21 -1 25 2 -2 -1 2 0.20111347D+00 0.72221832D-01 0.24368836D+06 0.24368836D+06 0.24368836D+06 0.10912955D+01  1  2  5  5  6  1        1 -.149228419545D-03 0.100000000000D+01
0.103811281659D-06 0.000000000000D+00 0.000000000000D+00 0.206631383641D-05 0.109697890688D-08  6 21 -1 25 2 -2 -1 2 0.20104330D+00 0.72284008D-01 0.24903249D+06 0.24903249D+06 0.24903249D+06 0.10905858D+01  1  2 11  5  6  1        1 0.257046276037D-06 0.100000000000D+01
  </mgrwgt>
  </event>
  <event>
  5     66 0.18148205E-05 0.49278531E+02 0.75467711E-02 0.91475756E-01
        1 -1    0    0  502    0 0.00000000E+00 0.00000000E+00 0.11151250E+04 0.11151250E+04 0.32000000E+00 0.0000E+00 0.9000E+01
       -1 -1    0    0    0  501 0.00000000E+00 0.00000000E+00 -.81040233E+03 0.81040239E+03 0.32000000E+00 0.0000E+00 0.9000E+01
       25  1    1    2    0    0 -.40238979E+03 0.27144751E+03 -.88458918E+02 0.50897080E+03 0.12500000E+03 0.0000E+00 0.9000E+01
        2  1    1    2  502    0 0.38250871E+03 -.22636261E+03 0.84888013E+03 0.95820171E+03 0.32000000E+00 0.0000E+00 0.9000E+01
       -2  1    1    2    0  501 0.19881088E+02 -.45084905E+02 -.45569858E+03 0.45835489E+03 0.32000000E+00 0.0000E+00 0.9000E+01
#aMCatNLO 1  0  0  1  2 0.14082080D+03 0.00000000D+00  -5  6  0 0.00000000D+00 0.00000000D+00 0.00000000D+00 0.00000000D+00 0.00000000D+00
  <mgrwgt>
 0.7446666928D-02    4    2    0
 0.950631353238626D+03 0.000000000000000D+00 0.000000000000000D+00 0.950631353238626D+03
 0.950631353238626D+03 0.000000000000000D+00 0.000000000000000D+00 -.950631353238626D+03
 0.529618861294767D+03 -.402383067880809D+03 0.271446514281810D+03 -.171101708951865D+03
 0.834358036415295D+03 0.382499852097296D+03 -.226357365580739D+03 0.706122892366252D+03
 0.537285808767189D+03 0.198832157835126D+02 -.450891487010710D+02 -.535021183414387D+03
 0.000000000000000D+00 0.000000000000000D+00 0.000000000000000D+00 -.000000000000000D+00
 0.104256180370926D+04 0.000000000000000D+00 0.000000000000000D+00 0.104256180370926D+04
 0.118200063582512D+04 0.000000000000000D+00 0.000000000000000D+00 -.118200063582512D+04
 0.542516277141675D+03 -.451436950421317D+03 0.213606638360599D+03 -.171101708951865D+03
 0.832118565884231D+03 0.306252796502306D+03 -.316260957438735D+03 0.706122892366252D+03
 0.545750619455169D+03 -.296694383852418D+02 -.103517130753677D+03 -.535021183414387D+03
 0.304176977053310D+03 0.174853592304252D+03 0.206171449831813D+03 -.139438832115864D+03
0.124841526911D-01 0.000000000000D+00 0.000000000000D+00 0.103147039516D-03 0.000000000000D+00  6 1 -1 25 2 -2 21 0 0.17155769D+00 0.12467729D+00 0.24748455D+06 0.24748455D+06 0.24748455D+06 0.10907897D+01  1  2  2  1  6  1        1 0.113146966940D-01 0.100000000000D+01
0.467458893014D-02 0.000000000000D+00 -.479424334866D-04 0.103147039516D-03 0.000000000000D+00  6 1 -1 25 2 -2 21 2 0.17155769D+00 0.12467729D+00 0.24748455D+06 0.24748455D+06 0.24748455D+06 0.10907897D+01  1  2  3  1  6  1        1 0.504091412362D-02 0.100000000000D+01
-.818306656187D-02 0.000000000000D+00 0.000000000000D+00 0.103147039516D-03 0.000000000000D+00  6 1 -1 25 2 -2 21 2 0.17155769D+00 0.12467729D+00 0.24748455D+06 0.24748455D+06 0.24748455D+06 0.10907897D+01  1  2 15  1  6  1        1 -.882433437950D-02 0.100000000000D+01
-.784609038265D-04 0.000000000000D+00 0.000000000000D+00 0.103147039516D-03 0.000000000000D+00  6 1 -1 25 2 -2 21 2 0.17155769D+00 0.12467729D+00 0.24748455D+06 0.24748455D+06 0.24748455D+06 0.10907897D+01  1  2  4  1  6  1        1 -.846095098761D-04 0.100000000000D+01
  </mgrwgt>
  </event>
  <event>
  5     66 0.18148205E-05 0.52893665E+02 0.75467711E-02 0.94537621E-01
        1 -1    0    0  502    0 0.00000000E+00 0.00000000E+00 0.11355212E+04 0.11355213E+04 0.32000000E+00 0.0000E+00 0.9000E+01
       -1 -1    0    0    0  501 0.00000000E+00 0.00000000E+00 -.36828427E+03 0.36828440E+03 0.32000000E+00 0.0000E+00 0.9000E+01
       25  1    1    2    0    0 0.18381189E+03 0.43554904E+03 0.10669790E+03 0.50049897E+03 0.12500000E+03 0.0000E+00 0.9000E+01
        2  1    1    2  502    0 -.39485081E+02 -.35229570E+02 0.56461218E+03 0.56708660E+03 0.32000000E+00 0.0000E+00 0.9000E+01
       -2  1    1    2    0  501 -.14432681E+03 -.40031947E+03 0.95926873E+02 0.43622010E+03 0.32000000E+00 0.0000E+00 0.9000E+01
#aMCatNLO 1  0  0  2  5 0.35997747D+02 0.00000000D+00  -5  6  0 0.00000000D+00 0.00000000D+00 0.00000000D+00 0.00000000D+00 0.00000000D+00
  <mgrwgt>
 0.2966002879D-02   11    4    0
 0.646679778624089D+03 0.000000000000000D+00 0.000000000000000D+00 0.646679778624089D+03
 0.646679778624089D+03 0.000000000000000D+00 0.000000000000000D+00 -.646679778624089D+03
 0.518692733533938D+03 0.183839851104804D+03 0.435636267212906D+03 -.172745777532994D+03
 0.324281504606377D+03 -.394677727649131D+02 -.352141271785333D+02 0.319938672857482D+03
 0.450385319107863D+03 -.144372078339891D+03 -.400422140034372D+03 -.147192895324488D+03
 0.000000000000000D+00 -.000000000000000D+00 0.000000000000000D+00 -.000000000000000D+00
 0.655384069935508D+03 0.000000000000000D+00 0.000000000000000D+00 0.655384069935508D+03
 0.685251095908930D+03 0.000000000000000D+00 0.000000000000000D+00 -.685251095908930D+03
 0.508648441566808D+03 0.187779374997985D+03 0.421895768855566D+03 -.172745777532994D+03
 0.325046480688329D+03 -.369778082092446D+02 -.438987689816240D+02 0.319938672857482D+03
 0.460165496063176D+03 -.140880408017254D+03 -.412600588911304D+03 -.147192895324488D+03
 0.467747475261246D+02 -.992115877148636D+01 0.346035890373615D+02 -.298670259734218D+02
 0.646679778624089D+03 0.000000000000000D+00 0.000000000000000D+00 0.646679778624089D+03
 0.646679778624089D+03 0.000000000000000D+00 0.000000000000000D+00 -.646679778624089D+03
 0.518692733533938D+03 0.183839851104804D+03 0.435636267212906D+03 -.172745777532994D+03
 0.324281504606377D+03 -.394677727649131D+02 -.352141271785333D+02 0.319938672857482D+03
 0.000000000000000D+00 -.000000000000000D+00 0.000000000000000D+00 -.000000000000000D+00
 0.450385319107863D+03 -.144372078339891D+03 -.400422140034372D+03 -.147192895324488D+03
 0.655384069935508D+03 0.000000000000000D+00 0.000000000000000D+00 0.655384069935508D+03
 0.685251095908930D+03 0.000000000000000D+00 0.000000000000000D+00 -.685251095908930D+03
 0.508648441566808D+03 0.187779374997985D+03 0.421895768855566D+03 -.172745777532994D+03
 0.325046480688329D+03 -.369778082092446D+02 -.438987689816240D+02 0.319938672857482D+03
 0.467747475261246D+02 -.992115877148636D+01 0.346035890373615D+02 -.298670259734218D+02
 0.460165496063176D+03 -.140880408017254D+03 -.412600588911304D+03 -.147192895324488D+03
0.968723897606D-04 0.000000000000D+00 0.000000000000D+00 0.347634594751D-05 0.000000000000D+00  6 1 -1 25 2 -2 21 0 0.17469559D+00 0.56659132D-01 0.23407664D+06 0.23407664D+06 0.23407664D+06 0.10926159D+01  1  2  2  2  6  2       -1 0.451196721166D-03 0.100000000000D+01
0.285497994425D-04 0.000000000000D+00 -.372015483767D-06 0.347634594751D-05 0.000000000000D+00  6 1 -1 25 2 -2 21 2 0.17469559D+00 0.56659132D-01 0.23407664D+06 0.23407664D+06 0.23407664D+06 0.10926159D+01  1  2  3  2  6  2       -1 0.158746433869D-03 0.100000000000D+01
-.649003610165D-04 0.000000000000D+00 0.000000000000D+00 0.347634594751D-05 0.000000000000D+00  6 1 -1 25 2 -2 21 2 0.17469559D+00 0.56659132D-01 0.23407664D+06 0.23407664D+06 0.23407664D+06 0.10926159D+01  1  2 15  2  6  2       -1 -.360867714287D-03 0.100000000000D+01
0.155735734478D-07 0.000000000000D+00 0.000000000000D+00 0.347634594751D-05 0.000000000000D+00  6 1 -1 25 2 -2 21 2 0.17469559D+00 0.60405234D-01 0.25391549D+06 0.25391549D+06 0.25391549D+06 0.10899517D+01  1  2 12  2  6  2       -1 0.761606401111D-07 0.100000000000D+01
0.635969812148D-03 0.000000000000D+00 0.000000000000D+00 0.347634594751D-05 0.000000000000D+00  6 1 -1 25 2 -2 21 2 0.17469559D+00 0.61645120D-01 0.25391549D+06 0.25391549D+06 0.25391549D+06 0.10899517D+01  1  2 12  2  6  2       -1 0.299275889376D-02 0.100000000000D+01
-.230767486705D-03 0.000000000000D+00 0.000000000000D+00 0.347634594751D-05 0.000000000000D+00  6 1 -1 25 2 -2 21 2 0.17469559D+00 0.56659132D-01 0.23407664D+06 0.23407664D+06 0.23407664D+06 0.10926159D+01  1  2  4  2  6  2       -1 -.128314441021D-02 0.100000000000D+01
-.240603576600D-02 0.000000000000D+00 -.355584521212D-03 0.347634594751D-05 0.000000000000D+00  6 1 -1 25 2 -2 21 2 0.17469559D+00 0.60649301D-01 0.23407664D+06 0.23407664D+06 0.23407664D+06 0.10926159D+01  1  2  5  2  6  2       -1 -.117759241467D-01 0.100000000000D+01
0.242543805548D-02 0.000000000000D+00 0.354762667155D-03 0.347634594751D-05 0.000000000000D+00  6 1 -1 25 2 -2 21 2 0.17469559D+00 0.56659132D-01 0.23407664D+06 0.23407664D+06 0.23407664D+06 0.10926159D+01  1  2  6  2  6  2       -1 0.134862468177D-01 0.100000000000D+01
0.205195770566D-09 0.000000000000D+00 0.000000000000D+00 0.347634594751D-05 0.000000000000D+00  6 1 21 25 2 1 -2 2 0.17469559D+00 0.60405234D-01 0.25391549D+06 0.25391549D+06 0.25391549D+06 0.10899517D+01  3  4 12  6  5  2       -1 0.847017122498D-08 0.100000000000D+01
0.107285856247D-04 0.000000000000D+00 0.000000000000D+00 0.347634594751D-05 0.000000000000D+00  6 1 21 25 2 1 -2 2 0.17469559D+00 0.61645120D-01 0.25391549D+06 0.25391549D+06 0.25391549D+06 0.10899517D+01  3  4 12  6  5  2       -1 0.422953544210D-03 0.100000000000D+01
-.272344122899D-04 0.000000000000D+00 -.410863290839D-05 0.347634594751D-05 0.000000000000D+00  6 1 21 25 2 1 -2 2 0.17469559D+00 0.60649301D-01 0.23407664D+06 0.23407664D+06 0.23407664D+06 0.10926159D+01  3  4  5  6  5  2       -1 -.112604789108D-02 0.100000000000D+01
  </mgrwgt>
  </event>
  <event>
  6     66 0.18148205E-05 0.34780373E+02 0.75467711E-02 0.94407026E-01
        1 -1    0    0  502    0 0.00000000E+00 0.00000000E+00 0.19601313E+04 0.19601314E+04 0.32000000E+00 0.0000E+00 0.9000E+01
       -1 -1    0    0    0  501 0.00000000E+00 0.00000000E+00 -.12309321E+04 0.12309322E+04 0.32000000E+00 0.0000E+00 0.9000E+01
       25  1    1    2    0    0 -.43877197E+03 0.19909596E+03 -.25507782E+03 0.55932973E+03 0.12500000E+03 0.0000E+00 0.9000E+01
        2  1    1    2  503    0 -.54805457E+01 -.49033411E+02 0.11380601E+04 0.11391291E+04 0.32000000E+00 0.0000E+00 0.9000E+01
       -2  1    1    2    0  501 0.41541041E+03 -.15393263E+03 -.76321772E+03 0.88247519E+03 0.32000000E+00 0.0000E+00 0.9000E+01
       21  1    1    2  502  503 0.28842113E+02 0.38700724E+01 0.60943465E+03 0.61012949E+03 0.75000000E+00 0.0000E+00 0.9000E+01
#aMCatNLO 2  0  0  4  5 0.28519410D+02 0.00000000D+00  -5  6  0 0.00000000D+00 0.00000000D+00 0.00000000D+00 0.00000000D+00 0.00000000D+00
  <mgrwgt>
 0.9280712539D-02    2    2    0
 0.155331540688404D+04 0.000000000000000D+00 0.000000000000000D+00 0.155331540688404D+04
 0.155331540688404D+04 -.000000000000000D+00 -.000000000000000D+00 -.155331540688404D+04
 0.634616012769799D+03 -.438908007873646D+03 0.199154538255017D+03 -.393458656253305D+03
 0.138594355161057D+04 0.233719149211958D+02 -.451833429222996D+02 0.138500965605522D+04
 0.108607124938770D+04 0.415536092952450D+03 -.153971195332717D+03 -.991550999801919D+03
 0.000000000000000D+00 0.000000000000000D+00 0.000000000000000D+00 0.000000000000000D+00
 0.155331540688404D+04 0.000000000000000D+00 0.000000000000000D+00 0.155331540688404D+04
 0.155331540688404D+04 -.000000000000000D+00 -.000000000000000D+00 -.155331540688404D+04
 0.634446744194361D+03 -.438903557146397D+03 0.199145933964944D+03 -.393194908065064D+03
 0.902687162178730D+03 -.548775066367578D+01 -.490270120795493D+02 0.901338088311757D+03
 0.108566419949826D+04 0.415543709441143D+03 -.153985919775351D+03 -.991099649947990D+03
 0.483832707896722D+03 0.288475983689292D+02 0.386699788995648D+01 0.482956469701296D+03
-.521075285048D-09 0.000000000000D+00 0.000000000000D+00 0.882691772568D-03 0.000000000000D+00  6 1 -1 25 2 -2 21 2 0.30155867D+00 0.18937418D+00 0.25985120D+06 0.25985120D+06 0.25985120D+06 0.10891986D+01  1  2 13  3  6  4        2 -.433504176949D-10 0.100000000000D+01
0.111554864087D+00 0.000000000000D+00 0.000000000000D+00 0.882691772568D-03 0.109814721951D-05  6 1 -1 25 2 -2 21 2 0.30155867D+00 0.18937418D+00 0.25985120D+06 0.25985120D+06 0.25985120D+06 0.10891986D+01  1  2  1  3  6  4        2 0.928071258193D-02 0.100000000000D+01
  </mgrwgt>
  </event>
  <event>
  6     66 0.18148205E-05 0.57617933E+02 0.75467711E-02 0.93495885E-01
        1 -1    0    0  502    0 0.00000000E+00 0.00000000E+00 0.63214951E+03 0.63214959E+03 0.32000000E+00 0.0000E+00 0.9000E+01
       -1 -1    0    0    0  501 -.00000000E+00 -.00000000E+00 -.11199961E+04 0.11199961E+04 0.32000000E+00 0.0000E+00 0.9000E+01
       25  1    1    2    0    0 -.18039043E+03 0.49953192E+03 -.22052160E+03 0.58849607E+03 0.12500000E+03 0.0000E+00 0.9000E+01
        2  1    1    2  503    0 0.18387762E+03 -.40306234E+03 0.16860284E+03 0.47402241E+03 0.32000000E+00 0.0000E+00 0.9000E+01
       -2  1    1    2    0  501 -.12543986E+02 0.66121070E+01 -.54156468E+03 0.54175039E+03 0.32000000E+00 0.0000E+00 0.9000E+01
       21  1    1    2  502  503 0.90567974E+01 -.10308169E+03 0.10563686E+03 0.14787687E+03 0.75000000E+00 0.0000E+00 0.9000E+01
#aMCatNLO 2  0  0  4  2 0.58315662D+02 0.00000000D+00  -5  6  0 0.00000000D+00 0.00000000D+00 0.00000000D+00 0.00000000D+00 0.00000000D+00
  <mgrwgt>
 0.2272804993D-01    1    2    0
 0.841430385040283D+03 0.000000000000000D+00 0.000000000000000D+00 0.841430385040283D+03
 0.841430385040283D+03 -.000000000000000D+00 -.000000000000000D+00 -.841430385040283D+03
 0.551986862199796D+03 -.181464938777772D+03 0.502365821378397D+03 -.613478079996734D+02
 0.721484902830187D+03 0.194843916218948D+03 -.511153395996467D+03 0.470423765434557D+03
 0.409389005050583D+03 -.133789774411759D+02 0.878757461807007D+01 -.409075957434884D+03
 0.000000000000000D+00 0.000000000000000D+00 0.000000000000000D+00 0.000000000000000D+00
 0.841430385040283D+03 0.000000000000000D+00 0.000000000000000D+00 0.841430385040283D+03
 0.841430385040283D+03 -.000000000000000D+00 -.000000000000000D+00 -.841430385040283D+03
 0.548660579442468D+03 -.180348647534097D+03 0.499437343696373D+03 -.586526767358319D+02
 0.542171830928285D+03 0.183826462801051D+03 -.402895939871616D+03 0.312782652110296D+03
 0.407323232989028D+03 -.125506570495297D+02 0.661455947148839D+01 -.407076092080163D+03
 0.184705126720785D+03 0.907284178257547D+01 -.103155963296245D+03 0.152946116705699D+03
0.213222838188D-01 0.000000000000D+00 0.000000000000D+00 0.385215752631D-04 0.828320080746D-07  6 1 -1 25 2 -2 21 2 0.97253780D-01 0.17230710D+00 0.30586932D+06 0.30586932D+06 0.30586932D+06 0.10839299D+01  1  2  1  3  6  4        2 0.227280499255D-01 0.100000000000D+01
  </mgrwgt>
  </event>
  <event>
  6     66 -.18148205E-05 0.11596621E+03 0.75467711E-02 0.92307011E-01
        1 -1    0    0  502    0 0.00000000E+00 0.00000000E+00 0.13846132E+04 0.13846132E+04 0.32000000E+00 0.0000E+00 0.9000E+01
       -1 -1    0    0    0  503 0.00000000E+00 0.00000000E+00 -.97311898E+03 0.97311903E+03 0.32000000E+00 0.0000E+00 0.9000E+01
       25  1    1    2    0    0 -.43366128E+03 0.23017325E+03 0.46308027E+03 0.68637465E+03 0.12500000E+03 0.0000E+00 0.9000E+01
        2  1    1    2  502    0 0.52554752E+03 -.16094575E+03 0.69807908E+03 0.88849211E+03 0.32000000E+00 0.0000E+00 0.9000E+01
       -2  1    1    2    0  501 -.12724915E+03 -.48936094E+02 -.27994097E+03 0.31137459E+03 0.32000000E+00 0.0000E+00 0.9000E+01
       21  1    1    2  501  503 0.35362916E+02 -.20291405E+02 -.46972418E+03 0.47149088E+03 0.75000000E+00 0.0000E+00 0.9000E+01
#aMCatNLO 2  0  0  2  5 0.40771030D+02 0.00000000D+00  -5  6  0 0.00000000D+00 0.00000000D+00 0.00000000D+00 0.00000000D+00 0.00000000D+00
  <mgrwgt>
 -.5849633922D-03    3    2    0
 0.833621372510212D+03 0.000000000000000D+00 0.000000000000000D+00 0.833621372510212D+03
 0.833621372510212D+03 0.000000000000000D+00 0.000000000000000D+00 -.833621372510212D+03
 0.519754114331677D+03 -.422456924915311D+03 0.223771925469174D+03 0.161169511160220D+03
 0.649285699259545D+03 0.539135250363082D+03 -.168753388898819D+03 0.320042801534510D+03
 0.498202931429201D+03 -.116678325447771D+03 -.550185365703544D+02 -.481212312694729D+03
 0.000000000000000D+00 0.000000000000000D+00 -.000000000000000D+00 -.000000000000000D+00
 0.834402738158979D+03 0.000000000000000D+00 0.000000000000000D+00 0.834402738158979D+03
 0.161479920900862D+04 0.000000000000000D+00 0.000000000000000D+00 -.161479920900862D+04
 0.531593433867779D+03 -.433605019003555D+03 0.230168753523667D+03 0.161169511160220D+03
 0.635990688553149D+03 0.525506662818199D+03 -.160933242202878D+03 0.320042801534510D+03
 0.500157058857662D+03 -.127264559395543D+03 -.489441064684455D+02 -.481212312694729D+03
 0.781460765889010D+03 0.353629155808995D+02 -.202914048523440D+02 -.780396470849641D+03
-.783943109291D-07 0.000000000000D+00 0.000000000000D+00 0.885759541436D-06 0.000000000000D+00  6 1 -1 25 2 -2 21 2 0.21281789D+00 0.14971361D+00 0.38025256D+06 0.38025256D+06 0.38025256D+06 0.10770163D+01  1  2 13  2  6  2       -1 -.316850310104D-07 0.100000000000D+01
-.674607275238D-02 0.000000000000D+00 0.000000000000D+00 0.885759541436D-06 0.000000000000D+00  6 1 -1 25 2 -2 21 2 0.21281789D+00 0.15421643D+00 0.38025256D+06 0.38025256D+06 0.38025256D+06 0.10770163D+01  1  2 13  2  6  2       -1 -.250134772692D-02 0.100000000000D+01
0.475099573380D-02 0.000000000000D+00 0.000000000000D+00 0.885759541436D-06 0.272189511624D-08  6 1 -1 25 2 -2 21 2 0.21301737D+00 0.14971059D+00 0.38025256D+06 0.38025256D+06 0.38025256D+06 0.10770163D+01  1  2  1  2  6  2       -1 0.191641601977D-02 0.100000000000D+01
  </mgrwgt>
  </event>
  <event>
  5     66 -.18148205E-05 0.38065313E+02 0.75467711E-02 0.94531531E-01
        1 -1    0    0  502    0 0.00000000E+00 0.00000000E+00 0.45670645E+03 0.45670656E+03 0.32000000E+00 0.0000E+00 0.9000E+01
       -1 -1    0    0    0  501 0.00000000E+00 0.00000000E+00 -.10490397E+04 0.10490397E+04 0.32000000E+00 0.0000E+00 0.9000E+01
       25  1    1    2    0    0 -.34109103E+03 0.32095138E+03 -.30550065E+02 0.48570689E+03 0.12500000E+03 0.0000E+00 0.9000E+01
        2  1    1    2  502    0 -.35230131E+02 -.14500701E+02 0.15210805E+03 0.15680687E+03 0.32000000E+00 0.0000E+00 0.9000E+01
       -2  1    1    2    0  501 0.37632116E+03 -.30645068E+03 -.71389119E+03 0.86323251E+03 0.32000000E+00 0.0000E+00 0.9000E+01
#aMCatNLO 1  0  0  1  4 0.38907991D+02 0.00000000D+00  -5  6  0 0.00000000D+00 0.00000000D+00 0.00000000D+00 0.00000000D+00 0.00000000D+00
  <mgrwgt>
 -.8518478248D-03    5    2    0
 0.692172884916970D+03 0.000000000000000D+00 0.000000000000000D+00 0.692172884916970D+03
 0.692172884916970D+03 0.000000000000000D+00 0.000000000000000D+00 -.692172884916970D+03
 0.515385016978309D+03 -.341196292486773D+03 0.321011829663050D+03 0.174737548727781D+03
 0.235441649376949D+03 -.352002095424542D+02 -.144883859475260D+02 0.232344146003597D+03
 0.633519103478682D+03 0.376396502029227D+03 -.306523443715524D+03 -.407081694731378D+03
 0.000000000000000D+00 -.000000000000000D+00 0.000000000000000D+00 0.000000000000000D+00
 0.424321571980347D+04 0.000000000000000D+00 0.000000000000000D+00 0.424321571980347D+04
 0.694148880828191D+03 0.000000000000000D+00 0.000000000000000D+00 -.694148880828191D+03
 0.488247074974123D+03 -.326810008778960D+03 0.292270787878792D+03 0.174737548727781D+03
 0.235745548633795D+03 -.284461083489728D+02 -.279817876181413D+02 0.232344146003597D+03
 0.663195490954385D+03 0.394983894952550D+03 -.343657497757534D+03 -.407081694731378D+03
 0.355017648606936D+04 -.397277778246176D+02 0.793684974968830D+02 0.354906683897528D+04
0.506772690175D-04 0.000000000000D+00 0.000000000000D+00 0.988329750324D-05 0.000000000000D+00  6 1 -1 25 2 -2 21 0 0.70262543D-01 0.16139073D+00 0.25418885D+06 0.25418885D+06 0.25418885D+06 0.10899166D+01  1  2  2  1  6  1        1 0.906138669460D-04 0.100000000000D+01
0.168481293173D-04 0.000000000000D+00 -.194614056659D-06 0.988329750324D-05 0.000000000000D+00  6 1 -1 25 2 -2 21 2 0.70262543D-01 0.16139073D+00 0.25418885D+06 0.25418885D+06 0.25418885D+06 0.10899166D+01  1  2  3  1  6  1        1 0.357865396022D-04 0.100000000000D+01
-.350413043436D-04 0.000000000000D+00 0.000000000000D+00 0.988329750324D-05 0.000000000000D+00  6 1 -1 25 2 -2 21 2 0.70262543D-01 0.16139073D+00 0.25418885D+06 0.25418885D+06 0.25418885D+06 0.10899166D+01  1  2 15  1  6  1        1 -.744300451396D-04 0.100000000000D+01
-.228163195792D-01 0.000000000000D+00 -.438490261583D-04 0.988329750324D-05 0.000000000000D+00  6 1 -1 25 2 -2 21 2 0.43082936D+00 0.16139073D+00 0.25418885D+06 0.25418885D+06 0.25418885D+06 0.10899166D+01  1  2  5  1  6  1        1 -.853172880680D-03 0.100000000000D+01
-.507411421808D-02 0.000000000000D+00 -.974582497101D-05 0.988329750324D-05 0.000000000000D+00  6 21 -1 25 2 -2 -1 2 0.43082936D+00 0.16139073D+00 0.25418885D+06 0.25418885D+06 0.25418885D+06 0.10899166D+01  1  2  5  5  6  1        1 -.506453055739D-04 0.100000000000D+01
  </mgrwgt>
  </event>
  <event>
  5     66 -.18148205E-05 0.27937632E+02 0.75467711E-02 0.95004029E-01
        1 -1    0    0  502    0 0.00000000E+00 0.00000000E+00 0.22003154E+04 0.22003154E+04 0.32000000E+00 0.0000E+00 0.9000E+01
       -1 -1    0    0    0  501 0.00000000E+00 0.00000000E+00 -.29772533E+03 0.29772550E+03 0.32000000E+00 0.0000E+00 0.9000E+01
       25  1    1    2    0    0 0.41083321E+03 0.22470570E+03 0.86165079E+03 0.98860693E+03 0.12500000E+03 0.0000E+00 0.9000E+01
        2  1    1    2  502    0 -.41004670E+03 -.19678379E+03 0.12335919E+04 0.13147666E+04 0.32000000E+00 0.0000E+00 0.9000E+01
       -2  1    1    2    0  501 -.78651217E+00 -.27921914E+02 -.19265262E+03 0.19466738E+03 0.32000000E+00 0.0000E+00 0.9000E+01
#aMCatNLO 1  0  0  2  5 0.13377859D+02 0.00000000D+00  -5  6  0 0.00000000D+00 0.00000000D+00 0.00000000D+00 0.00000000D+00 0.00000000D+00
  <mgrwgt>
 -.4917322830D-02    1    2    0
 0.809376217073299D+03 0.000000000000000D+00 0.000000000000000D+00 0.809376217073299D+03
 0.809376217073299D+03 0.000000000000000D+00 0.000000000000000D+00 -.809376217073299D+03
 0.512863343305183D+03 0.410782635514245D+03 0.224685920628272D+03 0.167862063425799D+03
 0.578967236924054D+03 -.409995812751388D+03 -.196759370277815D+03 0.358318636363894D+03
 0.526921853917359D+03 -.786822762857071D+00 -.279265503504568D+02 -.526180699789692D+03
 0.000000000000000D+00 -.000000000000000D+00 -.000000000000000D+00 -.000000000000000D+00
 0.157397189565961D+04 0.000000000000000D+00 0.000000000000000D+00 0.157397189565961D+04
 0.187341787487345D+04 0.000000000000000D+00 0.000000000000000D+00 -.187341787487345D+04
 0.104482584836661D+04 0.908456257915825D+03 0.471768596380708D+03 0.167862063425799D+03
 0.376081924653291D+03 -.104862556158866D+03 -.452682361161998D+02 0.358318636363894D+03
 0.669831704972916D+03 0.381569735887770D+03 0.161904048159058D+03 -.526180699789692D+03
 0.135665029254023D+04 -.118516343764473D+04 -.588404408423566D+03 -.299445979213842D+03
-.313205290631D-02 0.000000000000D+00 0.000000000000D+00 0.417652067670D-04 0.000000000000D+00  6 1 -1 25 2 -2 21 2 0.33851007D+00 0.45803911D-01 0.23392536D+06 0.23392536D+06 0.23392536D+06 0.10926371D+01  1  2 14  2  6  2       -1 -.491732283046D-02 0.100000000000D+01
  </mgrwgt>
  </event>
  <event>
  5     66 0.18148205E-05 0.11817111E+03 0.75467711E-02 0.94263771E-01
        1 -1    0    0  502    0 0.00000000E+00 0.00000000E+00 0.22600304E+04 0.22600304E+04 0.32000000E+00 0.0000E+00 0.9000E+01
       -1 -1    0    0    0  501 0.00000000E+00 0.00000000E+00 -.26312207E+03 0.26312227E+03 0.32000000E+00 0.0000E+00 0.9000E+01
       25  1    1    2    0    0 -.47151730E+03 0.89125223E+02 0.11081571E+04 0.12140466E+04 0.12500000E+03 0.0000E+00 0.9000E+01
        2  1    1    2  502    0 0.13904755E+03 0.72650502E+01 0.94777598E+03 0.95794906E+03 0.32000000E+00 0.0000E+00 0.9000E+01
       -2  1    1    2    0  501 0.33246975E+03 -.96390273E+02 -.59024809E+02 0.35115702E+03 0.32000000E+00 0.0000E+00 0.9000E+01
#aMCatNLO 1  0  0  2  5 0.39805055D+02 0.00000000D+00  -5  6  0 0.00000000D+00 0.00000000D+00 0.00000000D+00 0.00000000D+00 0.00000000D+00
  <mgrwgt>
 0.4345968625D-02   11    4    0
 0.771144702214713D+03 0.000000000000000D+00 0.000000000000000D+00 0.771144702214713D+03
 0.771144702214713D+03 0.000000000000000D+00 0.000000000000000D+00 -.771144702214713D+03
 0.551440373419715D+03 -.471525629012858D+03 0.891472841729397D+02 0.241200805027453D+03
 0.339866939642063D+03 0.138979518742573D+03 0.726149546235558D+01 0.310066929412659D+03
 0.650982091367649D+03 0.332546110270285D+03 -.964087796352953D+02 -.551267734440112D+03
 0.000000000000000D+00 -.000000000000000D+00 -.000000000000000D+00 -.000000000000000D+00
 0.773774730271296D+03 0.000000000000000D+00 0.000000000000000D+00 0.773774730271296D+03
 0.938308738251922D+03 0.000000000000000D+00 0.000000000000000D+00 -.938308738251922D+03
 0.539831459165572D+03 -.457553305753420D+03 0.908853582985537D+02 0.241200805027453D+03
 0.343562747787728D+03 0.147729951249608D+03 0.834999735613589D+01 0.310066929412659D+03
 0.659408777699185D+03 0.349323969161266D+03 -.943217135203656D+02 -.551267734440112D+03
 0.169280483870734D+03 -.395006146574545D+02 -.491364213432400D+01 -.164534007980626D+03
 0.771144702214713D+03 0.000000000000000D+00 0.000000000000000D+00 0.771144702214713D+03
 0.771144702214713D+03 0.000000000000000D+00 0.000000000000000D+00 -.771144702214713D+03
 0.551440373419715D+03 -.471525629012858D+03 0.891472841729397D+02 0.241200805027453D+03
 0.339866939642063D+03 0.138979518742573D+03 0.726149546235558D+01 0.310066929412659D+03
 0.000000000000000D+00 -.000000000000000D+00 -.000000000000000D+00 -.000000000000000D+00
 0.650982091367649D+03 0.332546110270285D+03 -.964087796352953D+02 -.551267734440112D+03
 0.773774730271296D+03 0.000000000000000D+00 0.000000000000000D+00 0.773774730271296D+03
 0.938308738251922D+03 0.000000000000000D+00 0.000000000000000D+00 -.938308738251922D+03
 0.539831459165572D+03 -.457553305753420D+03 0.908853582985537D+02 0.241200805027453D+03
 0.343562747787728D+03 0.147729951249608D+03 0.834999735613589D+01 0.310066929412659D+03
 0.169280483870734D+03 -.395006146574545D+02 -.491364213432400D+01 -.164534007980626D+03
 0.659408777699185D+03 0.349323969161266D+03 -.943217135203656D+02 -.551267734440112D+03
0.145905612858D-03 0.000000000000D+00 0.000000000000D+00 0.330196591729D-05 0.000000000000D+00  6 1 -1 25 2 -2 21 0 0.34769700D+00 0.40480335D-01 0.24073745D+06 0.24073745D+06 0.24073745D+06 0.10916947D+01  1  2  2  2  6  2       -1 0.217312580533D-03 0.100000000000D+01
0.136535947470D-04 0.000000000000D+00 -.560315971206D-06 0.330196591729D-05 0.000000000000D+00  6 1 -1 25 2 -2 21 2 0.34769700D+00 0.40480335D-01 0.24073745D+06 0.24073745D+06 0.24073745D+06 0.10916947D+01  1  2  3  2  6  2       -1 0.242360767736D-04 0.100000000000D+01
-.983321658817D-04 0.000000000000D+00 0.000000000000D+00 0.330196591729D-05 0.000000000000D+00  6 1 -1 25 2 -2 21 2 0.34769700D+00 0.40480335D-01 0.24073745D+06 0.24073745D+06 0.24073745D+06 0.10916947D+01  1  2 15  2  6  2       -1 -.174546408164D-03 0.100000000000D+01
0.398961172147D-07 0.000000000000D+00 0.000000000000D+00 0.330196591729D-05 0.000000000000D+00  6 1 -1 25 2 -2 21 2 0.34769700D+00 0.49314695D-01 0.26654206D+06 0.26654206D+06 0.26654206D+06 0.10883719D+01  1  2 12  2  6  2       -1 0.491923349852D-07 0.100000000000D+01
0.529258092604D-02 0.000000000000D+00 0.000000000000D+00 0.330196591729D-05 0.000000000000D+00  6 1 -1 25 2 -2 21 2 0.34769700D+00 0.50384660D-01 0.26654206D+06 0.26654206D+06 0.26654206D+06 0.10883719D+01  1  2 12  2  6  2       -1 0.627603405773D-02 0.100000000000D+01
-.276832612276D-02 0.000000000000D+00 0.000000000000D+00 0.330196591729D-05 0.000000000000D+00  6 1 -1 25 2 -2 21 2 0.34769700D+00 0.40480335D-01 0.24073745D+06 0.24073745D+06 0.24073745D+06 0.10916947D+01  1  2  4  2  6  2       -1 -.491397069334D-02 0.100000000000D+01
-.632044498682D-02 0.000000000000D+00 -.203106663759D-03 0.330196591729D-05 0.000000000000D+00  6 1 -1 25 2 -2 21 2 0.34769700D+00 0.49336608D-01 0.24073745D+06 0.24073745D+06 0.24073745D+06 0.10916947D+01  1  2  5  2  6  2       -1 -.788564782624D-02 0.100000000000D+01
0.624197217456D-02 0.000000000000D+00 0.199195216828D-03 0.330196591729D-05 0.000000000000D+00  6 1 -1 25 2 -2 21 2 0.34769700D+00 0.40480335D-01 0.24073745D+06 0.24073745D+06 0.24073745D+06 0.10916947D+01  1  2  6  2  6  2       -1 0.110799331344D-01 0.100000000000D+01
0.113031070300D-08 0.000000000000D+00 0.000000000000D+00 0.330196591729D-05 0.000000000000D+00  6 1 21 25 2 1 -2 2 0.34769700D+00 0.49314695D-01 0.26654206D+06 0.26654206D+06 0.26654206D+06 0.10883719D+01  3  4 12  6  5  2       -1 0.126323835548D-07 0.100000000000D+01
0.162207415985D-03 0.000000000000D+00 0.000000000000D+00 0.330196591729D-05 0.000000000000D+00  6 1 21 25 2 1 -2 2 0.34769700D+00 0.50384660D-01 0.26654206D+06 0.26654206D+06 0.26654206D+06 0.10883719D+01  3  4 12  6  5  2       -1 0.173047343606D-02 0.100000000000D+01
-.177080416554D-03 0.000000000000D+00 -.576423670223D-05 0.330196591729D-05 0.000000000000D+00  6 1 21 25 2 1 -2 2 0.34769700D+00 0.49336608D-01 0.24073745D+06 0.24073745D+06 0.24073745D+06 0.10916947D+01  3  4  5  6  5  2       -1 -.200791755702D-02 0.100000000000D+01
  </mgrwgt>
  </event>
  <event>
  5     66 0.18148205E-05 0.13844755E+03 0.75467711E-02 0.91540413E-01
        1 -1    0    0  502    0 0.00000000E+00 0.00000000E+00 0.14639038E+04 0.14639038E+04 0.32000000E+00 0.0000E+00 0.9000E+01
       -1 -1    0    0    0  501 0.00000000E+00 0.00000000E+00 -.10080705E+04 0.10080705E+04 0.32000000E+00 0.0000E+00 0.9000E+01
       25  1    1    2    0    0 0.19300505E+03 0.64284374E+03 -.48376226E+02 0.68444450E+03 0.12500000E+03 0.0000E+00 0.9000E+01
        2  1    1    2  502    0 0.99101037E+02 -.96699591E+02 0.99046799E+03 0.10000994E+04 0.32000000E+00 0.0000E+00 0.9000E+01
       -2  1    1    2    0  501 -.29210609E+03 -.54614415E+03 -.48625845E+03 0.78743049E+03 0.32000000E+00 0.0000E+00 0.9000E+01
#aMCatNLO 1  0  0  5  4 0.60180110D+02 0.00000000D+00  -5  6  0 0.00000000D+00 0.00000000D+00 0.00000000D+00 0.00000000D+00 0.00000000D+00
  <mgrwgt>
 0.7358375903D-03    3    2    0
 0.121479147169346D+04 0.000000000000000D+00 0.000000000000000D+00 0.121479147169346D+04
 0.121479147169346D+04 -.000000000000000D+00 -.000000000000000D+00 -.121479147169346D+04
 0.705511131494944D+03 0.193043071229069D+03 0.642904898437099D+03 -.177563005379240D+03
 0.831630537057076D+03 0.990904339088684D+02 -.966892452634202D+02 0.820025381268155D+03
 0.892441274834908D+03 -.292133505137938D+03 -.546215653173679D+03 -.642462375888915D+03
 0.000000000000000D+00 0.000000000000000D+00 0.000000000000000D+00 0.000000000000000D+00
 0.121479147169346D+04 0.000000000000000D+00 0.000000000000000D+00 0.121479147169346D+04
 0.121479147169346D+04 -.000000000000000D+00 -.000000000000000D+00 -.121479147169346D+04
 0.674912735884375D+03 0.169431105845023D+03 0.598756504404475D+03 -.229490631321628D+03
 0.777123853602703D+03 0.715729055023172D+02 -.148140052815305D+03 0.759508609423323D+03
 0.210500377047416D+03 -.117900217998002D+03 -.101511368595326D+03 0.141793474388040D+03
 0.767045976852433D+03 -.123103793349338D+03 -.349105082993844D+03 -.671811452489736D+03
0.654793330128D-02 0.000000000000D+00 0.000000000000D+00 0.415060561881D-05 0.000000000000D+00  6 1 -1 25 2 -2 21 0 0.22521598D+00 0.15508777D+00 0.51888874D+06 0.51888874D+06 0.51888874D+06 0.10673741D+01  1  2  2  4  6  5       -2 0.177073133524D-02 0.100000000000D+01
0.142846191784D-02 0.000000000000D+00 -.251457879873D-04 0.415060561881D-05 0.000000000000D+00  6 1 -1 25 2 -2 21 2 0.22521598D+00 0.15508777D+00 0.51888874D+06 0.51888874D+06 0.51888874D+06 0.10673741D+01  1  2  3  4  6  5       -2 0.440099026510D-03 0.100000000000D+01
-.478749298710D-02 0.000000000000D+00 0.000000000000D+00 0.415060561881D-05 0.000000000000D+00  6 1 -1 25 2 -2 21 2 0.22521598D+00 0.15508777D+00 0.51888874D+06 0.51888874D+06 0.51888874D+06 0.10673741D+01  1  2 15  4  6  5       -2 -.147499277141D-02 0.100000000000D+01
  </mgrwgt>
  </event>
  <event>
  5     66 0.18148205E-05 0.29742225E+02 0.75467711E-02 0.94395970E-01
        1 -1    0    0  502    0 0.00000000E+00 0.00000000E+00 0.14569360E+04 0.14569360E+04 0.32000000E+00 0.0000E+00 0.9000E+01
       -1 -1    0    0    0  501 0.00000000E+00 0.00000000E+00 -.69257101E+03 0.69257109E+03 0.32000000E+00 0.0000E+00 0.9000E+01
       25  1    1    2    0    0 -.48154004E+02 0.47948770E+03 0.39406980E+03 0.63493564E+03 0.12500000E+03 0.0000E+00 0.9000E+01
        2  1    1    2  502    0 0.21054726E+02 -.49173500E+03 0.87770728E+03 0.10062886E+04 0.32000000E+00 0.0000E+00 0.9000E+01
       -2  1    1    2    0  501 0.27099278E+02 0.12247302E+02 -.50741208E+03 0.50828288E+03 0.32000000E+00 0.0000E+00 0.9000E+01
#aMCatNLO 1  0  0  1  4 0.98870070D+00 0.00000000D+00  -5  6  0 0.00000000D+00 0.00000000D+00 0.00000000D+00 0.00000000D+00 0.00000000D+00
  <mgrwgt>
 0.1009037464D-01   13    2    0
 0.100450573368513D+04 0.000000000000000D+00 0.000000000000000D+00 0.100450573368513D+04
 0.100450573368513D+04 0.000000000000000D+00 0.000000000000000D+00 -.100450573368513D+04
 0.529406280678734D+03 -.481557044558485D+02 0.479441418222473D+03 0.180174816895355D+03
 0.742653695784626D+03 0.210528082972002D+02 -.491690212750464D+03 0.556176254267268D+03
 0.736951490906910D+03 0.271028961586483D+02 0.122487945279906D+02 -.736351071162623D+03
 0.000000000000000D+00 0.000000000000000D+00 0.000000000000000D+00 0.000000000000000D+00
 0.112103835295528D+04 0.000000000000000D+00 0.000000000000000D+00 0.112103835295528D+04
 0.100450795244506D+04 0.000000000000000D+00 0.000000000000000D+00 -.100450795244506D+04
 0.529201284678485D+03 -.482633620133718D+02 0.479204218417628D+03 0.180174816895355D+03
 0.742869847532193D+03 0.209017345267584D+02 -.492023070653712D+03 0.556176254267268D+03
 0.736940578445665D+03 0.269530052779933D+02 0.119185428628278D+02 -.736351071162623D+03
 0.116534594744001D+03 0.408622208620041D+00 0.900309373256341D+00 0.116530400510217D+03
0.259259310789D-04 0.000000000000D+00 0.000000000000D+00 0.113384493828D-03 0.000000000000D+00  6 1 -1 25 2 -2 21 0 0.22414401D+00 0.10654940D+00 0.25993997D+06 0.25993997D+06 0.25993997D+06 0.10891875D+01  1  2  2  1  6  1        1 0.197507374489D-04 0.100000000000D+01
0.168310692375D-04 0.000000000000D+00 -.995624017974D-07 0.113384493828D-03 0.000000000000D+00  6 1 -1 25 2 -2 21 2 0.22414401D+00 0.10654940D+00 0.25993997D+06 0.25993997D+06 0.25993997D+06 0.10891875D+01  1  2  3  1  6  1        1 0.152112875259D-04 0.100000000000D+01
-.182269301024D-04 0.000000000000D+00 0.000000000000D+00 0.113384493828D-03 0.000000000000D+00  6 1 -1 25 2 -2 21 2 0.22414401D+00 0.10654940D+00 0.25993997D+06 0.25993997D+06 0.25993997D+06 0.10891875D+01  1  2 15  1  6  1        1 -.164728140910D-04 0.100000000000D+01
0.367733507955D-12 0.000000000000D+00 0.000000000000D+00 0.113384493828D-03 0.000000000000D+00  6 1 -1 25 2 -2 21 2 0.25014717D+00 0.10654940D+00 0.26036085D+06 0.26036085D+06 0.26036085D+06 0.10891349D+01  1  2 12  1  6  1        1 0.256009255348D-12 0.100000000000D+01
0.103745696693D-04 0.000000000000D+00 0.000000000000D+00 0.113384493828D-03 0.000000000000D+00  6 1 -1 25 2 -2 21 2 0.25014972D+00 0.10654940D+00 0.26036085D+06 0.26036085D+06 0.26036085D+06 0.10891349D+01  1  2 12  1  6  1        1 0.722239949802D-05 0.100000000000D+01
-.116738914561D+01 0.000000000000D+00 0.000000000000D+00 0.113384493828D-03 0.000000000000D+00  6 1 -1 25 2 -2 21 2 0.22414401D+00 0.10654940D+00 0.25993997D+06 0.25993997D+06 0.25993997D+06 0.10891875D+01  1  2  4  1  6  1        1 -.105504241578D+01 0.100000000000D+01
-.119946876011D+01 0.000000000000D+00 -.481738860548D-04 0.113384493828D-03 0.000000000000D+00  6 1 -1 25 2 -2 21 2 0.25014713D+00 0.10654940D+00 0.25993997D+06 0.25993997D+06 0.25993997D+06 0.10891875D+01  1  2  5  1  6  1        1 -.835223703385D+00 0.100000000000D+01
0.119228517108D+01 0.000000000000D+00 0.478851512132D-04 0.113384493828D-03 0.000000000000D+00  6 1 -1 25 2 -2 21 2 0.22414401D+00 0.10654940D+00 0.25993997D+06 0.25993997D+06 0.25993997D+06 0.10891875D+01  1  2  6  1  6  1        1 0.107754250751D+01 0.100000000000D+01
0.118178393940D+01 0.000000000000D+00 0.000000000000D+00 0.113384493828D-03 0.727417373761D-03  6 1 -1 25 2 -2 21 2 0.25014694D+00 0.10654963D+00 0.26036085D+06 0.26036085D+06 0.26036085D+06 0.10891349D+01  1  2 11  1  6  1        1 0.822733781227D+00 0.100000000000D+01
0.646987686812D-14 0.000000000000D+00 0.000000000000D+00 0.113384493828D-03 0.000000000000D+00  6 21 -1 25 2 -2 -1 2 0.25014717D+00 0.10654940D+00 0.26036085D+06 0.26036085D+06 0.26036085D+06 0.10891349D+01  1  2 12  5  6  1        1 0.313132729501D-14 0.100000000000D+01
0.182529431961D-06 0.000000000000D+00 0.000000000000D+00 0.113384493828D-03 0.000000000000D+00  6 21 -1 25 2 -2 -1 2 0.25014972D+00 0.10654940D+00 0.26036085D+06 0.26036085D+06 0.26036085D+06 0.10891349D+01  1  2 12  5  6  1        1 0.883380681287D-07 0.100000000000D+01
-.211029443502D-01 0.000000000000D+00 -.847558496990D-06 0.113384493828D-03 0.000000000000D+00  6 21 -1 25 2 -2 -1 2 0.25014713D+00 0.10654940D+00 0.25993997D+06 0.25993997D+06 0.25993997D+06 0.10891875D+01  1  2  5  5  6  1        1 -.102164106236D-01 0.100000000000D+01
0.212213557516D-01 0.000000000000D+00 0.000000000000D+00 0.113384493828D-03 0.130622297917D-04  6 21 -1 25 2 -2 -1 2 0.25014694D+00 0.10654963D+00 0.26036085D+06 0.26036085D+06 0.26036085D+06 0.10891349D+01  1  2 11  5  6  1        1 0.102708157417D-01 0.100000000000D+01
  </mgrwgt>
  </event>
  <event>
  5     66 -.18148205E-05 0.21962741E+02 0.75467711E-02 0.93466839E-01
        1 -1    0    0  502    0 0.00000000E+00 0.00000000E+00 0.30920489E+04 0.30920489E+04 0.32000000E+00 0.0000E+00 0.9000E+01
       -1 -1    0    0    0  501 0.00000000E+00 0.00000000E+00 -.19391653E+03 0.19391679E+03 0.32000000E+00 0.0000E+00 0.9000E+01
       25  1    1    2    0    0 -.47209236E+03 -.26560932E+03 0.10099927E+04 0.11528789E+04 0.12500000E+03 0.0000E+00 0.9000E+01
        2  1    1    2  502    0 0.45328017E+03 0.27693786E+03 0.19741254E+04 0.20443406E+04 0.32000000E+00 0.0000E+00 0.9000E+01
       -2  1    1    2    0  501 0.18812187E+02 -.11328543E+02 -.85985721E+02 0.88746160E+02 0.32000000E+00 0.0000E+00 0.9000E+01
#aMCatNLO 1  0  0  1  4 0.98870070D+00 0.00000000D+00  -5  6  0 0.00000000D+00 0.00000000D+00 0.00000000D+00 0.00000000D+00 0.00000000D+00
  <mgrwgt>
 -.1350396140D-02    1    2    0
 0.774338325207815D+03 0.000000000000000D+00 0.000000000000000D+00 0.774338325207815D+03
 0.774338325207815D+03 0.000000000000000D+00 0.000000000000000D+00 -.774338325207815D+03
 0.556080752523276D+03 -.472073324046849D+03 -.265594788948993D+03 -.143870821694523D+02
 0.643329157239546D+03 0.453258530942651D+03 0.276924641525476D+03 0.362962603580921D+03
 0.349266740652808D+03 0.188147931041984D+02 -.113298525764828D+02 -.348575521411469D+03
 0.000000000000000D+00 0.000000000000000D+00 0.000000000000000D+00 0.000000000000000D+00
 0.102644702432364D+04 0.000000000000000D+00 0.000000000000000D+00 0.102644702432364D+04
 0.866309864183577D+03 0.000000000000000D+00 0.000000000000000D+00 -.866309864183577D+03
 0.659348873051440D+03 -.575066725667858D+03 -.296996985322246D+03 -.143870821694523D+02
 0.561659919240821D+03 0.351149843371219D+03 0.245792190241538D+03 0.362962603580921D+03
 0.352168442628067D+03 -.406236095993664D+02 -.294523377496403D+02 -.348575521411469D+03
 0.319579653586891D+03 0.264540491896005D+03 0.806571328303480D+02 0.160137160140065D+03
-.181044275255D-02 0.000000000000D+00 0.000000000000D+00 0.191547860868D-04 0.000000000000D+00  6 1 -1 25 2 -2 21 2 0.47569985D+00 0.29833334D-01 0.30747967D+06 0.30747967D+06 0.30747967D+06 0.10837615D+01  1  2 14  1  6  1        1 -.135039613981D-02 0.100000000000D+01
  </mgrwgt>
  </event>
  <event>
  5     66 -.18148205E-05 0.12212770E+03 0.75467711E-02 0.87877905E-01
        1 -1    0    0  502    0 0.00000000E+00 0.00000000E+00 0.16983551E+04 0.16983551E+04 0.32000000E+00 0.0000E+00 0.9000E+01
       -1 -1    0    0    0  501 0.00000000E+00 0.00000000E+00 -.14439303E+04 0.14439303E+04 0.32000000E+00 0.0000E+00 0.9000E+01
       25  1    1    2    0    0 0.78355660E+03 0.42333600E+03 0.61635379E+03 0.10902712E+04 0.12500000E+03 0.0000E+00 0.9000E+01
        2  1    1    2  502    0 -.96348436E+02 0.75103704E+02 0.68973031E+03 0.70046526E+03 0.32000000E+00 0.0000E+00 0.9000E+01
       -2  1    1    2    0  501 -.68720816E+03 -.49843970E+03 -.10516593E+04 0.13515490E+04 0.32000000E+00 0.0000E+00 0.9000E+01
#aMCatNLO 1  0  0  2  5 0.37325125D+02 0.00000000D+00  -5  6  0 0.00000000D+00 0.00000000D+00 0.00000000D+00 0.00000000D+00 0.00000000D+00
  <mgrwgt>
 -.2805544477D-03   11    4    0
 0.156598418430548D+04 0.000000000000000D+00 0.000000000000000D+00 0.156598418430548D+04
 0.156598418430548D+04 0.000000000000000D+00 0.000000000000000D+00 -.156598418430548D+04
 0.104393804506134D+04 0.783603476195344D+03 0.423402607496951D+03 0.529978741069727D+03
 0.646560202052631D+03 -.963212763038871D+02 0.750825328489235D+02 0.634921191858107D+03
 0.144147012149699D+04 -.687282199891456D+03 -.498485140345874D+03 -.116489993292783D+04
 0.000000000000000D+00 -.000000000000000D+00 -.000000000000000D+00 -.000000000000000D+00
 0.156784325198081D+04 0.000000000000000D+00 0.000000000000000D+00 0.156784325198081D+04
 0.176536189990339D+04 0.000000000000000D+00 0.000000000000000D+00 -.176536189990339D+04
 0.105429855301294D+04 0.795729298114178D+03 0.426447953473851D+03 0.529978741069727D+03
 0.645710738255698D+03 -.888531731798426D+02 0.769581135688218D+02 0.634921191858107D+03
 0.143218147989445D+04 -.670675213049636D+03 -.494314369827744D+03 -.116489993292783D+04
 0.201014380721116D+03 -.362009118846985D+02 -.909169721492901D+01 -.197518647922575D+03
 0.156598418430548D+04 0.000000000000000D+00 0.000000000000000D+00 0.156598418430548D+04
 0.156598418430548D+04 0.000000000000000D+00 0.000000000000000D+00 -.156598418430548D+04
 0.104393804506134D+04 0.783603476195344D+03 0.423402607496951D+03 0.529978741069727D+03
 0.646560202052631D+03 -.963212763038871D+02 0.750825328489235D+02 0.634921191858107D+03
 0.000000000000000D+00 -.000000000000000D+00 -.000000000000000D+00 -.000000000000000D+00
 0.144147012149699D+04 -.687282199891456D+03 -.498485140345874D+03 -.116489993292783D+04
 0.156784325198081D+04 0.000000000000000D+00 0.000000000000000D+00 0.156784325198081D+04
 0.176536189990339D+04 0.000000000000000D+00 0.000000000000000D+00 -.176536189990339D+04
 0.105429855301294D+04 0.795729298114178D+03 0.426447953473851D+03 0.529978741069727D+03
 0.645710738255698D+03 -.888531731798426D+02 0.769581135688218D+02 0.634921191858107D+03
 0.201014380721116D+03 -.362009118846985D+02 -.909169721492901D+01 -.197518647922575D+03
 0.143218147989445D+04 -.670675213049636D+03 -.494314369827744D+03 -.116489993292783D+04
0.733364322243D-04 0.000000000000D+00 0.000000000000D+00 0.293254674839D-05 0.000000000000D+00  6 1 -1 25 2 -2 21 0 0.26128540D+00 0.22214313D+00 0.87474688D+06 0.87474688D+06 0.87474688D+06 0.10517547D+01  1  2  2  2  6  2       -1 0.370421002152D-05 0.100000000000D+01
0.163018454514D-04 0.000000000000D+00 -.281631209667D-06 0.293254674839D-05 0.000000000000D+00  6 1 -1 25 2 -2 21 2 0.26128540D+00 0.22214313D+00 0.87474688D+06 0.87474688D+06 0.87474688D+06 0.10517547D+01  1  2  3  2  6  2       -1 0.910838789446D-06 0.100000000000D+01
-.494578329957D-04 0.000000000000D+00 0.000000000000D+00 0.293254674839D-05 0.000000000000D+00  6 1 -1 25 2 -2 21 2 0.26128540D+00 0.22214313D+00 0.87474688D+06 0.87474688D+06 0.87474688D+06 0.10517547D+01  1  2 15  2  6  2       -1 -.276337503437D-05 0.100000000000D+01
0.223208988399D-08 0.000000000000D+00 0.000000000000D+00 0.293254674839D-05 0.000000000000D+00  6 1 -1 25 2 -2 21 2 0.26128540D+00 0.25054781D+00 0.90196847D+06 0.90196847D+06 0.90196847D+06 0.10508598D+01  1  2 12  2  6  2       -1 0.721006751324D-10 0.100000000000D+01
0.629930942979D-02 0.000000000000D+00 0.000000000000D+00 0.293254674839D-05 0.000000000000D+00  6 1 -1 25 2 -2 21 2 0.26128540D+00 0.25198089D+00 0.90196847D+06 0.90196847D+06 0.90196847D+06 0.10508598D+01  1  2 12  2  6  2       -1 0.197912451701D-03 0.100000000000D+01
-.114300051150D-01 0.000000000000D+00 0.000000000000D+00 0.293254674839D-05 0.000000000000D+00  6 1 -1 25 2 -2 21 2 0.26128540D+00 0.22214313D+00 0.87474688D+06 0.87474688D+06 0.87474688D+06 0.10517547D+01  1  2  4  2  6  2       -1 -.638632727402D-03 0.100000000000D+01
-.694547070105D-02 0.000000000000D+00 -.129510255060D-03 0.293254674839D-05 0.000000000000D+00  6 1 -1 25 2 -2 21 2 0.26128540D+00 0.25053187D+00 0.87474688D+06 0.87474688D+06 0.87474688D+06 0.10517547D+01  1  2  5  2  6  2       -1 -.225495047870D-03 0.100000000000D+01
0.691193152959D-02 0.000000000000D+00 0.128579281272D-03 0.293254674839D-05 0.000000000000D+00  6 1 -1 25 2 -2 21 2 0.26128540D+00 0.22214313D+00 0.87474688D+06 0.87474688D+06 0.87474688D+06 0.10517547D+01  1  2  6  2  6  2       -1 0.386192800437D-03 0.100000000000D+01
0.424483936994D-10 0.000000000000D+00 0.000000000000D+00 0.293254674839D-05 0.000000000000D+00  6 1 21 25 2 1 -2 2 0.26128540D+00 0.25054781D+00 0.90196847D+06 0.90196847D+06 0.90196847D+06 0.10508598D+01  3  4 12  6  5  2       -1 0.965696636647D-11 0.100000000000D+01
0.124532715478D-03 0.000000000000D+00 0.000000000000D+00 0.293254674839D-05 0.000000000000D+00  6 1 21 25 2 1 -2 2 0.26128540D+00 0.25198089D+00 0.90196847D+06 0.90196847D+06 0.90196847D+06 0.10508598D+01  3  4 12  6  5  2       -1 0.276901178034D-04 0.100000000000D+01
-.131424220523D-03 0.000000000000D+00 -.246184519167D-05 0.293254674839D-05 0.000000000000D+00  6 1 21 25 2 1 -2 2 0.26128540D+00 0.25053187D+00 0.87474688D+06 0.87474688D+06 0.87474688D+06 0.10517547D+01  3  4  5  6  5  2       -1 -.300737978830D-04 0.100000000000D+01
  </mgrwgt>
  </event>
  <event>
  5     66 -.18148205E-05 0.41073520E+02 0.75467711E-02 0.94281184E-01
        1 -1    0    0  502    0 0.00000000E+00 0.00000000E+00 0.11095075E+04 0.11095075E+04 0.32000000E+00 0.0000E+00 0.9000E+01
       -1 -1    0    0    0  501 0.00000000E+00 0.00000000E+00 -.69385809E+03 0.69385816E+03 0.32000000E+00 0.0000E+00 0.9000E+01
       25  1    1    2    0    0 0.62425259E+02 -.50097247E+03 -.15900541E+03 0.54385480E+03 0.12500000E+03 0.0000E+00 0.9000E+01
        2  1    1    2  502    0 -.37544683E+02 0.46829488E+03 0.85532366E+03 0.97585263E+03 0.32000000E+00 0.0000E+00 0.9000E+01
       -2  1    1    2    0  501 -.24880576E+02 0.32677590E+02 -.28066888E+03 0.28365823E+03 0.32000000E+00 0.0000E+00 0.9000E+01
#aMCatNLO 1  0  0  4  2 0.16556884D+03 0.00000000D+00  -5  6  0 0.00000000D+00 0.00000000D+00 0.00000000D+00 0.00000000D+00 0.00000000D+00
  <mgrwgt>
 -.4361540492D-03    1    2    0
 0.877405737692837D+03 0.000000000000000D+00 0.000000000000000D+00 0.877405737692837D+03
 0.877405737692837D+03 -.000000000000000D+00 -.000000000000000D+00 -.877405737692837D+03
 0.596552810427126D+03 0.624260668818178D+02 -.500970859572984D+03 -.292201026111948D+03
 0.800253652575666D+03 -.375444156097166D+02 0.468291546666911D+03 0.647842073840170D+03
 0.358005012382882D+03 -.248816512721013D+02 0.326793129060733D+02 -.355641047728222D+03
 0.000000000000000D+00 0.000000000000000D+00 0.000000000000000D+00 0.000000000000000D+00
 0.877405737692837D+03 0.000000000000000D+00 0.000000000000000D+00 0.877405737692837D+03
 0.877405737692837D+03 -.000000000000000D+00 -.000000000000000D+00 -.877405737692837D+03
 0.470319391815409D+03 0.555483871987733D+02 -.415185551586489D+03 -.173524248308570D+03
 0.723852152781699D+03 -.246449701856999D+03 0.471235512645375D+03 0.491082045246155D+03
 0.296823335547114D+03 -.291030562491670D+02 0.853329028931263D+02 -.282799222640559D+03
 0.263816595241453D+03 0.220004370907393D+03 -.141382863952013D+03 -.347585742970256D+02
-.278071759172D-03 0.000000000000D+00 0.000000000000D+00 0.472533131096D-04 0.000000000000D+00  6 1 -1 25 2 -2 21 2 0.17069346D+00 0.10674741D+00 0.26571854D+06 0.26571854D+06 0.26571854D+06 0.10884725D+01  1  2 14  3  6  4        2 -.436154049151D-03 0.100000000000D+01
  </mgrwgt>
  </event>
  <event>
  5     66 0.18148205E-05 0.10083612E+03 0.75467711E-02 0.89168512E-01
        1 -1    0    0  502    0 0.00000000E+00 0.00000000E+00 0.18804617E+04 0.18804617E+04 0.32000000E+00 0.0000E+00 0.9000E+01
       -1 -1    0    0    0  501 0.00000000E+00 0.00000000E+00 -.42525404E+03 0.42525416E+03 0.32000000E+00 0.0000E+00 0.9000E+01
       25  1    1    2    0    0 -.58529634E+03 -.13896472E+03 0.76990671E+03 0.98501997E+03 0.12500000E+03 0.0000E+00 0.9000E+01
        2  1    1    2  502    0 0.49097117E+03 0.10336720E+03 0.92962893E+03 0.10563842E+04 0.32000000E+00 0.0000E+00 0.9000E+01
       -2  1    1    2    0  501 0.94325168E+02 0.35597527E+02 -.24432799E+03 0.26431173E+03 0.32000000E+00 0.0000E+00 0.9000E+01
#aMCatNLO 1  0  0  2  5 0.37325125D+02 0.00000000D+00  -5  6  0 0.00000000D+00 0.00000000D+00 0.00000000D+00 0.00000000D+00 0.00000000D+00
  <mgrwgt>
 0.3522540075D-03    4    2    0
 0.894244988589686D+03 0.000000000000000D+00 0.000000000000000D+00 0.894244988589686D+03
 0.894244988589686D+03 0.000000000000000D+00 0.000000000000000D+00 -.894244988589686D+03
 0.643440238503853D+03 -.585242138216984D+03 -.138955760179600D+03 0.191241409987528D+03
 0.605406178610136D+03 0.490900629500197D+03 0.103352345707247D+03 0.338897485520988D+03
 0.539643560065382D+03 0.943415087167871D+02 0.356034144723536D+02 -.530138895508517D+03
 0.000000000000000D+00 -.000000000000000D+00 0.000000000000000D+00 0.000000000000000D+00
 0.123517595775443D+04 0.000000000000000D+00 0.000000000000000D+00 0.123517595775443D+04
 0.100072782452671D+04 0.000000000000000D+00 0.000000000000000D+00 -.100072782452671D+04
 0.566106858876538D+03 -.482136773106550D+03 -.189269201909463D+03 0.191241409987528D+03
 0.692173425510490D+03 0.601510145353248D+03 0.493770222633092D+02 0.338897485520988D+03
 0.562682732771177D+03 0.188307055936814D+03 -.102499713296928D+02 -.530138895508517D+03
 0.414940765122933D+03 -.307680428183512D+03 0.150142150975847D+03 0.234448133227718D+03
0.797544401547D-03 0.000000000000D+00 0.000000000000D+00 0.315409320126D-05 0.000000000000D+00  6 1 -1 25 2 -2 21 0 0.28930181D+00 0.65423710D-01 0.37018806D+06 0.37018806D+06 0.37018806D+06 0.10778610D+01  1  2  2  2  6  2       -1 0.860255030946D-03 0.100000000000D+01
0.180412213466D-03 0.000000000000D+00 -.306278050020D-05 0.315409320126D-05 0.000000000000D+00  6 1 -1 25 2 -2 21 2 0.28930181D+00 0.65423710D-01 0.37018806D+06 0.37018806D+06 0.37018806D+06 0.10778610D+01  1  2  3  2  6  2       -1 0.226080842192D-03 0.100000000000D+01
-.554062931905D-03 0.000000000000D+00 0.000000000000D+00 0.315409320126D-05 0.000000000000D+00  6 1 -1 25 2 -2 21 2 0.28930181D+00 0.65423710D-01 0.37018806D+06 0.37018806D+06 0.37018806D+06 0.10778610D+01  1  2 15  2  6  2       -1 -.694315600183D-03 0.100000000000D+01
-.317334273162D-04 0.000000000000D+00 0.000000000000D+00 0.315409320126D-05 0.000000000000D+00  6 1 -1 25 2 -2 21 2 0.28930181D+00 0.65423710D-01 0.37018806D+06 0.37018806D+06 0.37018806D+06 0.10778610D+01  1  2  4  2  6  2       -1 -.397662654622D-04 0.100000000000D+01
  </mgrwgt>
  </event>
  <event>
  5     66 0.18148205E-05 0.29453875E+02 0.75467711E-02 0.92372152E-01
        1 -1    0    0  502    0 0.00000000E+00 0.00000000E+00 0.11929545E+04 0.11929545E+04 0.32000000E+00 0.0000E+00 0.9000E+01
       -1 -1    0    0    0  501 0.00000000E+00 0.00000000E+00 -.10180936E+04 0.10180936E+04 0.32000000E+00 0.0000E+00 0.9000E+01
       25  1    1    2    0    0 0.39599980E+03 -.42817241E+03 -.51121228E+03 0.78556378E+03 0.12500000E+03 0.0000E+00 0.9000E+01
        2  1    1    2  502    0 -.36971283E+03 0.41488295E+03 0.98187145E+03 0.11282230E+04 0.32000000E+00 0.0000E+00 0.9000E+01
       -2  1    1    2    0  501 -.26286970E+02 0.13289455E+02 -.29579826E+03 0.29726138E+03 0.32000000E+00 0.0000E+00 0.9000E+01
#aMCatNLO 1  0  0  5  2 0.71236747D+01 0.00000000D+00  -5  6  0 0.00000000D+00 0.00000000D+00 0.00000000D+00 0.00000000D+00 0.00000000D+00
  <mgrwgt>
 0.2214095153D-02    6    2    0
 0.110206142247703D+04 0.000000000000000D+00 0.000000000000000D+00 0.110206142247703D+04
 0.110206142247703D+04 -.000000000000000D+00 -.000000000000000D+00 -.110206142247703D+04
 0.828608841783313D+03 0.396000074528102D+03 -.428173567022043D+03 -.575168627585721D+03
 0.105387687195283D+04 -.369714394896812D+03 0.414884706826084D+03 0.895454302287392D+03
 0.321637131217916D+03 -.262856796312909D+02 0.132888601959597D+02 -.320285674701671D+03
 0.000000000000000D+00 -.000000000000000D+00 0.000000000000000D+00 0.000000000000000D+00
 0.110206142247703D+04 0.000000000000000D+00 0.000000000000000D+00 0.110206142247703D+04
 0.110206142247703D+04 -.000000000000000D+00 -.000000000000000D+00 -.110206142247703D+04
 0.830348279903597D+03 0.395775079038902D+03 -.428059819398141D+03 -.577910151985102D+03
 0.105108026563189D+04 -.369999878984813D+03 0.415029034771445D+03 0.891975736580719D+03
 0.150221683934395D+03 0.159373183475501D+02 0.255119624704079D+02 -.147179128883421D+03
 0.172472615484175D+03 -.417125184016392D+02 -.124811778437119D+02 -.166886455712196D+03
0.998988937204D-03 0.000000000000D+00 0.000000000000D+00 0.676318120294D-04 0.000000000000D+00  6 1 -1 25 2 -2 21 0 0.18353146D+00 0.15662979D+00 0.34906563D+06 0.34906563D+06 0.34906563D+06 0.10797180D+01  1  2  2  4  6  5       -2 0.416859231308D-03 0.100000000000D+01
0.418281913184D-03 0.000000000000D+00 -.383638055869D-05 0.676318120294D-04 0.000000000000D+00  6 1 -1 25 2 -2 21 2 0.18353146D+00 0.15662979D+00 0.34906563D+06 0.34906563D+06 0.34906563D+06 0.10797180D+01  1  2  3  4  6  5       -2 0.203478508210D-03 0.100000000000D+01
-.671649788004D-03 0.000000000000D+00 0.000000000000D+00 0.676318120294D-04 0.000000000000D+00  6 1 -1 25 2 -2 21 2 0.18353146D+00 0.15662979D+00 0.34906563D+06 0.34906563D+06 0.34906563D+06 0.10797180D+01  1  2 15  4  6  5       -2 -.326732504072D-03 0.100000000000D+01
-.300902686271D-03 0.000000000000D+00 0.000000000000D+00 0.676318120294D-04 0.000000000000D+00  6 1 -1 25 2 -2 21 2 0.18353146D+00 0.15662979D+00 0.34906563D+06 0.34906563D+06 0.34906563D+06 0.10797180D+01  1  2  4  4  6  5       -2 -.146377903966D-03 0.100000000000D+01
-.378961231323D-02 0.000000000000D+00 0.000000000000D+00 0.676318120294D-04 0.000000000000D+00  6 1 -1 25 2 -2 21 2 0.18353146D+00 0.15662979D+00 0.34906563D+06 0.34906563D+06 0.34906563D+06 0.10797180D+01  1  2  5  4  6  5       -2 -.184350466966D-02 0.100000000000D+01
0.803838253629D-02 0.000000000000D+00 -.000000000000D+00 0.676318120294D-04 0.000000000000D+00  6 1 -1 25 2 -2 21 2 0.18353146D+00 0.15662979D+00 0.34906563D+06 0.34906563D+06 0.34906563D+06 0.10797180D+01  1  2  6  4  6  5       -2 0.391037249126D-02 0.100000000000D+01
  </mgrwgt>
  </event>
  <event>
  5     66 0.18148205E-05 0.81445888E+02 0.75467711E-02 0.90559239E-01
        1 -1    0    0  502    0 0.00000000E+00 0.00000000E+00 0.21348295E+04 0.21348295E+04 0.32000000E+00 0.0000E+00 0.9000E+01
       -1 -1    0    0    0  501 0.00000000E+00 0.00000000E+00 -.66646500E+03 0.66646508E+03 0.32000000E+00 0.0000E+00 0.9000E+01
       25  1    1    2    0    0 0.45868010E+03 0.31206041E+03 0.44425929E+03 0.72163734E+03 0.12500000E+03 0.0000E+00 0.9000E+01
        2  1    1    2  502    0 0.49055797E+02 -.65027807E+02 0.13993361E+04 0.14017050E+04 0.32000000E+00 0.0000E+00 0.9000E+01
       -2  1    1    2    0  501 -.50773590E+03 -.24703261E+03 -.37523098E+03 0.67795224E+03 0.32000000E+00 0.0000E+00 0.9000E+01
#aMCatNLO 1  0  0  1  2 0.14359332D+03 0.00000000D+00  -5  6  0 0.00000000D+00 0.00000000D+00 0.00000000D+00 0.00000000D+00 0.00000000D+00
  <mgrwgt>
 0.1022168349D-01    7    2    0
 0.119280730190622D+04 0.000000000000000D+00 0.000000000000000D+00 0.119280730190622D+04
 0.119280730190622D+04 0.000000000000000D+00 0.000000000000000D+00 -.119280730190622D+04
 0.574010174574382D+03 0.458745618820507D+03 0.312085694240312D+03 0.775735597896942D+02
 0.784543965857422D+03 0.490496813742830D+02 -.650196999192214D+02 0.780304941508630D+03
 0.102706046338064D+04 -.507795300194790D+03 -.247065994321090D+03 -.857878501298324D+03
 0.000000000000000D+00 -.000000000000000D+00 -.000000000000000D+00 0.000000000000000D+00
 0.156400783658155D+04 0.000000000000000D+00 0.000000000000000D+00 0.156400783658155D+04
 0.123591851467238D+04 0.000000000000000D+00 0.000000000000000D+00 -.123591851467238D+04
 0.628960825129618D+03 0.514694741717569D+03 0.330209608003112D+03 0.775735597896942D+02
 0.790912782365050D+03 0.122322788745113D+03 -.412839305209302D+02 0.780304941508630D+03
 0.977171943579747D+03 -.414580214146253D+03 -.216870307714100D+03 -.857878501298324D+03
 0.402880800179520D+03 -.222437316316429D+03 -.720553697680821D+02 0.328089321909171D+03
0.110507083795D-01 0.000000000000D+00 0.000000000000D+00 0.456094988642D-04 0.000000000000D+00  6 1 -1 25 2 -2 21 0 0.32843531D+00 0.10253308D+00 0.36899574D+06 0.36899574D+06 0.36899574D+06 0.10779627D+01  1  2  2  1  6  1        1 0.316281661441D-02 0.100000000000D+01
0.349836992092D-02 0.000000000000D+00 -.424376298958D-04 0.456094988642D-04 0.000000000000D+00  6 1 -1 25 2 -2 21 2 0.32843531D+00 0.10253308D+00 0.36899574D+06 0.36899574D+06 0.36899574D+06 0.10779627D+01  1  2  3  1  6  1        1 0.116347502709D-02 0.100000000000D+01
-.783504746243D-02 0.000000000000D+00 0.000000000000D+00 0.456094988642D-04 0.000000000000D+00  6 1 -1 25 2 -2 21 2 0.32843531D+00 0.10253308D+00 0.36899574D+06 0.36899574D+06 0.36899574D+06 0.10779627D+01  1  2 15  1  6  1        1 -.260575132553D-02 0.100000000000D+01
-.449983987968D-03 0.000000000000D+00 0.000000000000D+00 0.456094988642D-04 0.000000000000D+00  6 1 -1 25 2 -2 21 2 0.32843531D+00 0.10253308D+00 0.36899574D+06 0.36899574D+06 0.36899574D+06 0.10779627D+01  1  2  4  1  6  1        1 -.149654022996D-03 0.100000000000D+01
-.375672249130D-01 0.000000000000D+00 -.780173179088D-02 0.456094988642D-04 0.000000000000D+00  6 1 -1 25 2 -2 21 2 0.43485893D+00 0.10253308D+00 0.36899574D+06 0.36899574D+06 0.36899574D+06 0.10779627D+01  1  2  5  1  6  1        1 -.412787549330D-02 0.100000000000D+01
0.385269627658D-01 0.000000000000D+00 0.750418756656D-02 0.456094988642D-04 0.000000000000D+00  6 1 -1 25 2 -2 21 2 0.32843531D+00 0.10253308D+00 0.36899574D+06 0.36899574D+06 0.36899574D+06 0.10779627D+01  1  2  6  1  6  1        1 0.128131558586D-01 0.100000000000D+01
-.122622176040D-02 0.000000000000D+00 -.287380365971D-03 0.456094988642D-04 0.000000000000D+00  6 21 -1 25 2 -2 -1 2 0.43485893D+00 0.10253308D+00 0.36899574D+06 0.36899574D+06 0.36899574D+06 0.10779627D+01  1  2  5  5  6  1        1 -.344831698735D-04 0.100000000000D+01
  </mgrwgt>
  </event>
  <event>
  5     66 0.18148205E-05 0.53480071E+02 0.75467711E-02 0.92653308E-01
        1 -1    0    0  502    0 0.00000000E+00 0.00000000E+00 0.61028641E+03 0.61028650E+03 0.32000000E+00 0.0000E+00 0.9000E+01
       -1 -1    0    0    0  501 0.00000000E+00 0.00000000E+00 -.14517650E+04 0.14517650E+04 0.32000000E+00 0.0000E+00 0.9000E+01
       25  1    1    2    0    0 0.33587332E+03 -.40768964E+03 -.59341600E+03 0.80423210E+03 0.12500000E+03 0.0000E+00 0.9000E+01
        2  1    1    2  502    0 -.35030660E+03 0.45918650E+03 0.33808976E+03 0.66923220E+03 0.32000000E+00 0.0000E+00 0.9000E+01
       -2  1    1    2    0  501 0.14433280E+02 -.51496865E+02 -.58615230E+03 0.58858718E+03 0.32000000E+00 0.0000E+00 0.9000E+01
#aMCatNLO 1  0  0  2  1 0.21915376D+02 0.00000000D+00  -5  6  0 0.00000000D+00 0.00000000D+00 0.00000000D+00 0.00000000D+00 0.00000000D+00
  <mgrwgt>
 0.7987559269D-02    9    4    0
 0.941271771141022D+03 0.000000000000000D+00 0.000000000000000D+00 0.941271771141022D+03
 0.941271771141022D+03 0.000000000000000D+00 0.000000000000000D+00 -.941271771141022D+03
 0.615674561203588D+03 0.335874503601614D+03 -.407691829651746D+03 -.290526857930229D+03
 0.884170908855887D+03 -.350307400099944D+03 0.459187553080786D+03 0.669469724930070D+03
 0.382698072222570D+03 0.144328964983304D+02 -.514957234290396D+02 -.378942866999841D+03
 0.000000000000000D+00 -.000000000000000D+00 -.000000000000000D+00 -.000000000000000D+00
 0.945410361566322D+03 0.000000000000000D+00 0.000000000000000D+00 0.945410361566322D+03
 0.970802173592465D+03 0.000000000000000D+00 0.000000000000000D+00 -.970802173592465D+03
 0.614142008458956D+03 0.340049887882239D+03 -.401877624565570D+03 -.290526857930229D+03
 0.886194011615052D+03 -.344296785149510D+03 0.467557309171984D+03 0.669469724930070D+03
 0.382335080334913D+03 0.170302817329612D+02 -.478788753913574D+02 -.378942866999841D+03
 0.335414347498653D+02 -.127833844656900D+02 -.178008092150565D+02 -.253918120261431D+02
 0.941271771141022D+03 0.000000000000000D+00 0.000000000000000D+00 0.941271771141022D+03
 0.941271771141022D+03 0.000000000000000D+00 0.000000000000000D+00 -.941271771141022D+03
 0.615674561203588D+03 0.335874503601614D+03 -.407691829651746D+03 -.290526857930229D+03
 0.884170908855887D+03 -.350307400099944D+03 0.459187553080786D+03 0.669469724930070D+03
 0.000000000000000D+00 -.000000000000000D+00 -.000000000000000D+00 -.000000000000000D+00
 0.382698072222570D+03 0.144328964983304D+02 -.514957234290396D+02 -.378942866999841D+03
 0.945410361566322D+03 0.000000000000000D+00 0.000000000000000D+00 0.945410361566322D+03
 0.970802173592465D+03 0.000000000000000D+00 0.000000000000000D+00 -.970802173592465D+03
 0.614142008458956D+03 0.340049887882239D+03 -.401877624565570D+03 -.290526857930229D+03
 0.886194011615052D+03 -.344296785149510D+03 0.467557309171984D+03 0.669469724930070D+03
 0.335414347498653D+02 -.127833844656900D+02 -.178008092150565D+02 -.253918120261431D+02
 0.382335080334913D+03 0.170302817329612D+02 -.478788753913574D+02 -.378942866999841D+03
0.308147578551D-02 0.000000000000D+00 0.000000000000D+00 0.170390944785D-04 0.000000000000D+00  6 1 -1 25 2 -2 21 0 0.93890226D-01 0.22334846D+00 0.34448098D+06 0.34448098D+06 0.34448098D+06 0.10801373D+01  1  2  2  2  6  2       -1 0.112465851278D-02 0.100000000000D+01
0.963932710861D-03 0.000000000000D+00 -.118336783875D-04 0.170390944785D-04 0.000000000000D+00  6 1 -1 25 2 -2 21 2 0.93890226D-01 0.22334846D+00 0.34448098D+06 0.34448098D+06 0.34448098D+06 0.10801373D+01  1  2  3  2  6  2       -1 0.410455959724D-03 0.100000000000D+01
-.204785085140D-02 0.000000000000D+00 0.000000000000D+00 0.170390944785D-04 0.000000000000D+00  6 1 -1 25 2 -2 21 2 0.93890226D-01 0.22334846D+00 0.34448098D+06 0.34448098D+06 0.34448098D+06 0.10801373D+01  1  2 15  2  6  2       -1 -.872003384793D-03 0.100000000000D+01
0.714427459888D-08 0.000000000000D+00 0.000000000000D+00 0.170390944785D-04 0.000000000000D+00  6 1 -1 25 2 -2 21 2 0.93890226D-01 0.23083748D+00 0.35668150D+06 0.35668150D+06 0.35668150D+06 0.10790347D+01  1  2 12  2  6  2       -1 0.263011434254D-08 0.100000000000D+01
-.178837646055D-03 0.000000000000D+00 0.000000000000D+00 0.170390944785D-04 0.000000000000D+00  6 1 -1 25 2 -2 21 2 0.93890226D-01 0.22334846D+00 0.34448098D+06 0.34448098D+06 0.34448098D+06 0.10801373D+01  1  2  4  2  6  2       -1 -.761515579035D-04 0.100000000000D+01
-.174659037912D+00 0.000000000000D+00 -.189497237994D-01 0.170390944785D-04 0.000000000000D+00  6 1 -1 25 2 -2 21 2 0.93890226D-01 0.23079717D+00 0.34448098D+06 0.34448098D+06 0.34448098D+06 0.10801373D+01  1  2  5  2  6  2       -1 -.646410809857D-01 0.100000000000D+01
0.175196611954D+00 0.000000000000D+00 0.189395311373D-01 0.170390944785D-04 0.000000000000D+00  6 1 -1 25 2 -2 21 2 0.93890226D-01 0.22334846D+00 0.34448098D+06 0.34448098D+06 0.34448098D+06 0.10801373D+01  1  2  6  2  6  2       -1 0.746011549246D-01 0.100000000000D+01
0.191556928378D-09 0.000000000000D+00 0.000000000000D+00 0.170390944785D-04 0.000000000000D+00  6 1 21 25 2 1 -2 2 0.93890226D-01 0.23083748D+00 0.35668150D+06 0.35668150D+06 0.35668150D+06 0.10790347D+01  3  4 12  6  5  2       -1 0.479586224241D-09 0.100000000000D+01
-.101605949700D-02 0.000000000000D+00 -.111034053593D-03 0.170390944785D-04 0.000000000000D+00  6 1 21 25 2 1 -2 2 0.93890226D-01 0.23079717D+00 0.34448098D+06 0.34448098D+06 0.34448098D+06 0.10801373D+01  3  4  5  6  5  2       -1 -.255947730974D-02 0.100000000000D+01
  </mgrwgt>
  </event>
</LesHouchesEvents>
