<event>
 5    0  0.1911311E+001  0.1894087E+03  0.7546771E-02  0.1158996E+00
         21   -1    0    0  504  501  0.00000000000E+00  0.00000000000E+00  0.10490453552E+04  0.10490453552E+04  0.00000000000E+00 0.  1.
         21   -1    0    0  503  502 -0.00000000000E+00 -0.00000000000E+00 -0.13313288200E+03  0.13313288200E+03  0.00000000000E+00 0.  1.
         25    1    1    2    0    0 -0.35253335974E+02 -0.20148536985E+03  0.69606113819E+03  0.73618289851E+03  0.12500000000E+03 0.  0.
         21    1    1    2  503  501  0.26374323545E+02  0.13595888055E+03 -0.65415141116E+02  0.15316514887E+03  0.00000000000E+00 0.  1.
         21    1    1    2  504  502  0.88790124292E+01  0.65526489307E+02  0.28526647612E+03  0.29283018980E+03  0.00000000000E+00 0.  1.
<mgrwt>
<rscale>  4 0.18940872E+03</rscale>
<asrwt>0</asrwt>
<pdfrwt beam="1">  1       21 0.16139159E+00 0.18940872E+03</pdfrwt>
<pdfrwt beam="2">  1       21 0.20481983E-01 0.18940872E+03</pdfrwt>
<totfact> 0.54435015E+03</totfact>
</mgrwt>
</event>
<event>
 5    0  0.1911311E+001  0.4655193E+03  0.7546771E-02  0.1023193E+00
         21   -1    0    0  504  501  0.00000000000E+00  0.00000000000E+00  0.31688659833E+03  0.31688659833E+03  0.00000000000E+00 0. -1.
         21   -1    0    0  503  502 -0.00000000000E+00 -0.00000000000E+00 -0.85782582979E+03  0.85782582979E+03  0.00000000000E+00 0. -1.
         25    1    1    2    0    0  0.32532815892E+03  0.31669333860E+03 -0.13584439469E+03  0.49011404925E+03  0.12500000000E+03 0.  0.
         21    1    1    2  503  501 -0.30372357775E+03 -0.32620948175E+03 -0.45030908814E+03  0.63359207107E+03  0.00000000000E+00 0. -1.
         21    1    1    2  504  502 -0.21604581174E+02  0.95161431484E+01  0.45214251375E+02  0.51006307801E+02  0.00000000000E+00 0. -1.
<mgrwt>
<rscale>  4 0.46551928E+03</rscale>
<asrwt>0</asrwt>
<pdfrwt beam="1">  1       21 0.48751786E-01 0.46551928E+03</pdfrwt>
<pdfrwt beam="2">  1       21 0.13197320E+00 0.46551928E+03</pdfrwt>
<totfact> 0.14173078E+03</totfact>
</mgrwt>
</event>
<event>
 5    0  0.1911311E+001  0.1770286E+03  0.7546771E-02  0.1170710E+00
         21   -1    0    0  502  501  0.00000000000E+00  0.00000000000E+00  0.59007880232E+03  0.59007880232E+03  0.00000000000E+00 0. -1.
         21   -1    0    0  504  502 -0.00000000000E+00 -0.00000000000E+00 -0.81895753618E+03  0.81895753618E+03  0.00000000000E+00 0. -1.
         25    1    1    2    0    0  0.19946238583E+03 -0.10120277395E+03 -0.59696761624E+02  0.26308923992E+03  0.12500000000E+03 0.  0.
         21    1    1    2  503  501 -0.11847130132E+03  0.24952228562E+02  0.47604614439E+03  0.49120056447E+03  0.00000000000E+00 0. -1.
         21    1    1    2  504  503 -0.80991084508E+02  0.76250545387E+02 -0.64522811662E+03  0.65474653410E+03  0.00000000000E+00 0. -1.
<mgrwt>
<rscale>  4 0.17702865E+03</rscale>
<asrwt>0</asrwt>
<pdfrwt beam="1">  1       21 0.90781355E-01 0.17702865E+03</pdfrwt>
<pdfrwt beam="2">  1       21 0.12599347E+00 0.17702865E+03</pdfrwt>
<totfact> 0.49046027E+02</totfact>
</mgrwt>
</event>
<event>
 5    0  0.1911311E+001  0.2458223E+03  0.7546771E-02  0.1115974E+00
         21   -1    0    0  502  501  0.00000000000E+00  0.00000000000E+00  0.95083669567E+03  0.95083669567E+03  0.00000000000E+00 0.  1.
         21   -1    0    0  504  502 -0.00000000000E+00 -0.00000000000E+00 -0.11321881285E+03  0.11321881285E+03  0.00000000000E+00 0.  1.
         25    1    1    2    0    0 -0.49081601999E+02  0.23636987680E+03  0.14756289351E+03  0.30932107891E+03  0.12500000000E+03 0.  0.
         21    1    1    2  503  501  0.41203580915E+02 -0.20196283501E+03  0.68926792089E+03  0.71942823726E+03  0.00000000000E+00 0.  1.
         21    1    1    2  504  503  0.78780210844E+01 -0.34407041794E+02  0.78706842782E+00  0.35306192345E+02  0.00000000000E+00 0.  1.
<mgrwt>
<rscale>  4 0.24582228E+03</rscale>
<asrwt>0</asrwt>
<pdfrwt beam="1">  1       21 0.14628256E+00 0.24582228E+03</pdfrwt>
<pdfrwt beam="2">  1       21 0.17418280E-01 0.24582228E+03</pdfrwt>
<totfact> 0.91780269E+03</totfact>
</mgrwt>
</event>
<event>
 5    0  0.1911311E+001  0.2494880E+03  0.7546771E-02  0.1113629E+00
         21   -1    0    0  504  501  0.00000000000E+00  0.00000000000E+00  0.60544087652E+03  0.60544087652E+03  0.00000000000E+00 0. -1.
         21   -1    0    0  503  502 -0.00000000000E+00 -0.00000000000E+00 -0.11818185090E+03  0.11818185090E+03  0.00000000000E+00 0. -1.
         25    1    1    2    0    0 -0.18896557727E+03  0.10445699538E+03  0.82985914624E+02  0.26292758566E+03  0.12500000000E+03 0.  0.
         21    1    1    2  503  501  0.11741550674E+02 -0.21392440489E+02  0.58202424857E+02  0.63111193789E+02  0.00000000000E+00 0. -1.
         21    1    1    2  504  502  0.17722402660E+03 -0.83064554887E+02  0.34607068613E+03  0.39758394797E+03  0.00000000000E+00 0. -1.
<mgrwt>
<rscale>  4 0.24948798E+03</rscale>
<asrwt>0</asrwt>
<pdfrwt beam="1">  1       21 0.93144749E-01 0.24948798E+03</pdfrwt>
<pdfrwt beam="2">  1       21 0.18181823E-01 0.24948798E+03</pdfrwt>
<totfact> 0.25935732E+04</totfact>
</mgrwt>
</event>
