<event>
 5    0  0.7099509E-001  0.4110096E+03  0.7546771E-02  0.1040033E+00
         21   -1    0    0  501  502  0.00000000000E+00  0.00000000000E+00  0.20431785591E+03  0.20431785591E+03  0.00000000000E+00 0.  1.
          2   -1    0    0  503    0 -0.00000000000E+00 -0.00000000000E+00 -0.13789399982E+04  0.13789399982E+04  0.00000000000E+00 0. -1.
         25    1    1    2    0    0  0.69642036858E+02 -0.19683935721E+03  0.90324370036E+02  0.25957510988E+03  0.12500000000E+03 0.  0.
         21    1    1    2  503  502  0.28077277414E+01  0.11564978433E+03 -0.97828393499E+02  0.15150297200E+03  0.00000000000E+00 0. -1.
          2    1    1    2  501    0 -0.72449764599E+02  0.81189572884E+02 -0.11671181188E+04  0.11721797722E+04  0.00000000000E+00 0. -1.
<mgrwt>
<rscale>  4 0.41100959E+03</rscale>
<asrwt>0</asrwt>
<pdfrwt beam="1">  1       21 0.31433517E-01 0.41100959E+03</pdfrwt>
<pdfrwt beam="2">  1        2 0.21214461E+00 0.41100959E+03</pdfrwt>
<totfact> 0.18229464E+03</totfact>
</mgrwt>
</event>
<event>
 5    0  0.7099509E-001  0.4628921E+03  0.7546771E-02  0.1023946E+00
         21   -1    0    0  501  502  0.00000000000E+00  0.00000000000E+00  0.20180322868E+03  0.20180322868E+03  0.00000000000E+00 0.  1.
          3   -1    0    0  503    0 -0.00000000000E+00 -0.00000000000E+00 -0.84338353471E+03  0.84338353471E+03  0.00000000000E+00 0.  1.
         25    1    1    2    0    0 -0.61568056534E+02  0.20844662979E+03 -0.58892520025E+02  0.25755378461E+03  0.12500000000E+03 0.  0.
         21    1    1    2  503  502  0.79569143643E+02 -0.19401661003E+03 -0.52810768179E+01  0.20976554378E+03  0.00000000000E+00 0.  1.
          3    1    1    2  501    0 -0.18001087109E+02 -0.14430019759E+02 -0.57740670919E+03  0.57786743499E+03  0.00000000000E+00 0.  1.
<mgrwt>
<rscale>  4 0.46289211E+03</rscale>
<asrwt>0</asrwt>
<pdfrwt beam="1">  1       21 0.31046650E-01 0.46289211E+03</pdfrwt>
<pdfrwt beam="2">  1        3 0.12975131E+00 0.46289211E+03</pdfrwt>
<totfact> 0.23076745E+02</totfact>
</mgrwt>
</event>
<event>
 5    0  0.7099509E-001  0.4998532E+03  0.7546771E-02  0.1013817E+00
         21   -1    0    0  501  502  0.00000000000E+00  0.00000000000E+00  0.14191724241E+03  0.14191724241E+03  0.00000000000E+00 0.  1.
          1   -1    0    0  503    0 -0.00000000000E+00 -0.00000000000E+00 -0.12647921153E+04  0.12647921153E+04  0.00000000000E+00 0. -1.
         25    1    1    2    0    0 -0.12308306468E+03  0.16714941098E+03 -0.38134253775E+03  0.45181356498E+03  0.12500000000E+03 0.  0.
         21    1    1    2  503  502  0.87394116223E+02 -0.77015787557E+02  0.71120104853E+02  0.13648161927E+03  0.00000000000E+00 0.  1.
          1    1    1    2  501    0  0.35688948462E+02 -0.90133623422E+02 -0.81265244001E+03  0.81841417349E+03  0.00000000000E+00 0. -1.
<mgrwt>
<rscale>  4 0.49985324E+03</rscale>
<asrwt>0</asrwt>
<pdfrwt beam="1">  1       21 0.21833422E-01 0.49985324E+03</pdfrwt>
<pdfrwt beam="2">  1        1 0.19458340E+00 0.49985324E+03</pdfrwt>
<totfact> 0.20786219E+03</totfact>
</mgrwt>
</event>
<event>
 5    0  0.7099509E-001  0.4301865E+03  0.7546771E-02  0.1033801E+00
         21   -1    0    0  501  502  0.00000000000E+00  0.00000000000E+00  0.23840877150E+03  0.23840877150E+03  0.00000000000E+00 0.  1.
          1   -1    0    0  503    0 -0.00000000000E+00 -0.00000000000E+00 -0.35569167136E+03  0.35569167136E+03  0.00000000000E+00 0.  1.
         25    1    1    2    0    0  0.18683801761E+03 -0.11642270393E+03  0.74254293550E+01  0.25326434375E+03  0.12500000000E+03 0.  0.
         21    1    1    2  503  502 -0.14375936829E+03  0.10141098329E+03  0.30950075628E+02  0.17863048643E+03  0.00000000000E+00 0.  1.
          1    1    1    2  501    0 -0.43078649319E+02  0.15011720647E+02 -0.15565840484E+03  0.16220561267E+03  0.00000000000E+00 0.  1.
<mgrwt>
<rscale>  4 0.43018655E+03</rscale>
<asrwt>0</asrwt>
<pdfrwt beam="1">  1       21 0.36678273E-01 0.43018655E+03</pdfrwt>
<pdfrwt beam="2">  1        1 0.54721795E-01 0.43018655E+03</pdfrwt>
<totfact> 0.52837266E+03</totfact>
</mgrwt>
</event>
<event>
 5    0  0.7099509E-001  0.4927783E+03  0.7546771E-02  0.1015681E+00
         21   -1    0    0  501  502  0.00000000000E+00  0.00000000000E+00  0.11432447440E+04  0.11432447440E+04  0.00000000000E+00 0. -1.
         -2   -1    0    0    0  501 -0.00000000000E+00 -0.00000000000E+00 -0.15587411614E+03  0.15587411614E+03  0.00000000000E+00 0. -1.
         25    1    1    2    0    0 -0.88846777865E+02  0.20492543358E+03  0.29167640624E+03  0.38805709532E+03  0.12500000000E+03 0.  0.
         21    1    1    2  503  502  0.19844012086E+03  0.12905475871E+03  0.28507593866E+03  0.37054271429E+03  0.00000000000E+00 0. -1.
         -2    1    1    2    0  503 -0.10959334299E+03 -0.33398019230E+03  0.41061828293E+03  0.54051905050E+03  0.00000000000E+00 0. -1.
<mgrwt>
<rscale>  4 0.49277825E+03</rscale>
<asrwt>0</asrwt>
<pdfrwt beam="1">  1       21 0.17588380E+00 0.49277825E+03</pdfrwt>
<pdfrwt beam="2">  1       -2 0.23980634E-01 0.49277825E+03</pdfrwt>
<totfact> 0.20929860E+02</totfact>
</mgrwt>
</event>
<event>
 5    0  0.7099509E-001  0.5763031E+03  0.7546771E-02  0.9955827E-01
         21   -1    0    0  501  502  0.00000000000E+00  0.00000000000E+00  0.19045422944E+03  0.19045422944E+03  0.00000000000E+00 0.  1.
          2   -1    0    0  503    0 -0.00000000000E+00 -0.00000000000E+00 -0.11207286889E+04  0.11207286889E+04  0.00000000000E+00 0.  1.
         25    1    1    2    0    0  0.39871481764E+02 -0.24271288107E+03 -0.23975434641E+03  0.36552212562E+03  0.12500000000E+03 0.  0.
         21    1    1    2  503  502 -0.92151534592E+02  0.24530820697E+03 -0.90694769307E+01  0.26220274054E+03  0.00000000000E+00 0.  1.
          2    1    1    2  501    0  0.52280052828E+02 -0.25953258970E+01 -0.68145063612E+03  0.68345805219E+03  0.00000000000E+00 0.  1.
<mgrwt>
<rscale>  4 0.57630306E+03</rscale>
<asrwt>0</asrwt>
<pdfrwt beam="1">  1       21 0.29300650E-01 0.57630306E+03</pdfrwt>
<pdfrwt beam="2">  1        2 0.17241980E+00 0.57630306E+03</pdfrwt>
<totfact> 0.28554292E+03</totfact>
</mgrwt>
</event>
<event>
 5    0  0.7099509E-001  0.7151769E+03  0.7546771E-02  0.9691624E-01
         21   -1    0    0  501  502  0.00000000000E+00  0.00000000000E+00  0.96508543635E+02  0.96508543635E+02  0.00000000000E+00 0.  1.
          2   -1    0    0  503    0 -0.00000000000E+00 -0.00000000000E+00 -0.23182786631E+04  0.23182786631E+04  0.00000000000E+00 0.  1.
         25    1    1    2    0    0  0.25434899403E+03  0.13339356431E+02 -0.10537272395E+04  0.10912549860E+04  0.12500000000E+03 0.  0.
         21    1    1    2  503  502 -0.28093474872E+03 -0.12949606256E+02 -0.17735117348E+03  0.33248378017E+03  0.00000000000E+00 0.  1.
          2    1    1    2  501    0  0.26585754691E+02 -0.38975017485E+00 -0.99069170652E+03  0.99104844061E+03  0.00000000000E+00 0.  1.
<mgrwt>
<rscale>  4 0.71517691E+03</rscale>
<asrwt>0</asrwt>
<pdfrwt beam="1">  1       21 0.14847469E-01 0.71517691E+03</pdfrwt>
<pdfrwt beam="2">  1        2 0.35665824E+00 0.71517691E+03</pdfrwt>
<totfact> 0.22382733E+03</totfact>
</mgrwt>
</event>
<event>
 5    0  0.7099509E-001  0.6839248E+03  0.7546771E-02  0.9745125E-01
          2   -1    0    0  503    0 -0.00000000000E+00  0.00000000000E+00  0.62651083233E+03  0.62651083233E+03  0.00000000000E+00 0.  1.
         21   -1    0    0  501  502  0.00000000000E+00 -0.00000000000E+00 -0.23041145144E+03  0.23041145144E+03  0.00000000000E+00 0.  1.
         25    1    1    2    0    0  0.18222170187E+03 -0.10404559358E+03  0.43188372296E+03  0.49616406997E+03  0.12500000000E+03 0.  0.
         21    1    1    2  503  502 -0.17012172494E+03  0.85150514461E+02 -0.15130764789E+03  0.24307615210E+03  0.00000000000E+00 0.  1.
          2    1    1    2  501    0 -0.12099976934E+02  0.18895079120E+02  0.11552330583E+03  0.11768206170E+03  0.00000000000E+00 0.  1.
<mgrwt>
<rscale>  4 0.68392483E+03</rscale>
<asrwt>0</asrwt>
<pdfrwt beam="1">  1       21 0.35447916E-01 0.68392483E+03</pdfrwt>
<pdfrwt beam="2">  1        2 0.96386281E-01 0.68392483E+03</pdfrwt>
<totfact> 0.42213931E+03</totfact>
</mgrwt>
</event>
<event>
 5    0  0.7099509E-001  0.4147388E+03  0.7546771E-02  0.1038792E+00
         21   -1    0    0  501  502  0.00000000000E+00  0.00000000000E+00  0.11689276493E+04  0.11689276493E+04  0.00000000000E+00 0.  1.
          1   -1    0    0  503    0 -0.00000000000E+00 -0.00000000000E+00 -0.73206857668E+02  0.73206857668E+02  0.00000000000E+00 0.  1.
         25    1    1    2    0    0  0.12977567221E+03  0.16339726546E+03  0.58257356095E+03  0.63131398319E+03  0.12500000000E+03 0.  0.
         21    1    1    2  503  502 -0.16571273106E+03 -0.20685838013E+01  0.27043247374E+03  0.31717299873E+03  0.00000000000E+00 0. -1.
          1    1    1    2  501    0  0.35937058849E+02 -0.16132868166E+03  0.24271475693E+03  0.29364752503E+03  0.00000000000E+00 0.  1.
<mgrwt>
<rscale>  4 0.41473878E+03</rscale>
<asrwt>0</asrwt>
<pdfrwt beam="1">  1       21 0.17983501E+00 0.41473878E+03</pdfrwt>
<pdfrwt beam="2">  1        1 0.11262594E-01 0.41473878E+03</pdfrwt>
<totfact> 0.97278065E+02</totfact>
</mgrwt>
</event>
<event>
 5    0  0.7099509E-001  0.4806653E+03  0.7546771E-02  0.1018952E+00
          1   -1    0    0  503    0 -0.00000000000E+00  0.00000000000E+00  0.12007256461E+04  0.12007256461E+04  0.00000000000E+00 0.  1.
         21   -1    0    0  501  502  0.00000000000E+00 -0.00000000000E+00 -0.16120464468E+03  0.16120464468E+03  0.00000000000E+00 0. -1.
         25    1    1    2    0    0  0.57370013477E+01  0.22226239650E+03  0.11083349489E+03  0.27810528523E+03  0.12500000000E+03 0.  0.
         21    1    1    2  503  502  0.14724296800E+02 -0.22498961320E+03  0.86670766841E+02  0.24155527895E+03  0.00000000000E+00 0. -1.
          1    1    1    2  501    0 -0.20461298148E+02  0.27272166933E+01  0.84201673973E+03  0.84226972665E+03  0.00000000000E+00 0.  1.
<mgrwt>
<rscale>  4 0.48066534E+03</rscale>
<asrwt>0</asrwt>
<pdfrwt beam="1">  1       21 0.24800715E-01 0.48066534E+03</pdfrwt>
<pdfrwt beam="2">  1        1 0.18472702E+00 0.48066534E+03</pdfrwt>
<totfact> 0.18105009E+03</totfact>
</mgrwt>
</event>
<event>
 5    0  0.7099509E-001  0.4132992E+03  0.7546771E-02  0.1039270E+00
         21   -1    0    0  501  502  0.00000000000E+00  0.00000000000E+00  0.14354272788E+03  0.14354272788E+03  0.00000000000E+00 0. -1.
          2   -1    0    0  503    0 -0.00000000000E+00 -0.00000000000E+00 -0.14368234492E+04  0.14368234492E+04  0.00000000000E+00 0.  1.
         25    1    1    2    0    0  0.44826159864E+02  0.19721219784E+03 -0.84481984270E+00  0.23775565042E+03  0.12500000000E+03 0.  0.
         21    1    1    2  503  502 -0.24979445880E+02 -0.12920046499E+03 -0.15652186406E+03  0.20448918505E+03  0.00000000000E+00 0.  1.
          2    1    1    2  501    0 -0.19846713984E+02 -0.68011732847E+02 -0.11359140374E+04  0.11381213416E+04  0.00000000000E+00 0.  1.
<mgrwt>
<rscale>  4 0.41329919E+03</rscale>
<asrwt>0</asrwt>
<pdfrwt beam="1">  1       21 0.22083497E-01 0.41329919E+03</pdfrwt>
<pdfrwt beam="2">  1        2 0.22104976E+00 0.41329919E+03</pdfrwt>
<totfact> 0.33745961E+03</totfact>
</mgrwt>
</event>
<event>
 5    0  0.7099509E-001  0.4992938E+03  0.7546771E-02  0.1013963E+00
         21   -1    0    0  501  502  0.00000000000E+00  0.00000000000E+00  0.22634690087E+03  0.22634690087E+03  0.00000000000E+00 0. -1.
          2   -1    0    0  503    0 -0.00000000000E+00 -0.00000000000E+00 -0.74157241930E+03  0.74157241930E+03  0.00000000000E+00 0. -1.
         25    1    1    2    0    0 -0.95015749636E+02 -0.26269011013E+03 -0.16268631121E+03  0.34659186732E+03  0.12500000000E+03 0.  0.
         21    1    1    2  503  502  0.11925011772E+03  0.82653883720E+02  0.70218594143E+02  0.16119214011E+03  0.00000000000E+00 0. -1.
          2    1    1    2  501    0 -0.24234368088E+02  0.18003622641E+03 -0.42275780136E+03  0.46013531273E+03  0.00000000000E+00 0. -1.
<mgrwt>
<rscale>  4 0.49929382E+03</rscale>
<asrwt>0</asrwt>
<pdfrwt beam="1">  1       21 0.34822600E-01 0.49929382E+03</pdfrwt>
<pdfrwt beam="2">  1        2 0.11408806E+00 0.49929382E+03</pdfrwt>
<totfact> 0.36353687E+03</totfact>
</mgrwt>
</event>
<event>
 5    0  0.7099509E-001  0.6313125E+03  0.7546771E-02  0.9842491E-01
          2   -1    0    0  503    0 -0.00000000000E+00  0.00000000000E+00  0.14446200113E+04  0.14446200113E+04  0.00000000000E+00 0.  1.
         21   -1    0    0  501  502  0.00000000000E+00 -0.00000000000E+00 -0.46696610638E+03  0.46696610638E+03  0.00000000000E+00 0.  1.
         25    1    1    2    0    0 -0.15757830050E+02 -0.24310850871E+03  0.27438284516E+02  0.27518705579E+03  0.12500000000E+03 0.  0.
         21    1    1    2  503  502  0.11289759128E+02  0.29194119207E+03 -0.28031772338E+03  0.40488905188E+03  0.00000000000E+00 0.  1.
          2    1    1    2  501    0  0.44680709219E+01 -0.48832683355E+02  0.12305333438E+04  0.12315100101E+04  0.00000000000E+00 0.  1.
<mgrwt>
<rscale>  4 0.63131252E+03</rscale>
<asrwt>0</asrwt>
<pdfrwt beam="1">  1       21 0.71840940E-01 0.63131252E+03</pdfrwt>
<pdfrwt beam="2">  1        2 0.22224923E+00 0.63131252E+03</pdfrwt>
<totfact> 0.27433329E+02</totfact>
</mgrwt>
</event>
<event>
 5    0  0.7099509E-001  0.4474787E+03  0.7546771E-02  0.1028477E+00
          2   -1    0    0  503    0 -0.00000000000E+00  0.00000000000E+00  0.66942216059E+03  0.66942216059E+03  0.00000000000E+00 0.  1.
         21   -1    0    0  501  502  0.00000000000E+00 -0.00000000000E+00 -0.20168807084E+03  0.20168807084E+03  0.00000000000E+00 0.  1.
         25    1    1    2    0    0 -0.22094638873E+03  0.92788212084E+02 -0.11347609110E+02  0.27051936572E+03  0.12500000000E+03 0.  0.
         21    1    1    2  503  502  0.16548495040E+03 -0.22698045288E+02  0.68736417441E+02  0.18062437586E+03  0.00000000000E+00 0.  1.
          2    1    1    2  501    0  0.55461438325E+02 -0.70090166795E+02  0.41034528142E+03  0.41996648986E+03  0.00000000000E+00 0.  1.
<mgrwt>
<rscale>  4 0.44747871E+03</rscale>
<asrwt>0</asrwt>
<pdfrwt beam="1">  1       21 0.31028934E-01 0.44747871E+03</pdfrwt>
<pdfrwt beam="2">  1        2 0.10298802E+00 0.44747871E+03</pdfrwt>
<totfact> 0.52509977E+03</totfact>
</mgrwt>
</event>
<event>
 5    0  0.7099509E-001  0.4184749E+03  0.7546771E-02  0.1037564E+00
         21   -1    0    0  501  502  0.00000000000E+00  0.00000000000E+00  0.14767058539E+04  0.14767058539E+04  0.00000000000E+00 0.  1.
          2   -1    0    0  503    0 -0.00000000000E+00 -0.00000000000E+00 -0.21084107326E+03  0.21084107326E+03  0.00000000000E+00 0.  1.
         25    1    1    2    0    0 -0.11005875890E+03  0.21893329050E+03  0.12316610064E+04  0.12620057650E+04  0.12500000000E+03 0.  0.
         21    1    1    2  503  502  0.88290979226E+02 -0.64012060324E+02  0.18080239038E+03  0.21114531784E+03  0.00000000000E+00 0. -1.
          2    1    1    2  501    0  0.21767779673E+02 -0.15492123017E+03 -0.14659861618E+03  0.21439584431E+03  0.00000000000E+00 0.  1.
<mgrwt>
<rscale>  4 0.41847493E+03</rscale>
<asrwt>0</asrwt>
<pdfrwt beam="1">  1       21 0.22718551E+00 0.41847493E+03</pdfrwt>
<pdfrwt beam="2">  1        2 0.32437089E-01 0.41847493E+03</pdfrwt>
<totfact> 0.15719989E+02</totfact>
</mgrwt>
</event>
<event>
 5    0  0.7099509E-001  0.4882685E+03  0.7546771E-02  0.1016887E+00
         21   -1    0    0  501  502  0.00000000000E+00  0.00000000000E+00  0.36260637291E+03  0.36260637291E+03  0.00000000000E+00 0.  1.
          2   -1    0    0  503    0 -0.00000000000E+00 -0.00000000000E+00 -0.21994917949E+03  0.21994917949E+03  0.00000000000E+00 0.  1.
         25    1    1    2    0    0 -0.22742160504E+03 -0.11041180200E+03  0.15752626623E+03  0.32303386357E+03  0.12500000000E+03 0.  0.
         21    1    1    2  503  502  0.16972612353E+03  0.92512284683E+02  0.11425112055E+02  0.19363887267E+03  0.00000000000E+00 0. -1.
          2    1    1    2  501    0  0.57695481514E+02  0.17899517314E+02 -0.26294184868E+02  0.65882816160E+02  0.00000000000E+00 0.  1.
<mgrwt>
<rscale>  4 0.48826852E+03</rscale>
<asrwt>0</asrwt>
<pdfrwt beam="1">  1       21 0.55785596E-01 0.48826852E+03</pdfrwt>
<pdfrwt beam="2">  1        2 0.33838335E-01 0.48826852E+03</pdfrwt>
<totfact> 0.54264238E+03</totfact>
</mgrwt>
</event>
<event>
 5    0  0.7099509E-001  0.7206484E+03  0.7546771E-02  0.9682558E-01
         21   -1    0    0  501  502  0.00000000000E+00  0.00000000000E+00  0.40603814284E+03  0.40603814284E+03  0.00000000000E+00 0.  1.
         -3   -1    0    0    0  501 -0.00000000000E+00 -0.00000000000E+00 -0.72100826994E+03  0.72100826994E+03  0.00000000000E+00 0. -1.
         25    1    1    2    0    0 -0.13596396638E+03 -0.45235470861E+03 -0.39456154944E+02  0.49019666535E+03  0.12500000000E+03 0.  0.
         21    1    1    2  503  502  0.95799123974E+02  0.20487711302E+03  0.44310515990E+02  0.23046805727E+03  0.00000000000E+00 0.  1.
         -3    1    1    2    0  503  0.40164842406E+02  0.24747759559E+03 -0.31982448815E+03  0.40638169017E+03  0.00000000000E+00 0. -1.
<mgrwt>
<rscale>  4 0.72064837E+03</rscale>
<asrwt>0</asrwt>
<pdfrwt beam="1">  1       21 0.62467406E-01 0.72064837E+03</pdfrwt>
<pdfrwt beam="2">  1       -3 0.11092435E+00 0.72064837E+03</pdfrwt>
<totfact> 0.74987989E+01</totfact>
</mgrwt>
</event>
<event>
 5    0  0.7099509E-001  0.4086991E+03  0.7546771E-02  0.1040808E+00
         21   -1    0    0  501  502  0.00000000000E+00  0.00000000000E+00  0.36196909677E+03  0.36196909677E+03  0.00000000000E+00 0. -1.
          2   -1    0    0  503    0 -0.00000000000E+00 -0.00000000000E+00 -0.28562561074E+03  0.28562561074E+03  0.00000000000E+00 0.  1.
         25    1    1    2    0    0 -0.51752097616E+02  0.21645709908E+03  0.23611707984E+03  0.34771860857E+03  0.12500000000E+03 0.  0.
         21    1    1    2  503  502  0.72194422461E+02 -0.72454756596E+02 -0.34580127204E+02  0.10796995686E+03  0.00000000000E+00 0.  1.
          2    1    1    2  501    0 -0.20442324844E+02 -0.14400234249E+03 -0.12519346661E+03  0.19190614208E+03  0.00000000000E+00 0.  1.
<mgrwt>
<rscale>  4 0.40869906E+03</rscale>
<asrwt>0</asrwt>
<pdfrwt beam="1">  1       21 0.55687554E-01 0.40869906E+03</pdfrwt>
<pdfrwt beam="2">  1        2 0.43942401E-01 0.40869906E+03</pdfrwt>
<totfact> 0.41303702E+03</totfact>
</mgrwt>
</event>
<event>
 5    0  0.7099509E-001  0.3724568E+03  0.7546771E-02  0.1053758E+00
         -2   -1    0    0    0  501 -0.00000000000E+00  0.00000000000E+00  0.43644962498E+02  0.43644962498E+02  0.00000000000E+00 0. -1.
         21   -1    0    0  501  502  0.00000000000E+00 -0.00000000000E+00 -0.18139379399E+04  0.18139379399E+04  0.00000000000E+00 0.  1.
         25    1    1    2    0    0 -0.18617705277E+03  0.10994521674E+03 -0.13157528973E+04  0.13392462554E+04  0.12500000000E+03 0.  0.
         21    1    1    2  503  502  0.72653877189E+02 -0.83578743352E+02 -0.32853464140E+03  0.34669727835E+03  0.00000000000E+00 0. -1.
         -2    1    1    2    0  503  0.11352317558E+03 -0.26366473389E+02 -0.12600543867E+03  0.17163936870E+03  0.00000000000E+00 0. -1.
<mgrwt>
<rscale>  4 0.37245683E+03</rscale>
<asrwt>0</asrwt>
<pdfrwt beam="1">  1       21 0.27906726E+00 0.37245683E+03</pdfrwt>
<pdfrwt beam="2">  1       -2 0.67146125E-02 0.37245683E+03</pdfrwt>
<totfact> 0.39229114E+02</totfact>
</mgrwt>
</event>
<event>
 5    0  0.7099509E-001  0.4936205E+03  0.7546771E-02  0.1015458E+00
         21   -1    0    0  501  502  0.00000000000E+00  0.00000000000E+00  0.75473583211E+02  0.75473583211E+02  0.00000000000E+00 0. -1.
          1   -1    0    0  503    0 -0.00000000000E+00 -0.00000000000E+00 -0.14557573219E+04  0.14557573219E+04  0.00000000000E+00 0. -1.
         25    1    1    2    0    0 -0.17777894164E+03 -0.14053632636E+03 -0.30714269590E+03  0.40164343237E+03  0.12500000000E+03 0.  0.
         21    1    1    2  503  502  0.16050614693E+03  0.15873677691E+03 -0.42734892357E+03  0.48330806948E+03  0.00000000000E+00 0.  1.
          1    1    1    2  501    0  0.17272794709E+02 -0.18200450547E+02 -0.64579211924E+03  0.64627940328E+03  0.00000000000E+00 0. -1.
<mgrwt>
<rscale>  4 0.49362052E+03</rscale>
<asrwt>0</asrwt>
<pdfrwt beam="1">  1       21 0.11611320E-01 0.49362052E+03</pdfrwt>
<pdfrwt beam="2">  1        1 0.22396268E+00 0.49362052E+03</pdfrwt>
<totfact> 0.50002297E+03</totfact>
</mgrwt>
</event>
<event>
 5    0  0.7099509E-001  0.5500920E+03  0.7546771E-02  0.1001473E+00
          2   -1    0    0  503    0 -0.00000000000E+00  0.00000000000E+00  0.14082272179E+03  0.14082272179E+03  0.00000000000E+00 0. -1.
         21   -1    0    0  501  502  0.00000000000E+00 -0.00000000000E+00 -0.21718433985E+04  0.21718433985E+04  0.00000000000E+00 0.  1.
         25    1    1    2    0    0  0.21251847659E+03 -0.18196251412E+03 -0.15890514037E+04  0.16183274770E+04  0.12500000000E+03 0.  0.
         21    1    1    2  503  502 -0.14174733868E+03  0.15878381498E+03 -0.53464113398E+03  0.57545264798E+03  0.00000000000E+00 0. -1.
          2    1    1    2  501    0 -0.70771137910E+02  0.23178699135E+02  0.92671860951E+02  0.11888599525E+03  0.00000000000E+00 0. -1.
<mgrwt>
<rscale>  4 0.55009203E+03</rscale>
<asrwt>0</asrwt>
<pdfrwt beam="1">  1       21 0.33412973E+00 0.55009203E+03</pdfrwt>
<pdfrwt beam="2">  1        2 0.21665036E-01 0.55009203E+03</pdfrwt>
<totfact> 0.52407930E+01</totfact>
</mgrwt>
</event>
<event>
 5    0  0.7099509E-001  0.4238602E+03  0.7546771E-02  0.1035817E+00
         21   -1    0    0  501  502  0.00000000000E+00  0.00000000000E+00  0.64836484367E+03  0.64836484367E+03  0.00000000000E+00 0. -1.
          1   -1    0    0  503    0 -0.00000000000E+00 -0.00000000000E+00 -0.42171950009E+03  0.42171950009E+03  0.00000000000E+00 0.  1.
         25    1    1    2    0    0  0.37436625384E+02  0.25027600740E+03  0.46267726942E+03  0.54197309568E+03  0.12500000000E+03 0.  0.
         21    1    1    2  503  502 -0.58050529188E+02 -0.11455230276E+03  0.10152604009E+03  0.16370592788E+03  0.00000000000E+00 0.  1.
          1    1    1    2  501    0  0.20613903805E+02 -0.13572370463E+03 -0.33755796593E+03  0.36440532021E+03  0.00000000000E+00 0.  1.
<mgrwt>
<rscale>  4 0.42386025E+03</rscale>
<asrwt>0</asrwt>
<pdfrwt beam="1">  1       21 0.99748438E-01 0.42386025E+03</pdfrwt>
<pdfrwt beam="2">  1        1 0.64879923E-01 0.42386025E+03</pdfrwt>
<totfact> 0.46763559E+02</totfact>
</mgrwt>
</event>
<event>
 5    0  0.7412226E-001  0.4872555E+03  0.7546771E-02  0.1017160E+00
         -2   -1    0    0    0  501 -0.00000000000E+00  0.00000000000E+00  0.10508597467E+04  0.10508597467E+04  0.00000000000E+00 0. -1.
         21   -1    0    0  501  502  0.00000000000E+00 -0.00000000000E+00 -0.25273023212E+03  0.25273023212E+03  0.00000000000E+00 0. -1.
         25    1    1    2    0    0  0.44362444378E+02 -0.34983092996E+03 -0.37820716154E+02  0.37603871157E+03  0.12500000000E+03 0.  0.
         21    1    1    2  503  502 -0.65629517885E+02  0.40047785393E+02  0.83264221040E+02  0.11333132505E+03  0.00000000000E+00 0.  1.
         -2    1    1    2    0  503  0.21267073507E+02  0.30978314457E+03  0.75268600972E+03  0.81421994221E+03  0.00000000000E+00 0. -1.
<mgrwt>
<rscale>  4 0.48725550E+03</rscale>
<asrwt>0</asrwt>
<pdfrwt beam="1">  1       21 0.38881575E-01 0.48725550E+03</pdfrwt>
<pdfrwt beam="2">  1       -2 0.16167073E+00 0.48725550E+03</pdfrwt>
<totfact> 0.12482020E+02</totfact>
</mgrwt>
</event>
<event>
 5    0  0.7099509E-001  0.7420458E+03  0.7546771E-02  0.9647913E-01
         21   -1    0    0  501  502  0.00000000000E+00  0.00000000000E+00  0.63139866941E+03  0.63139866941E+03  0.00000000000E+00 0. -1.
          2   -1    0    0  503    0 -0.00000000000E+00 -0.00000000000E+00 -0.43027454395E+03  0.43027454395E+03  0.00000000000E+00 0. -1.
         25    1    1    2    0    0  0.58708630006E+02  0.38147240797E+03  0.33599383629E+03  0.52676822162E+03  0.12500000000E+03 0.  0.
         21    1    1    2  503  502  0.34423339885E+02 -0.30469336032E+03  0.53419670550E+02  0.31125017487E+03  0.00000000000E+00 0. -1.
          2    1    1    2  501    0 -0.93131969892E+02 -0.76779047651E+02 -0.18828938137E+03  0.22365481688E+03  0.00000000000E+00 0. -1.
<mgrwt>
<rscale>  4 0.74204579E+03</rscale>
<asrwt>0</asrwt>
<pdfrwt beam="1">  1       21 0.97138257E-01 0.74204579E+03</pdfrwt>
<pdfrwt beam="2">  1        2 0.66196084E-01 0.74204579E+03</pdfrwt>
<totfact> 0.69626776E+02</totfact>
</mgrwt>
</event>
<event>
 5    0  0.7099509E-001  0.6496193E+03  0.7546771E-02  0.9807494E-01
          2   -1    0    0  503    0 -0.00000000000E+00  0.00000000000E+00  0.19232302239E+04  0.19232302239E+04  0.00000000000E+00 0. -1.
         21   -1    0    0  501  502  0.00000000000E+00 -0.00000000000E+00 -0.89777795701E+03  0.89777795701E+03  0.00000000000E+00 0. -1.
         25    1    1    2    0    0 -0.25128091276E+03 -0.11866034723E+03 -0.13706329263E+03  0.33411632901E+03  0.12500000000E+03 0.  0.
         21    1    1    2  503  502  0.19134642825E+03  0.11753217360E+03 -0.64263818886E+03  0.68074305668E+03  0.00000000000E+00 0. -1.
          2    1    1    2  501    0  0.59934484504E+02  0.11281736304E+01  0.18051537484E+04  0.18061487952E+04  0.00000000000E+00 0. -1.
<mgrwt>
<rscale>  4 0.64961925E+03</rscale>
<asrwt>0</asrwt>
<pdfrwt beam="1">  1       21 0.13811969E+00 0.64961925E+03</pdfrwt>
<pdfrwt beam="2">  1        2 0.29588157E+00 0.64961925E+03</pdfrwt>
<totfact> 0.30008379E+01</totfact>
</mgrwt>
</event>
<event>
 5    0  0.7099509E-001  0.4572430E+03  0.7546771E-02  0.1025584E+00
         21   -1    0    0  501  502  0.00000000000E+00  0.00000000000E+00  0.19668840895E+04  0.19668840895E+04  0.00000000000E+00 0.  1.
         -2   -1    0    0    0  501 -0.00000000000E+00 -0.00000000000E+00 -0.13001213109E+03  0.13001213109E+03  0.00000000000E+00 0. -1.
         25    1    1    2    0    0  0.17679302419E+03 -0.19648802722E+03  0.10139181022E+04  0.10552337353E+04  0.12500000000E+03 0.  0.
         21    1    1    2  503  502 -0.13216310876E+03  0.75060730359E+02  0.88516009465E+03  0.89811446582E+03  0.00000000000E+00 0.  1.
         -2    1    1    2    0  503 -0.44629915432E+02  0.12142729686E+03 -0.62206238448E+02  0.14354801941E+03  0.00000000000E+00 0. -1.
<mgrwt>
<rscale>  4 0.45724304E+03</rscale>
<asrwt>0</asrwt>
<pdfrwt beam="1">  1       21 0.30259753E+00 0.45724304E+03</pdfrwt>
<pdfrwt beam="2">  1       -2 0.20001868E-01 0.45724304E+03</pdfrwt>
<totfact> 0.45748946E+01</totfact>
</mgrwt>
</event>
<event>
 5    0  0.7099509E-001  0.5415700E+03  0.7546771E-02  0.1003464E+00
          1   -1    0    0  503    0 -0.00000000000E+00  0.00000000000E+00  0.10524960147E+04  0.10524960147E+04  0.00000000000E+00 0. -1.
         21   -1    0    0  501  502  0.00000000000E+00 -0.00000000000E+00 -0.11212371675E+03  0.11212371675E+03  0.00000000000E+00 0. -1.
         25    1    1    2    0    0  0.86678190208E+02  0.19928860455E+03  0.78813620351E+02  0.26280343094E+03  0.12500000000E+03 0.  0.
         21    1    1    2  503  502 -0.59974272387E+02 -0.18564986936E+03  0.46692650508E+03  0.50604658727E+03  0.00000000000E+00 0. -1.
          1    1    1    2  501    0 -0.26703917821E+02 -0.13638735194E+02  0.39463217253E+03  0.39576971324E+03  0.00000000000E+00 0. -1.
<mgrwt>
<rscale>  4 0.54157000E+03</rscale>
<asrwt>0</asrwt>
<pdfrwt beam="1">  1       21 0.17249803E-01 0.54157000E+03</pdfrwt>
<pdfrwt beam="2">  1        1 0.16192246E+00 0.54157000E+03</pdfrwt>
<totfact> 0.46085752E+03</totfact>
</mgrwt>
</event>
<event>
 5    0  0.7099509E-001  0.4624228E+03  0.7546771E-02  0.1024081E+00
         -1   -1    0    0    0  501 -0.00000000000E+00  0.00000000000E+00  0.27100182824E+03  0.27100182824E+03  0.00000000000E+00 0.  1.
         21   -1    0    0  501  502  0.00000000000E+00 -0.00000000000E+00 -0.13427019437E+04  0.13427019437E+04  0.00000000000E+00 0. -1.
         25    1    1    2    0    0  0.64170539728E+02 -0.21576528277E+03 -0.38122435854E+03  0.46003209341E+03  0.12500000000E+03 0.  0.
         21    1    1    2  503  502  0.12493728305E+02  0.67647653953E+02 -0.89054781122E+03  0.89320081863E+03  0.00000000000E+00 0. -1.
         -1    1    1    2    0  503 -0.76664268034E+02  0.14811762882E+03  0.20007205429E+03  0.26047085992E+03  0.00000000000E+00 0.  1.
<mgrwt>
<rscale>  4 0.46242282E+03</rscale>
<asrwt>0</asrwt>
<pdfrwt beam="1">  1       21 0.20656953E+00 0.46242282E+03</pdfrwt>
<pdfrwt beam="2">  1       -1 0.41692589E-01 0.46242282E+03</pdfrwt>
<totfact> 0.55099369E+01</totfact>
</mgrwt>
</event>
<event>
 5    0  0.7099509E-001  0.4284412E+03  0.7546771E-02  0.1034354E+00
         21   -1    0    0  501  502  0.00000000000E+00  0.00000000000E+00  0.11492406877E+04  0.11492406877E+04  0.00000000000E+00 0. -1.
          2   -1    0    0  503    0 -0.00000000000E+00 -0.00000000000E+00 -0.90258299999E+03  0.90258299999E+03  0.00000000000E+00 0. -1.
         25    1    1    2    0    0 -0.98418565551E+02 -0.34836358254E+03  0.89999727018E+03  0.97809175746E+03  0.12500000000E+03 0.  0.
         21    1    1    2  503  502  0.22153051139E+02  0.30594875479E+02  0.17721683177E+03  0.18119770843E+03  0.00000000000E+00 0.  1.
          2    1    1    2  501    0  0.76265514412E+02  0.31776870706E+03 -0.83055641423E+03  0.89253422181E+03  0.00000000000E+00 0. -1.
<mgrwt>
<rscale>  4 0.42844118E+03</rscale>
<asrwt>0</asrwt>
<pdfrwt beam="1">  1       21 0.17680626E+00 0.42844118E+03</pdfrwt>
<pdfrwt beam="2">  1        2 0.13885892E+00 0.42844118E+03</pdfrwt>
<totfact> 0.62797452E+01</totfact>
</mgrwt>
</event>
<event>
 5    0  0.7099509E-001  0.1152974E+04  0.7546771E-02  0.9155044E-01
         21   -1    0    0  501  502  0.00000000000E+00  0.00000000000E+00  0.93353844061E+03  0.93353844061E+03  0.00000000000E+00 0.  1.
         -4   -1    0    0    0  501 -0.00000000000E+00 -0.00000000000E+00 -0.11508366824E+04  0.11508366824E+04  0.00000000000E+00 0. -1.
         25    1    1    2    0    0  0.14123271312E+02 -0.37896469583E+03 -0.17622898238E+03  0.43645774333E+03  0.12500000000E+03 0.  0.
         21    1    1    2  503  502  0.18667355627E+03  0.37123305342E+03  0.73604916803E+03  0.84523924088E+03  0.00000000000E+00 0.  1.
         -4    1    1    2    0  503 -0.20079682758E+03  0.77316424119E+01 -0.77711842741E+03  0.80267813878E+03  0.00000000000E+00 0. -1.
<mgrwt>
<rscale>  4 0.11529738E+04</rscale>
<asrwt>0</asrwt>
<pdfrwt beam="1">  1       21 0.14362130E+00 0.11529738E+04</pdfrwt>
<pdfrwt beam="2">  1       -4 0.17705180E+00 0.11529738E+04</pdfrwt>
<totfact> 0.21927275E+00</totfact>
</mgrwt>
</event>
<event>
 5    0  0.7099509E-001  0.6180832E+03  0.7546771E-02  0.9868584E-01
         21   -1    0    0  501  502  0.00000000000E+00  0.00000000000E+00  0.36000890134E+03  0.36000890134E+03  0.00000000000E+00 0. -1.
          1   -1    0    0  503    0 -0.00000000000E+00 -0.00000000000E+00 -0.11298713459E+04  0.11298713459E+04  0.00000000000E+00 0. -1.
         25    1    1    2    0    0 -0.21457690870E+03  0.56703563392E+02  0.24202238876E+03  0.35136644761E+03  0.12500000000E+03 0.  0.
         21    1    1    2  503  502  0.22776513958E+03 -0.36818752844E+02 -0.14758936142E+03  0.27388902675E+03  0.00000000000E+00 0.  1.
          1    1    1    2  501    0 -0.13188230885E+02 -0.19884810548E+02 -0.86429547193E+03  0.86462477291E+03  0.00000000000E+00 0. -1.
<mgrwt>
<rscale>  4 0.61808318E+03</rscale>
<asrwt>0</asrwt>
<pdfrwt beam="1">  1       21 0.55385984E-01 0.61808318E+03</pdfrwt>
<pdfrwt beam="2">  1        1 0.17382636E+00 0.61808318E+03</pdfrwt>
<totfact> 0.38065010E+02</totfact>
</mgrwt>
</event>
<event>
 5    0  0.7099509E-001  0.7354373E+03  0.7546771E-02  0.9658478E-01
         -1   -1    0    0    0  501 -0.00000000000E+00  0.00000000000E+00  0.16647731062E+03  0.16647731062E+03  0.00000000000E+00 0. -1.
         21   -1    0    0  501  502  0.00000000000E+00 -0.00000000000E+00 -0.12382127529E+04  0.12382127529E+04  0.00000000000E+00 0. -1.
         25    1    1    2    0    0  0.26525288986E+03  0.10879336031E+03 -0.49215672145E+03  0.58312805566E+03  0.12500000000E+03 0.  0.
         21    1    1    2  503  502 -0.38973847901E+03 -0.15672270576E+03 -0.53649213552E+03  0.68138234494E+03  0.00000000000E+00 0. -1.
         -1    1    1    2    0  503  0.12448558914E+03  0.47929345453E+02 -0.43086585308E+02  0.14017966291E+03  0.00000000000E+00 0. -1.
<mgrwt>
<rscale>  4 0.73543734E+03</rscale>
<asrwt>0</asrwt>
<pdfrwt beam="1">  1       21 0.19049427E+00 0.73543734E+03</pdfrwt>
<pdfrwt beam="2">  1       -1 0.25611894E-01 0.73543734E+03</pdfrwt>
<totfact> 0.15500443E+02</totfact>
</mgrwt>
</event>
<event>
 5    0  0.7099509E-001  0.5678377E+03  0.7546771E-02  0.9974475E-01
          2   -1    0    0  503    0 -0.00000000000E+00  0.00000000000E+00  0.87061135279E+03  0.87061135279E+03  0.00000000000E+00 0.  1.
         21   -1    0    0  501  502  0.00000000000E+00 -0.00000000000E+00 -0.18406290944E+03  0.18406290944E+03  0.00000000000E+00 0.  1.
         25    1    1    2    0    0 -0.22638428636E+03  0.14854092044E+02  0.27945192832E+03  0.38103657227E+03  0.12500000000E+03 0.  0.
         21    1    1    2  503  502  0.23603757395E+03 -0.47604032536E+02 -0.23276426734E+02  0.24191253021E+03  0.00000000000E+00 0.  1.
          2    1    1    2  501    0 -0.96532875928E+01  0.32749940492E+02  0.43037294176E+03  0.43172515975E+03  0.00000000000E+00 0.  1.
<mgrwt>
<rscale>  4 0.56783774E+03</rscale>
<asrwt>0</asrwt>
<pdfrwt beam="1">  1       21 0.28317371E-01 0.56783774E+03</pdfrwt>
<pdfrwt beam="2">  1        2 0.13394021E+00 0.56783774E+03</pdfrwt>
<totfact> 0.44126510E+03</totfact>
</mgrwt>
</event>
<event>
 5    0  0.7099509E-001  0.8435928E+03  0.7546771E-02  0.9498977E-01
         -4   -1    0    0    0  501 -0.00000000000E+00  0.00000000000E+00  0.13935470993E+04  0.13935470993E+04  0.00000000000E+00 0.  1.
         21   -1    0    0  501  502  0.00000000000E+00 -0.00000000000E+00 -0.21490977713E+03  0.21490977713E+03  0.00000000000E+00 0.  1.
         25    1    1    2    0    0  0.28385836487E+03 -0.30039475530E+03  0.46005173427E+03  0.63093991672E+03  0.12500000000E+03 0.  0.
         21    1    1    2  503  502 -0.26437877517E+03  0.27690889028E+03  0.15488955511E+03  0.41299569557E+03  0.00000000000E+00 0.  1.
         -4    1    1    2    0  503 -0.19479589699E+02  0.23485865012E+02  0.56369603280E+03  0.56452126414E+03  0.00000000000E+00 0.  1.
<mgrwt>
<rscale>  4 0.84359278E+03</rscale>
<asrwt>0</asrwt>
<pdfrwt beam="1">  1       21 0.33063044E-01 0.84359278E+03</pdfrwt>
<pdfrwt beam="2">  1       -4 0.21439186E+00 0.84359278E+03</pdfrwt>
<totfact> 0.38560634E+01</totfact>
</mgrwt>
</event>
<event>
 5    0  0.7099509E-001  0.5147895E+03  0.7546771E-02  0.1009989E+00
         21   -1    0    0  501  502  0.00000000000E+00  0.00000000000E+00  0.66617120286E+03  0.66617120286E+03  0.00000000000E+00 0. -1.
          1   -1    0    0  503    0 -0.00000000000E+00 -0.00000000000E+00 -0.24524463586E+03  0.24524463586E+03  0.00000000000E+00 0. -1.
         25    1    1    2    0    0 -0.16998001191E+03 -0.17110885698E+03  0.10593335430E+03  0.29157901320E+03  0.12500000000E+03 0.  0.
         21    1    1    2  503  502  0.96228237301E+02  0.91099488570E+02  0.43682726137E+03  0.45648334773E+03  0.00000000000E+00 0. -1.
          1    1    1    2  501    0  0.73751774606E+02  0.80009368406E+02 -0.12183404868E+03  0.16335347780E+03  0.00000000000E+00 0. -1.
<mgrwt>
<rscale>  4 0.51478948E+03</rscale>
<asrwt>0</asrwt>
<pdfrwt beam="1">  1       21 0.10248788E+00 0.51478948E+03</pdfrwt>
<pdfrwt beam="2">  1        1 0.37729944E-01 0.51478948E+03</pdfrwt>
<totfact> 0.86249828E+02</totfact>
</mgrwt>
</event>
<event>
 5    0  0.7894436E-001  0.5180811E+03  0.7546771E-02  0.1009164E+00
         21   -1    0    0  501  502  0.00000000000E+00  0.00000000000E+00  0.19159930993E+03  0.19159930993E+03  0.00000000000E+00 0.  1.
          2   -1    0    0  503    0 -0.00000000000E+00 -0.00000000000E+00 -0.19811444756E+04  0.19811444756E+04  0.00000000000E+00 0.  1.
         25    1    1    2    0    0 -0.18210678437E+03  0.29839551651E+03 -0.34268653901E+02  0.37282986177E+03  0.12500000000E+03 0.  0.
         21    1    1    2  503  502  0.27421355203E+01 -0.82925832428E+02 -0.16045307716E+03  0.18063610647E+03  0.00000000000E+00 0. -1.
          2    1    1    2  501    0  0.17936464885E+03 -0.21546968408E+03 -0.15948234346E+04  0.16192778173E+04  0.00000000000E+00 0.  1.
<mgrwt>
<rscale>  4 0.51808110E+03</rscale>
<asrwt>0</asrwt>
<pdfrwt beam="1">  1       21 0.29476816E-01 0.51808110E+03</pdfrwt>
<pdfrwt beam="2">  1        2 0.30479147E+00 0.51808110E+03</pdfrwt>
<totfact> 0.95105149E+02</totfact>
</mgrwt>
</event>
<event>
 5    0  0.7099509E-001  0.4392483E+03  0.7546771E-02  0.1030978E+00
         -3   -1    0    0    0  501 -0.00000000000E+00  0.00000000000E+00  0.69697035456E+03  0.69697035456E+03  0.00000000000E+00 0. -1.
         21   -1    0    0  501  502  0.00000000000E+00 -0.00000000000E+00 -0.84948168450E+03  0.84948168450E+03  0.00000000000E+00 0. -1.
         25    1    1    2    0    0 -0.47770332962E+02 -0.21211331372E+03 -0.29277736926E+03  0.38550959847E+03  0.12500000000E+03 0.  0.
         21    1    1    2  503  502 -0.35053097228E+02  0.14304218148E+03 -0.49507353612E+03  0.51651485116E+03  0.00000000000E+00 0. -1.
         -3    1    1    2    0  503  0.82823430190E+02  0.69071132240E+02  0.63533957543E+03  0.64442758942E+03  0.00000000000E+00 0. -1.
<mgrwt>
<rscale>  4 0.43924829E+03</rscale>
<asrwt>0</asrwt>
<pdfrwt beam="1">  1       21 0.13068949E+00 0.43924829E+03</pdfrwt>
<pdfrwt beam="2">  1       -3 0.10722621E+00 0.43924829E+03</pdfrwt>
<totfact> 0.14621209E+01</totfact>
</mgrwt>
</event>
<event>
 5    0  0.7099509E-001  0.7919023E+03  0.7546771E-02  0.9571813E-01
          2   -1    0    0  503    0 -0.00000000000E+00  0.00000000000E+00  0.14220830933E+04  0.14220830933E+04  0.00000000000E+00 0.  1.
         21   -1    0    0  501  502  0.00000000000E+00 -0.00000000000E+00 -0.69100086431E+03  0.69100086431E+03  0.00000000000E+00 0. -1.
         25    1    1    2    0    0  0.20741600655E+03  0.46910825350E+02  0.14508673467E+03  0.28617684373E+03  0.12500000000E+03 0.  0.
         21    1    1    2  503  502 -0.16883668004E+03  0.18968333996E+02 -0.60758254762E+03  0.63088998596E+03  0.00000000000E+00 0. -1.
          2    1    1    2  501    0 -0.38579326507E+02 -0.65879159346E+02  0.11935780419E+04  0.11960171279E+04  0.00000000000E+00 0.  1.
<mgrwt>
<rscale>  4 0.79190226E+03</rscale>
<asrwt>0</asrwt>
<pdfrwt beam="1">  1       21 0.10630783E+00 0.79190226E+03</pdfrwt>
<pdfrwt beam="2">  1        2 0.21878201E+00 0.79190226E+03</pdfrwt>
<totfact> 0.10713992E+02</totfact>
</mgrwt>
</event>
<event>
 5    0  0.7099509E-001  0.7185449E+03  0.7546771E-02  0.9686033E-01
          1   -1    0    0  503    0 -0.00000000000E+00  0.00000000000E+00  0.80950871143E+03  0.80950871143E+03  0.00000000000E+00 0. -1.
         21   -1    0    0  501  502  0.00000000000E+00 -0.00000000000E+00 -0.56930582717E+03  0.56930582717E+03  0.00000000000E+00 0.  1.
         25    1    1    2    0    0 -0.21265970997E+03 -0.23152206783E+02  0.11416840864E+03  0.27279956462E+03  0.12500000000E+03 0.  0.
         21    1    1    2  503  502  0.25485153393E+03  0.26502615174E+02 -0.45567231504E+03  0.52277045789E+03  0.00000000000E+00 0.  1.
          1    1    1    2  501    0 -0.42191823957E+02 -0.33504083909E+01  0.58170679066E+03  0.58324451609E+03  0.00000000000E+00 0. -1.
<mgrwt>
<rscale>  4 0.71854488E+03</rscale>
<asrwt>0</asrwt>
<pdfrwt beam="1">  1       21 0.87585512E-01 0.71854488E+03</pdfrwt>
<pdfrwt beam="2">  1        1 0.12453980E+00 0.71854488E+03</pdfrwt>
<totfact> 0.23544492E+02</totfact>
</mgrwt>
</event>
<event>
 5    0  0.7099509E-001  0.6551793E+03  0.7546771E-02  0.9797109E-01
         21   -1    0    0  501  502  0.00000000000E+00  0.00000000000E+00  0.28384045147E+03  0.28384045147E+03  0.00000000000E+00 0. -1.
          1   -1    0    0  503    0 -0.00000000000E+00 -0.00000000000E+00 -0.15874553456E+04  0.15874553456E+04  0.00000000000E+00 0.  1.
         25    1    1    2    0    0 -0.11455198898E+03 -0.22063857585E+03  0.16687726474E+03  0.32446349690E+03  0.12500000000E+03 0.  0.
         21    1    1    2  503  502  0.10664468846E+03  0.18450166043E+03 -0.26177915363E+03  0.33755336993E+03  0.00000000000E+00 0.  1.
          1    1    1    2  501    0  0.79073005177E+01  0.36136915422E+02 -0.12087130052E+04  0.12092789302E+04  0.00000000000E+00 0.  1.
<mgrwt>
<rscale>  4 0.65517934E+03</rscale>
<asrwt>0</asrwt>
<pdfrwt beam="1">  1       21 0.43667761E-01 0.65517934E+03</pdfrwt>
<pdfrwt beam="2">  1        1 0.24422390E+00 0.65517934E+03</pdfrwt>
<totfact> 0.30061080E+02</totfact>
</mgrwt>
</event>
<event>
 5    0  0.7099509E-001  0.5106857E+03  0.7546771E-02  0.1011027E+00
         -3   -1    0    0    0  501 -0.00000000000E+00  0.00000000000E+00  0.63086671674E+03  0.63086671674E+03  0.00000000000E+00 0.  1.
         21   -1    0    0  501  502  0.00000000000E+00 -0.00000000000E+00 -0.19758131426E+03  0.19758131426E+03  0.00000000000E+00 0. -1.
         25    1    1    2    0    0 -0.22769219110E+03 -0.10528069372E+03  0.20632629371E+02  0.28103107257E+03  0.12500000000E+03 0.  0.
         21    1    1    2  503  502  0.20475448424E+03  0.77944156954E+02  0.11462840371E+03  0.24726374857E+03  0.00000000000E+00 0. -1.
         -3    1    1    2    0  503  0.22937706855E+02  0.27336536770E+02  0.29802436939E+03  0.30015320986E+03  0.00000000000E+00 0.  1.
<mgrwt>
<rscale>  4 0.51068569E+03</rscale>
<asrwt>0</asrwt>
<pdfrwt beam="1">  1       21 0.30397126E-01 0.51068569E+03</pdfrwt>
<pdfrwt beam="2">  1       -3 0.97056417E-01 0.51068569E+03</pdfrwt>
<totfact> 0.47814196E+02</totfact>
</mgrwt>
</event>
<event>
 5    0  0.7099509E-001  0.5507224E+03  0.7546771E-02  0.1001327E+00
         21   -1    0    0  501  502  0.00000000000E+00  0.00000000000E+00  0.21840016003E+03  0.21840016003E+03  0.00000000000E+00 0.  1.
          2   -1    0    0  503    0 -0.00000000000E+00 -0.00000000000E+00 -0.11438254516E+04  0.11438254516E+04  0.00000000000E+00 0.  1.
         25    1    1    2    0    0  0.19392731522E+03  0.90201324401E+02 -0.17676589593E+03  0.30432756115E+03  0.12500000000E+03 0.  0.
         21    1    1    2  503  502 -0.22777103374E+03 -0.12010620374E+03  0.46325108367E+02  0.26163172524E+03  0.00000000000E+00 0.  1.
          2    1    1    2  501    0  0.33843718514E+02  0.29904879336E+02 -0.79498450399E+03  0.79626632522E+03  0.00000000000E+00 0.  1.
<mgrwt>
<rscale>  4 0.55072236E+03</rscale>
<asrwt>0</asrwt>
<pdfrwt beam="1">  1       21 0.33600025E-01 0.55072236E+03</pdfrwt>
<pdfrwt beam="2">  1        2 0.17597314E+00 0.55072236E+03</pdfrwt>
<totfact> 0.21105645E+03</totfact>
</mgrwt>
</event>
<event>
 5    0  0.7099509E-001  0.4593049E+03  0.7546771E-02  0.1024983E+00
         21   -1    0    0  501  502  0.00000000000E+00  0.00000000000E+00  0.52391571460E+02  0.52391571460E+02  0.00000000000E+00 0.  1.
          2   -1    0    0  503    0 -0.00000000000E+00 -0.00000000000E+00 -0.16229251103E+04  0.16229251103E+04  0.00000000000E+00 0.  1.
         25    1    1    2    0    0 -0.16822818035E+03  0.12951699824E+03 -0.77522693215E+03  0.81343541220E+03  0.12500000000E+03 0.  0.
         21    1    1    2  503  502  0.14328808643E+03 -0.94941999383E+02 -0.19451712564E+03  0.25958114556E+03  0.00000000000E+00 0.  1.
          2    1    1    2  501    0  0.24940093915E+02 -0.34574998862E+02 -0.60078948105E+03  0.60230012400E+03  0.00000000000E+00 0.  1.
<mgrwt>
<rscale>  4 0.45930490E+03</rscale>
<asrwt>0</asrwt>
<pdfrwt beam="1">  1       21 0.80602426E-02 0.45930490E+03</pdfrwt>
<pdfrwt beam="2">  1        2 0.24968076E+00 0.45930490E+03</pdfrwt>
<totfact> 0.16917827E+04</totfact>
</mgrwt>
</event>
<event>
 5    0  0.7099509E-001  0.5068768E+03  0.7546771E-02  0.1011999E+00
          2   -1    0    0  503    0 -0.00000000000E+00  0.00000000000E+00  0.20601682923E+04  0.20601682923E+04  0.00000000000E+00 0.  1.
         21   -1    0    0  501  502  0.00000000000E+00 -0.00000000000E+00 -0.36911835651E+03  0.36911835651E+03  0.00000000000E+00 0. -1.
         25    1    1    2    0    0 -0.44219920171E+02  0.25593264674E+03 -0.23080255568E+03  0.36925836580E+03  0.12500000000E+03 0.  0.
         21    1    1    2  503  502  0.81392064739E+02 -0.14773841005E+03  0.38253665553E+02  0.17295851796E+03  0.00000000000E+00 0.  1.
          2    1    1    2  501    0 -0.37172144568E+02 -0.10819423670E+03  0.18835988259E+04  0.18870697651E+04  0.00000000000E+00 0.  1.
<mgrwt>
<rscale>  4 0.50687678E+03</rscale>
<asrwt>0</asrwt>
<pdfrwt beam="1">  1       21 0.56787440E-01 0.50687678E+03</pdfrwt>
<pdfrwt beam="2">  1        2 0.31694896E+00 0.50687678E+03</pdfrwt>
<totfact> 0.22179618E+02</totfact>
</mgrwt>
</event>
<event>
 5    0  0.7099509E-001  0.6195321E+03  0.7546771E-02  0.9865692E-01
          2   -1    0    0  503    0 -0.00000000000E+00  0.00000000000E+00  0.10011464514E+04  0.10011464514E+04  0.00000000000E+00 0. -1.
         21   -1    0    0  501  502  0.00000000000E+00 -0.00000000000E+00 -0.22667967909E+03  0.22667967909E+03  0.00000000000E+00 0.  1.
         25    1    1    2    0    0  0.24306443409E+03  0.14681863672E+03  0.29119256935E+03  0.42550457536E+03  0.12500000000E+03 0.  0.
         21    1    1    2  503  502 -0.14345167489E+03 -0.15791283705E+03 -0.81755880233E+02  0.22847072261E+03  0.00000000000E+00 0.  1.
          2    1    1    2  501    0 -0.99612759195E+02  0.11094200337E+02  0.56503008322E+03  0.57385083255E+03  0.00000000000E+00 0. -1.
<mgrwt>
<rscale>  4 0.61953205E+03</rscale>
<asrwt>0</asrwt>
<pdfrwt beam="1">  1       21 0.34873797E-01 0.61953205E+03</pdfrwt>
<pdfrwt beam="2">  1        2 0.15402253E+00 0.61953205E+03</pdfrwt>
<totfact> 0.23673666E+03</totfact>
</mgrwt>
</event>
<event>
 5    0  0.7099509E-001  0.5515243E+03  0.7546771E-02  0.1001142E+00
         21   -1    0    0  501  502  0.00000000000E+00  0.00000000000E+00  0.10370191544E+04  0.10370191544E+04  0.00000000000E+00 0.  1.
         -1   -1    0    0    0  501 -0.00000000000E+00 -0.00000000000E+00 -0.16610304281E+03  0.16610304281E+03  0.00000000000E+00 0.  1.
         25    1    1    2    0    0  0.12012246466E+03  0.18645610144E+03  0.92330644855E+03  0.95776567187E+03  0.12500000000E+03 0.  0.
         21    1    1    2  503  502 -0.91784417347E+02 -0.68067528761E+02 -0.39443325710E+01  0.11433776934E+03  0.00000000000E+00 0. -1.
         -1    1    1    2    0  503 -0.28338047309E+02 -0.11838857268E+03 -0.48446004434E+02  0.13101875596E+03  0.00000000000E+00 0.  1.
<mgrwt>
<rscale>  4 0.55152433E+03</rscale>
<asrwt>0</asrwt>
<pdfrwt beam="1">  1       21 0.15954140E+00 0.55152433E+03</pdfrwt>
<pdfrwt beam="2">  1       -1 0.25554315E-01 0.55152433E+03</pdfrwt>
<totfact> 0.27133617E+02</totfact>
</mgrwt>
</event>
<event>
 5    0  0.7099509E-001  0.4722208E+03  0.7546771E-02  0.1021295E+00
         21   -1    0    0  501  502  0.00000000000E+00  0.00000000000E+00  0.30197802328E+03  0.30197802328E+03  0.00000000000E+00 0. -1.
          1   -1    0    0  503    0 -0.00000000000E+00 -0.00000000000E+00 -0.85517739568E+03  0.85517739568E+03  0.00000000000E+00 0. -1.
         25    1    1    2    0    0  0.21734830775E+03 -0.16063857146E+03  0.45370183962E+02  0.30121170481E+03  0.12500000000E+03 0.  0.
         21    1    1    2  503  502 -0.13500367595E+03  0.10609707098E+03  0.66090449571E+02  0.18398513123E+03  0.00000000000E+00 0. -1.
          1    1    1    2  501    0 -0.82344631803E+02  0.54541500477E+02 -0.66466000594E+03  0.67195858292E+03  0.00000000000E+00 0. -1.
<mgrwt>
<rscale>  4 0.47222081E+03</rscale>
<asrwt>0</asrwt>
<pdfrwt beam="1">  1       21 0.46458158E-01 0.47222081E+03</pdfrwt>
<pdfrwt beam="2">  1        1 0.13156575E+00 0.47222081E+03</pdfrwt>
<totfact> 0.93378763E+02</totfact>
</mgrwt>
</event>
<event>
 5    0  0.7099509E-001  0.9599708E+03  0.7546771E-02  0.9353572E-01
          2   -1    0    0  503    0 -0.00000000000E+00  0.00000000000E+00  0.29380119450E+03  0.29380119450E+03  0.00000000000E+00 0. -1.
         21   -1    0    0  501  502  0.00000000000E+00 -0.00000000000E+00 -0.94128635632E+03  0.94128635632E+03  0.00000000000E+00 0.  1.
         25    1    1    2    0    0  0.56629234993E+02  0.39560265330E+03 -0.68664792197E+02  0.42432084940E+03  0.12500000000E+03 0.  0.
         21    1    1    2  503  502 -0.57440515485E+02 -0.43092317664E+03 -0.61954339548E+03  0.75685415760E+03  0.00000000000E+00 0.  1.
          2    1    1    2  501    0  0.81128049243E+00  0.35320523341E+02  0.40723025868E+02  0.53912543818E+02  0.00000000000E+00 0. -1.
<mgrwt>
<rscale>  4 0.95997077E+03</rscale>
<asrwt>0</asrwt>
<pdfrwt beam="1">  1       21 0.14481328E+00 0.95997077E+03</pdfrwt>
<pdfrwt beam="2">  1        2 0.45200184E-01 0.95997077E+03</pdfrwt>
<totfact> 0.37002573E+02</totfact>
</mgrwt>
</event>
<event>
 5    0  0.7099509E-001  0.5248274E+03  0.7546771E-02  0.1007494E+00
         21   -1    0    0  501  502  0.00000000000E+00  0.00000000000E+00  0.72836720976E+03  0.72836720976E+03  0.00000000000E+00 0. -1.
          2   -1    0    0  503    0 -0.00000000000E+00 -0.00000000000E+00 -0.98868053575E+03  0.98868053575E+03  0.00000000000E+00 0.  1.
         25    1    1    2    0    0 -0.33929725623E+03  0.37372821290E+02  0.53372802139E+03  0.64576308092E+03  0.12500000000E+03 0.  0.
         21    1    1    2  503  502 -0.78629433809E+00  0.13151598569E+03  0.53956150177E+02  0.14215603714E+03  0.00000000000E+00 0. -1.
          2    1    1    2  501    0  0.34008355057E+03 -0.16888880698E+03 -0.84799749756E+03  0.92912862745E+03  0.00000000000E+00 0.  1.
<mgrwt>
<rscale>  4 0.52482745E+03</rscale>
<asrwt>0</asrwt>
<pdfrwt beam="1">  1       21 0.11205649E+00 0.52482745E+03</pdfrwt>
<pdfrwt beam="2">  1        2 0.15210470E+00 0.52482745E+03</pdfrwt>
<totfact> 0.18089879E+02</totfact>
</mgrwt>
</event>
<event>
 5    0  0.7099509E-001  0.4152934E+03  0.7546771E-02  0.1038609E+00
          1   -1    0    0  503    0 -0.00000000000E+00  0.00000000000E+00  0.63424298780E+03  0.63424298780E+03  0.00000000000E+00 0.  1.
         21   -1    0    0  501  502  0.00000000000E+00 -0.00000000000E+00 -0.32242383691E+03  0.32242383691E+03  0.00000000000E+00 0.  1.
         25    1    1    2    0    0  0.41921106164E+02  0.20802024661E+03 -0.13754689026E+03  0.28208854845E+03  0.12500000000E+03 0.  0.
         21    1    1    2  503  502 -0.55441549292E+02 -0.15659674228E+03 -0.49145979206E+02  0.17323865721E+03  0.00000000000E+00 0.  1.
          1    1    1    2  501    0  0.13520443129E+02 -0.51423504331E+02  0.49851202036E+03  0.50133961904E+03  0.00000000000E+00 0.  1.
<mgrwt>
<rscale>  4 0.41529343E+03</rscale>
<asrwt>0</asrwt>
<pdfrwt beam="1">  1       21 0.49603667E-01 0.41529343E+03</pdfrwt>
<pdfrwt beam="2">  1        1 0.97575844E-01 0.41529343E+03</pdfrwt>
<totfact> 0.12980948E+03</totfact>
</mgrwt>
</event>
<event>
 5    0  0.7099509E-001  0.6565513E+03  0.7546771E-02  0.9794563E-01
         21   -1    0    0  501  502  0.00000000000E+00  0.00000000000E+00  0.69598870795E+03  0.69598870795E+03  0.00000000000E+00 0.  1.
          3   -1    0    0  503    0 -0.00000000000E+00 -0.00000000000E+00 -0.42547397509E+03  0.42547397509E+03  0.00000000000E+00 0.  1.
         25    1    1    2    0    0 -0.34572211118E+03  0.31643810181E+02  0.51781776681E+03  0.63583437191E+03  0.12500000000E+03 0.  0.
         21    1    1    2  503  502  0.11650230067E+03  0.97148486432E+02 -0.61535624569E+02  0.16369864865E+03  0.00000000000E+00 0. -1.
          3    1    1    2  501    0  0.22921981051E+03 -0.12879229661E+03 -0.18576740938E+03  0.32192966248E+03  0.00000000000E+00 0.  1.
<mgrwt>
<rscale>  4 0.65655134E+03</rscale>
<asrwt>0</asrwt>
<pdfrwt beam="1">  1       21 0.10707519E+00 0.65655134E+03</pdfrwt>
<pdfrwt beam="2">  1        3 0.65457534E-01 0.65655134E+03</pdfrwt>
<totfact> 0.70685511E+01</totfact>
</mgrwt>
</event>
<event>
 5    0  0.7099509E-001  0.6594896E+03  0.7546771E-02  0.9789134E-01
          2   -1    0    0  503    0 -0.00000000000E+00  0.00000000000E+00  0.18508551998E+03  0.18508551998E+03  0.00000000000E+00 0.  1.
         21   -1    0    0  501  502  0.00000000000E+00 -0.00000000000E+00 -0.91768942975E+03  0.91768942975E+03  0.00000000000E+00 0. -1.
         25    1    1    2    0    0 -0.25271575528E+03  0.10330880455E+03 -0.76461537786E+03  0.82146189085E+03  0.12500000000E+03 0.  0.
         21    1    1    2  503  502  0.17984492772E+03 -0.66604984730E+02 -0.47051763308E+01  0.19183993511E+03  0.00000000000E+00 0.  1.
          2    1    1    2  501    0  0.72870827559E+02 -0.36703819816E+02  0.36716644419E+02  0.89473123761E+02  0.00000000000E+00 0.  1.
<mgrwt>
<rscale>  4 0.65948956E+03</rscale>
<asrwt>0</asrwt>
<pdfrwt beam="1">  1       21 0.14118299E+00 0.65948956E+03</pdfrwt>
<pdfrwt beam="2">  1        2 0.28474695E-01 0.65948956E+03</pdfrwt>
<totfact> 0.69593814E+02</totfact>
</mgrwt>
</event>
<event>
 5    0  0.7099509E-001  0.5915323E+03  0.7546771E-02  0.9923131E-01
         21   -1    0    0  501  502  0.00000000000E+00  0.00000000000E+00  0.12509621280E+03  0.12509621280E+03  0.00000000000E+00 0.  1.
          1   -1    0    0  503    0 -0.00000000000E+00 -0.00000000000E+00 -0.14790099050E+04  0.14790099050E+04  0.00000000000E+00 0.  1.
         25    1    1    2    0    0 -0.13344364232E+03 -0.23614896394E+03 -0.32994069472E+03  0.44503865100E+03  0.12500000000E+03 0.  0.
         21    1    1    2  503  502  0.17866061098E+02  0.29162525543E+03 -0.28187782460E+03  0.40597979475E+03  0.00000000000E+00 0.  1.
          1    1    1    2  501    0  0.11557758123E+03 -0.55476291496E+02 -0.74209517292E+03  0.75308767210E+03  0.00000000000E+00 0.  1.
<mgrwt>
<rscale>  4 0.59153233E+03</rscale>
<asrwt>0</asrwt>
<pdfrwt beam="1">  1       21 0.19245572E-01 0.59153233E+03</pdfrwt>
<pdfrwt beam="2">  1        1 0.22753998E+00 0.59153233E+03</pdfrwt>
<totfact> 0.18499779E+03</totfact>
</mgrwt>
</event>
<event>
 5    0  0.7099509E-001  0.4846546E+03  0.7546771E-02  0.1017864E+00
          2   -1    0    0  503    0 -0.00000000000E+00  0.00000000000E+00  0.18773632739E+04  0.18773632739E+04  0.00000000000E+00 0. -1.
         21   -1    0    0  501  502  0.00000000000E+00 -0.00000000000E+00 -0.14835511755E+03  0.14835511755E+03  0.00000000000E+00 0. -1.
         25    1    1    2    0    0  0.73286126876E+02  0.19018015874E+03 -0.78188064198E+01  0.23921848362E+03  0.12500000000E+03 0.  0.
         21    1    1    2  503  502 -0.11288082299E+03 -0.11879331731E+03  0.25944383534E+03  0.30686322056E+03  0.00000000000E+00 0. -1.
          2    1    1    2  501    0  0.39594696113E+02 -0.71386841427E+02  0.14773831275E+04  0.14796366873E+04  0.00000000000E+00 0. -1.
<mgrwt>
<rscale>  4 0.48465459E+03</rscale>
<asrwt>0</asrwt>
<pdfrwt beam="1">  1       21 0.22823866E-01 0.48465459E+03</pdfrwt>
<pdfrwt beam="2">  1        2 0.28882510E+00 0.48465459E+03</pdfrwt>
<totfact> 0.17996756E+03</totfact>
</mgrwt>
</event>
<event>
 5    0  0.7099509E-001  0.4361784E+03  0.7546771E-02  0.1031926E+00
         21   -1    0    0  501  502  0.00000000000E+00  0.00000000000E+00  0.31537105736E+03  0.31537105736E+03  0.00000000000E+00 0. -1.
          2   -1    0    0  503    0 -0.00000000000E+00 -0.00000000000E+00 -0.14550494318E+04  0.14550494318E+04  0.00000000000E+00 0.  1.
         25    1    1    2    0    0 -0.18331429672E+03  0.89715116885E+02  0.18552138247E+03  0.30281366702E+03  0.12500000000E+03 0.  0.
         21    1    1    2  503  502  0.12732225301E+03 -0.99476991429E+02 -0.21882113208E+02  0.16305046708E+03  0.00000000000E+00 0. -1.
          2    1    1    2  501    0  0.55992043708E+02  0.97618745438E+01 -0.13033176437E+04  0.13045563551E+04  0.00000000000E+00 0.  1.
<mgrwt>
<rscale>  4 0.43617838E+03</rscale>
<asrwt>0</asrwt>
<pdfrwt beam="1">  1       21 0.48518624E-01 0.43617838E+03</pdfrwt>
<pdfrwt beam="2">  1        2 0.22385376E+00 0.43617838E+03</pdfrwt>
<totfact> 0.67423827E+02</totfact>
</mgrwt>
</event>
<event>
 5    0  0.7099509E-001  0.6597083E+03  0.7546771E-02  0.9788731E-01
         21   -1    0    0  501  502  0.00000000000E+00  0.00000000000E+00  0.22123278475E+03  0.22123278475E+03  0.00000000000E+00 0. -1.
          2   -1    0    0  503    0 -0.00000000000E+00 -0.00000000000E+00 -0.11350010159E+04  0.11350010159E+04  0.00000000000E+00 0. -1.
         25    1    1    2    0    0  0.11635227688E+03 -0.26448323442E+03 -0.20253734010E+03  0.37434690831E+03  0.12500000000E+03 0.  0.
         21    1    1    2  503  502 -0.13545292229E+03  0.30334664886E+03 -0.70396969801E+02  0.33959154419E+03  0.00000000000E+00 0. -1.
          2    1    1    2  501    0  0.19100645410E+02 -0.38863414435E+02 -0.64083392120E+03  0.64229534810E+03  0.00000000000E+00 0. -1.
<mgrwt>
<rscale>  4 0.65970825E+03</rscale>
<asrwt>0</asrwt>
<pdfrwt beam="1">  1       21 0.34035813E-01 0.65970825E+03</pdfrwt>
<pdfrwt beam="2">  1        2 0.17461554E+00 0.65970825E+03</pdfrwt>
<totfact> 0.20446406E+03</totfact>
</mgrwt>
</event>
<event>
 5    0  0.7099509E-001  0.7914944E+03  0.7546771E-02  0.9572411E-01
          2   -1    0    0  503    0 -0.00000000000E+00  0.00000000000E+00  0.92965228944E+03  0.92965228944E+03  0.00000000000E+00 0.  1.
         21   -1    0    0  501  502  0.00000000000E+00 -0.00000000000E+00 -0.97058931151E+03  0.97058931151E+03  0.00000000000E+00 0.  1.
         25    1    1    2    0    0  0.41310410441E+03 -0.68843456058E+01 -0.34878962325E+03  0.55496089644E+03  0.12500000000E+03 0.  0.
         21    1    1    2  503  502 -0.34791951036E+03  0.45342140266E+01 -0.45882268588E+03  0.57583574208E+03  0.00000000000E+00 0.  1.
          2    1    1    2  501    0 -0.65184594056E+02  0.23501315792E+01  0.76667528706E+03  0.76944496243E+03  0.00000000000E+00 0.  1.
<mgrwt>
<rscale>  4 0.79149441E+03</rscale>
<asrwt>0</asrwt>
<pdfrwt beam="1">  1       21 0.14932143E+00 0.79149441E+03</pdfrwt>
<pdfrwt beam="2">  1        2 0.14302343E+00 0.79149441E+03</pdfrwt>
<totfact> 0.87114406E+01</totfact>
</mgrwt>
</event>
<event>
 5    0  0.7099509E-001  0.5102400E+03  0.7546771E-02  0.1011140E+00
          2   -1    0    0  503    0 -0.00000000000E+00  0.00000000000E+00  0.19701638366E+04  0.19701638366E+04  0.00000000000E+00 0.  1.
         21   -1    0    0  501  502  0.00000000000E+00 -0.00000000000E+00 -0.51908221456E+02  0.51908221456E+02  0.00000000000E+00 0. -1.
         25    1    1    2    0    0 -0.13904715642E+03 -0.14723768128E+03  0.92755919875E+03  0.95760331749E+03  0.12500000000E+03 0.  0.
         21    1    1    2  503  502  0.15938485837E+03  0.14445672925E+03  0.27813196178E+03  0.35160868572E+03  0.00000000000E+00 0. -1.
          2    1    1    2  501    0 -0.20337701949E+02  0.27809520271E+01  0.71256445457E+03  0.71286005480E+03  0.00000000000E+00 0.  1.
<mgrwt>
<rscale>  4 0.51024004E+03</rscale>
<asrwt>0</asrwt>
<pdfrwt beam="1">  1       21 0.79858817E-02 0.51024004E+03</pdfrwt>
<pdfrwt beam="2">  1        2 0.30310207E+00 0.51024004E+03</pdfrwt>
<totfact> 0.11097739E+04</totfact>
</mgrwt>
</event>
<event>
 5    0  0.7099509E-001  0.3852828E+03  0.7546771E-02  0.1048998E+00
         21   -1    0    0  501  502  0.00000000000E+00  0.00000000000E+00  0.13448031877E+03  0.13448031877E+03  0.00000000000E+00 0. -1.
          1   -1    0    0  503    0 -0.00000000000E+00 -0.00000000000E+00 -0.71957767275E+03  0.71957767275E+03  0.00000000000E+00 0.  1.
         25    1    1    2    0    0 -0.13629114677E+03  0.19925655327E+03 -0.17391290918E+03  0.32272147540E+03  0.12500000000E+03 0.  0.
         21    1    1    2  503  502  0.70358336238E+02 -0.74498996725E+02 -0.64105760710E+01  0.10267176572E+03  0.00000000000E+00 0. -1.
          1    1    1    2  501    0  0.65932810528E+02 -0.12475755654E+03 -0.40477386874E+03  0.42866475039E+03  0.00000000000E+00 0.  1.
<mgrwt>
<rscale>  4 0.38528282E+03</rscale>
<asrwt>0</asrwt>
<pdfrwt beam="1">  1       21 0.20689280E-01 0.38528282E+03</pdfrwt>
<pdfrwt beam="2">  1        1 0.11070426E+00 0.38528282E+03</pdfrwt>
<totfact> 0.62501207E+03</totfact>
</mgrwt>
</event>
<event>
 5    0  0.7099509E-001  0.4917243E+03  0.7546771E-02  0.1015962E+00
          2   -1    0    0  503    0 -0.00000000000E+00  0.00000000000E+00  0.32407289222E+03  0.32407289222E+03  0.00000000000E+00 0.  1.
         21   -1    0    0  501  502  0.00000000000E+00 -0.00000000000E+00 -0.54359807221E+03  0.54359807221E+03  0.00000000000E+00 0. -1.
         25    1    1    2    0    0  0.12505901089E+03 -0.17119197074E+03 -0.23355644441E+03  0.33929347146E+03  0.12500000000E+03 0.  0.
         21    1    1    2  503  502 -0.13415129752E+03  0.20487820460E+03 -0.19711608374E+03  0.31436666460E+03  0.00000000000E+00 0. -1.
          2    1    1    2  501    0  0.90922866253E+01 -0.33686233858E+02  0.21114734816E+03  0.21401082837E+03  0.00000000000E+00 0.  1.
<mgrwt>
<rscale>  4 0.49172426E+03</rscale>
<asrwt>0</asrwt>
<pdfrwt beam="1">  1       21 0.83630471E-01 0.49172426E+03</pdfrwt>
<pdfrwt beam="2">  1        2 0.49857369E-01 0.49172426E+03</pdfrwt>
<totfact> 0.14228902E+03</totfact>
</mgrwt>
</event>
<event>
 5    0  0.7099509E-001  0.4489235E+03  0.7546771E-02  0.1028044E+00
         21   -1    0    0  501  502  0.00000000000E+00  0.00000000000E+00  0.10900368848E+04  0.10900368848E+04  0.00000000000E+00 0.  1.
          2   -1    0    0  503    0 -0.00000000000E+00 -0.00000000000E+00 -0.66624154808E+03  0.66624154808E+03  0.00000000000E+00 0.  1.
         25    1    1    2    0    0  0.50494072877E+01 -0.23634222707E+03  0.97109542504E+03  0.10072410185E+04  0.12500000000E+03 0.  0.
         21    1    1    2  503  502 -0.36879943453E+02  0.95847964510E+02  0.63990030641E+02  0.12100283696E+03  0.00000000000E+00 0. -1.
          2    1    1    2  501    0  0.31830536165E+02  0.14049426256E+03 -0.61129011899E+03  0.62803457741E+03  0.00000000000E+00 0.  1.
<mgrwt>
<rscale>  4 0.44892349E+03</rscale>
<asrwt>0</asrwt>
<pdfrwt beam="1">  1       21 0.16769798E+00 0.44892349E+03</pdfrwt>
<pdfrwt beam="2">  1        2 0.10249870E+00 0.44892349E+03</pdfrwt>
<totfact> 0.10716660E+02</totfact>
</mgrwt>
</event>
<event>
 5    0  0.7099509E-001  0.3926670E+03  0.7546771E-02  0.1046349E+00
          1   -1    0    0  503    0 -0.00000000000E+00  0.00000000000E+00  0.17097416460E+03  0.17097416460E+03  0.00000000000E+00 0.  1.
         21   -1    0    0  501  502  0.00000000000E+00 -0.00000000000E+00 -0.11058526291E+04  0.11058526291E+04  0.00000000000E+00 0. -1.
         25    1    1    2    0    0  0.13236670247E+02  0.21758182498E+03 -0.86997389769E+03  0.90553666004E+03  0.12500000000E+03 0.  0.
         21    1    1    2  503  502 -0.71654274435E+01 -0.11862419911E+03 -0.18230986248E+03  0.21762336713E+03  0.00000000000E+00 0.  1.
          1    1    1    2  501    0 -0.60712428033E+01 -0.98957625871E+02  0.11740529563E+03  0.15366676658E+03  0.00000000000E+00 0.  1.
<mgrwt>
<rscale>  4 0.39266695E+03</rscale>
<asrwt>0</asrwt>
<pdfrwt beam="1">  1       21 0.17013118E+00 0.39266695E+03</pdfrwt>
<pdfrwt beam="2">  1        1 0.26303716E-01 0.39266695E+03</pdfrwt>
<totfact> 0.37468109E+02</totfact>
</mgrwt>
</event>
<event>
 5    0  0.7099509E-001  0.3796782E+03  0.7546771E-02  0.1051053E+00
          1   -1    0    0  503    0 -0.00000000000E+00  0.00000000000E+00  0.20525816109E+04  0.20525816109E+04  0.00000000000E+00 0.  1.
         21   -1    0    0  501  502  0.00000000000E+00 -0.00000000000E+00 -0.50905378519E+02  0.50905378519E+02  0.00000000000E+00 0. -1.
         25    1    1    2    0    0  0.19279394419E+03 -0.85677720959E+02  0.42705598793E+03  0.49245506760E+03  0.12500000000E+03 0.  0.
         21    1    1    2  503  502 -0.13368859315E+03 -0.70321109374E+01  0.26588075909E+03  0.29768216033E+03  0.00000000000E+00 0.  1.
          1    1    1    2  501    0 -0.59105351034E+02  0.92709831896E+02  0.13087394854E+04  0.13133497615E+04  0.00000000000E+00 0.  1.
<mgrwt>
<rscale>  4 0.37967816E+03</rscale>
<asrwt>0</asrwt>
<pdfrwt beam="1">  1       21 0.78315983E-02 0.37967816E+03</pdfrwt>
<pdfrwt beam="2">  1        1 0.31578172E+00 0.37967816E+03</pdfrwt>
<totfact> 0.41670837E+03</totfact>
</mgrwt>
</event>
<event>
 5    0  0.7099509E-001  0.4298540E+03  0.7546771E-02  0.1033906E+00
          2   -1    0    0  503    0 -0.00000000000E+00  0.00000000000E+00  0.36577877798E+04  0.36577877798E+04  0.00000000000E+00 0. -1.
         21   -1    0    0  501  502  0.00000000000E+00 -0.00000000000E+00 -0.24256159753E+03  0.24256159753E+03  0.00000000000E+00 0. -1.
         25    1    1    2    0    0  0.25306567977E+03 -0.79917904306E+02  0.98908229771E+01  0.29351650394E+03  0.12500000000E+03 0.  0.
         21    1    1    2  503  502 -0.11406728034E+03 -0.54981012882E+02 -0.57155758993E+02  0.13892817211E+03  0.00000000000E+00 0.  1.
          2    1    1    2  501    0 -0.13899839944E+03  0.13489891719E+03  0.34624911183E+04  0.34679047013E+04  0.00000000000E+00 0. -1.
<mgrwt>
<rscale>  4 0.42985396E+03</rscale>
<asrwt>0</asrwt>
<pdfrwt beam="1">  1       21 0.37317171E-01 0.42985396E+03</pdfrwt>
<pdfrwt beam="2">  1        2 0.56273654E+00 0.42985396E+03</pdfrwt>
<totfact> 0.61224830E+01</totfact>
</mgrwt>
</event>
<event>
 5    0  0.7099509E-001  0.8145852E+03  0.7546771E-02  0.9539142E-01
         21   -1    0    0  501  502  0.00000000000E+00  0.00000000000E+00  0.78441794019E+03  0.78441794019E+03  0.00000000000E+00 0. -1.
         -1   -1    0    0    0  501 -0.00000000000E+00 -0.00000000000E+00 -0.48497494644E+03  0.48497494644E+03  0.00000000000E+00 0.  1.
         25    1    1    2    0    0 -0.71648110635E+02  0.32002121276E+03  0.64885215379E+03  0.73768634653E+03  0.12500000000E+03 0.  0.
         21    1    1    2  503  502  0.76423578127E+02 -0.22390216554E+03 -0.86778380000E+02  0.25199847273E+03  0.00000000000E+00 0.  1.
         -1    1    1    2    0  503 -0.47754674917E+01 -0.96119047220E+02 -0.26263078004E+03  0.27970806738E+03  0.00000000000E+00 0.  1.
<mgrwt>
<rscale>  4 0.81458524E+03</rscale>
<asrwt>0</asrwt>
<pdfrwt beam="1">  1       21 0.12067968E+00 0.81458524E+03</pdfrwt>
<pdfrwt beam="2">  1       -1 0.74611530E-01 0.81458524E+03</pdfrwt>
<totfact> 0.74481320E+01</totfact>
</mgrwt>
</event>
<event>
 5    0  0.7099509E-001  0.7343030E+03  0.7546771E-02  0.9660303E-01
          2   -1    0    0  503    0 -0.00000000000E+00  0.00000000000E+00  0.28785610446E+04  0.28785610446E+04  0.00000000000E+00 0. -1.
         21   -1    0    0  501  502  0.00000000000E+00 -0.00000000000E+00 -0.78325675189E+02  0.78325675189E+02  0.00000000000E+00 0.  1.
         25    1    1    2    0    0  0.51981645964E+02  0.24702846418E+03  0.23000232337E+03  0.36366361158E+03  0.12500000000E+03 0.  0.
         21    1    1    2  503  502 -0.99152014220E+02 -0.23037165376E+03  0.14253255352E+04  0.14472232385E+04  0.00000000000E+00 0. -1.
          2    1    1    2  501    0  0.47170368256E+02 -0.16656810428E+02  0.11449075108E+04  0.11459998697E+04  0.00000000000E+00 0. -1.
<mgrwt>
<rscale>  4 0.73430298E+03</rscale>
<asrwt>0</asrwt>
<pdfrwt beam="1">  1       21 0.12050106E-01 0.73430298E+03</pdfrwt>
<pdfrwt beam="2">  1        2 0.44285546E+00 0.73430298E+03</pdfrwt>
<totfact> 0.15658192E+03</totfact>
</mgrwt>
</event>
<event>
 5    0  0.7099509E-001  0.6087490E+03  0.7546771E-02  0.9887419E-01
         21   -1    0    0  501  502  0.00000000000E+00  0.00000000000E+00  0.19731004015E+03  0.19731004015E+03  0.00000000000E+00 0. -1.
         -2   -1    0    0    0  501 -0.00000000000E+00 -0.00000000000E+00 -0.59859513824E+03  0.59859513824E+03  0.00000000000E+00 0.  1.
         25    1    1    2    0    0  0.15059344391E+03  0.16596127711E+03 -0.37089891899E+03  0.45101279245E+03  0.12500000000E+03 0.  0.
         21    1    1    2  503  502 -0.14153543110E+03 -0.13787526059E+03  0.92745222383E+02  0.21827400673E+03  0.00000000000E+00 0. -1.
         -2    1    1    2    0  503 -0.90580128020E+01 -0.28086016525E+02 -0.12313140149E+03  0.12661837921E+03  0.00000000000E+00 0.  1.
<mgrwt>
<rscale>  4 0.60874900E+03</rscale>
<asrwt>0</asrwt>
<pdfrwt beam="1">  1       21 0.30355391E-01 0.60874900E+03</pdfrwt>
<pdfrwt beam="2">  1       -2 0.92091559E-01 0.60874900E+03</pdfrwt>
<totfact> 0.81879088E+02</totfact>
</mgrwt>
</event>
<event>
 5    0  0.7099509E-001  0.4416038E+03  0.7546771E-02  0.1030256E+00
          2   -1    0    0  503    0 -0.00000000000E+00  0.00000000000E+00  0.26792219055E+04  0.26792219055E+04  0.00000000000E+00 0. -1.
         21   -1    0    0  501  502  0.00000000000E+00 -0.00000000000E+00 -0.51545305083E+03  0.51545305083E+03  0.00000000000E+00 0. -1.
         25    1    1    2    0    0  0.91057114878E+01  0.25390543506E+03 -0.16283149611E+03  0.32663432162E+03  0.12500000000E+03 0.  0.
         21    1    1    2  503  502  0.24001251279E+02 -0.11594916449E+03 -0.25573198857E+03  0.28181397905E+03  0.00000000000E+00 0. -1.
          2    1    1    2  501    0 -0.33106962767E+02 -0.13795627057E+03  0.25823323393E+04  0.25862266556E+04  0.00000000000E+00 0. -1.
<mgrwt>
<rscale>  4 0.44160383E+03</rscale>
<asrwt>0</asrwt>
<pdfrwt beam="1">  1       21 0.79300471E-01 0.44160383E+03</pdfrwt>
<pdfrwt beam="2">  1        2 0.41218798E+00 0.44160383E+03</pdfrwt>
<totfact> 0.49041001E+01</totfact>
</mgrwt>
</event>
<event>
 5    0  0.7355567E-001  0.4679457E+03  0.7546771E-02  0.1022502E+00
          1   -1    0    0  503    0 -0.00000000000E+00  0.00000000000E+00  0.22648014387E+04  0.22648014387E+04  0.00000000000E+00 0. -1.
         21   -1    0    0  501  502  0.00000000000E+00 -0.00000000000E+00 -0.96325817825E+03  0.96325817825E+03  0.00000000000E+00 0. -1.
         25    1    1    2    0    0  0.25362572606E+03 -0.21910422295E+03 -0.85921004258E+03  0.93069842952E+03  0.12500000000E+03 0.  0.
         21    1    1    2  503  502 -0.22216317784E+02  0.68276585103E+02 -0.38061233079E+02  0.81264471405E+02  0.00000000000E+00 0.  1.
          1    1    1    2  501    0 -0.23140940828E+03  0.15082763784E+03  0.21988145361E+04  0.22160967160E+04  0.00000000000E+00 0. -1.
<mgrwt>
<rscale>  4 0.46794569E+03</rscale>
<asrwt>0</asrwt>
<pdfrwt beam="1">  1       21 0.14819357E+00 0.46794569E+03</pdfrwt>
<pdfrwt beam="2">  1        1 0.34843099E+00 0.46794569E+03</pdfrwt>
<totfact> 0.64138273E+00</totfact>
</mgrwt>
</event>
<event>
 5    0  0.7099509E-001  0.3150493E+03  0.7546771E-02  0.1077951E+00
         21   -1    0    0  501  502  0.00000000000E+00  0.00000000000E+00  0.27634895215E+03  0.27634895215E+03  0.00000000000E+00 0.  1.
          2   -1    0    0  503    0 -0.00000000000E+00 -0.00000000000E+00 -0.31210085056E+04  0.31210085056E+04  0.00000000000E+00 0.  1.
         25    1    1    2    0    0  0.36958299103E+02 -0.22743321346E+03  0.19994563742E+03  0.32968930886E+03  0.12500000000E+03 0.  0.
         21    1    1    2  503  502 -0.19191254719E+02  0.21617659712E+02 -0.18068853035E+02  0.34089748006E+02  0.00000000000E+00 0. -1.
          2    1    1    2  501    0 -0.17767044384E+02  0.20581555375E+03 -0.30265363379E+04  0.30335784009E+04  0.00000000000E+00 0.  1.
<mgrwt>
<rscale>  4 0.31504926E+03</rscale>
<asrwt>0</asrwt>
<pdfrwt beam="1">  1       21 0.42515222E-01 0.31504926E+03</pdfrwt>
<pdfrwt beam="2">  1        2 0.48015517E+00 0.31504926E+03</pdfrwt>
<totfact> 0.11197995E+02</totfact>
</mgrwt>
</event>
<event>
 5    0  0.7099509E-001  0.4912980E+03  0.7546771E-02  0.1016076E+00
          1   -1    0    0  503    0 -0.00000000000E+00  0.00000000000E+00  0.23743171506E+04  0.23743171506E+04  0.00000000000E+00 0. -1.
         21   -1    0    0  501  502  0.00000000000E+00 -0.00000000000E+00 -0.67884539554E+02  0.67884539554E+02  0.00000000000E+00 0. -1.
         25    1    1    2    0    0 -0.21255443074E+03  0.13802773027E+03  0.71229853996E+03  0.76630623798E+03  0.12500000000E+03 0.  0.
         21    1    1    2  503  502  0.13074466939E+03 -0.97563540420E+02  0.12914350094E+03  0.20806454967E+03  0.00000000000E+00 0. -1.
          1    1    1    2  501    0  0.81809761347E+02 -0.40464189850E+02  0.14649905701E+04  0.14678309025E+04  0.00000000000E+00 0. -1.
<mgrwt>
<rscale>  4 0.49129800E+03</rscale>
<asrwt>0</asrwt>
<pdfrwt beam="1">  1       21 0.10443777E-01 0.49129800E+03</pdfrwt>
<pdfrwt beam="2">  1        1 0.36527950E+00 0.49129800E+03</pdfrwt>
<totfact> 0.14835698E+03</totfact>
</mgrwt>
</event>
<event>
 5    0  0.7099509E-001  0.4374017E+03  0.7546771E-02  0.1031547E+00
         -3   -1    0    0    0  501 -0.00000000000E+00  0.00000000000E+00  0.11659439188E+03  0.11659439188E+03  0.00000000000E+00 0.  1.
         21   -1    0    0  501  502  0.00000000000E+00 -0.00000000000E+00 -0.66318705733E+03  0.66318705733E+03  0.00000000000E+00 0.  1.
         25    1    1    2    0    0  0.21092323249E+02 -0.21219302534E+03 -0.42140886780E+03  0.48855009974E+03  0.12500000000E+03 0.  0.
         21    1    1    2  503  502  0.16800240443E+02  0.17520020405E+03 -0.15138108826E+03  0.23214993746E+03  0.00000000000E+00 0.  1.
         -3    1    1    2    0  503 -0.37892563691E+02  0.36992821282E+02  0.26197290611E+02  0.59081412008E+02  0.00000000000E+00 0.  1.
<mgrwt>
<rscale>  4 0.43740166E+03</rscale>
<asrwt>0</asrwt>
<pdfrwt beam="1">  1       21 0.10202878E+00 0.43740166E+03</pdfrwt>
<pdfrwt beam="2">  1       -3 0.17937599E-01 0.43740166E+03</pdfrwt>
<totfact> 0.10153629E+03</totfact>
</mgrwt>
</event>
<event>
 5    0  0.7099509E-001  0.4479991E+03  0.7546771E-02  0.1028320E+00
          2   -1    0    0  503    0 -0.00000000000E+00  0.00000000000E+00  0.12614557522E+04  0.12614557522E+04  0.00000000000E+00 0.  1.
         21   -1    0    0  501  502  0.00000000000E+00 -0.00000000000E+00 -0.18341202958E+03  0.18341202958E+03  0.00000000000E+00 0.  1.
         25    1    1    2    0    0 -0.21781800489E+03 -0.47414415682E+02 -0.10959354646E+02  0.25580836093E+03  0.12500000000E+03 0.  0.
         21    1    1    2  503  502  0.16811561168E+03  0.42281232113E+02  0.10269510291E+03  0.20148658924E+03  0.00000000000E+00 0.  1.
          2    1    1    2  501    0  0.49702393208E+02  0.51331835685E+01  0.98630797436E+03  0.98757283162E+03  0.00000000000E+00 0.  1.
<mgrwt>
<rscale>  4 0.44799913E+03</rscale>
<asrwt>0</asrwt>
<pdfrwt beam="1">  1       21 0.28217236E-01 0.44799913E+03</pdfrwt>
<pdfrwt beam="2">  1        2 0.19407011E+00 0.44799913E+03</pdfrwt>
<totfact> 0.26064616E+03</totfact>
</mgrwt>
</event>
<event>
 5    0  0.7099509E-001  0.4554630E+03  0.7546771E-02  0.1026105E+00
          2   -1    0    0  503    0 -0.00000000000E+00  0.00000000000E+00  0.27319558125E+04  0.27319558125E+04  0.00000000000E+00 0.  1.
         21   -1    0    0  501  502  0.00000000000E+00 -0.00000000000E+00 -0.10356108021E+03  0.10356108021E+03  0.00000000000E+00 0.  1.
         25    1    1    2    0    0 -0.11325551696E+03 -0.22142884755E+03  0.33796295708E+03  0.43783730655E+03  0.12500000000E+03 0.  0.
         21    1    1    2  503  502  0.65528810472E+02  0.14305315296E+03  0.64818554181E+02  0.17017542284E+03  0.00000000000E+00 0.  1.
          2    1    1    2  501    0  0.47726706484E+02  0.78375694590E+02  0.22256132210E+04  0.22275041633E+04  0.00000000000E+00 0.  1.
<mgrwt>
<rscale>  4 0.45546299E+03</rscale>
<asrwt>0</asrwt>
<pdfrwt beam="1">  1       21 0.15932476E-01 0.45546299E+03</pdfrwt>
<pdfrwt beam="2">  1        2 0.42030084E+00 0.45546299E+03</pdfrwt>
<totfact> 0.12147787E+03</totfact>
</mgrwt>
</event>
<event>
 5    0  0.7099509E-001  0.5204450E+03  0.7546771E-02  0.1008576E+00
          2   -1    0    0  503    0 -0.00000000000E+00  0.00000000000E+00  0.11989580800E+04  0.11989580800E+04  0.00000000000E+00 0. -1.
         21   -1    0    0  501  502  0.00000000000E+00 -0.00000000000E+00 -0.20058385087E+03  0.20058385087E+03  0.00000000000E+00 0. -1.
         25    1    1    2    0    0  0.12558082337E+03  0.17538331572E+03  0.38336116217E+02  0.25223899072E+03  0.12500000000E+03 0.  0.
         21    1    1    2  503  502 -0.20451056420E+03 -0.17301852434E+03  0.10357430028E+03  0.28720657428E+03  0.00000000000E+00 0. -1.
          2    1    1    2  501    0  0.78929740826E+02 -0.23647913830E+01  0.85646381261E+03  0.86009636584E+03  0.00000000000E+00 0. -1.
<mgrwt>
<rscale>  4 0.52044496E+03</rscale>
<asrwt>0</asrwt>
<pdfrwt beam="1">  1       21 0.30859055E-01 0.52044496E+03</pdfrwt>
<pdfrwt beam="2">  1        2 0.18445508E+00 0.52044496E+03</pdfrwt>
<totfact> 0.23366191E+03</totfact>
</mgrwt>
</event>
<event>
 5    0  0.7099509E-001  0.4486165E+03  0.7546771E-02  0.1028135E+00
          1   -1    0    0  503    0 -0.00000000000E+00  0.00000000000E+00  0.12694007704E+04  0.12694007704E+04  0.00000000000E+00 0. -1.
         21   -1    0    0  501  502  0.00000000000E+00 -0.00000000000E+00 -0.13335353174E+03  0.13335353174E+03  0.00000000000E+00 0.  1.
         25    1    1    2    0    0 -0.19375456738E+03 -0.11563703106E+03  0.29684853789E+02  0.25965158555E+03  0.12500000000E+03 0.  0.
         21    1    1    2  503  502  0.47836578287E+02 -0.48264565135E+02  0.27347984359E+03  0.28179608109E+03  0.00000000000E+00 0. -1.
          1    1    1    2  501    0  0.14591798910E+03  0.16390159619E+03  0.83288254129E+03  0.86130663550E+03  0.00000000000E+00 0. -1.
<mgrwt>
<rscale>  4 0.44861648E+03</rscale>
<asrwt>0</asrwt>
<pdfrwt beam="1">  1       21 0.20515929E-01 0.44861648E+03</pdfrwt>
<pdfrwt beam="2">  1        1 0.19529242E+00 0.44861648E+03</pdfrwt>
<totfact> 0.23491571E+03</totfact>
</mgrwt>
</event>
<event>
 5    0  0.7099509E-001  0.3893529E+03  0.7546771E-02  0.1047530E+00
          1   -1    0    0  503    0 -0.00000000000E+00  0.00000000000E+00  0.23389957639E+03  0.23389957639E+03  0.00000000000E+00 0. -1.
         21   -1    0    0  501  502  0.00000000000E+00 -0.00000000000E+00 -0.45169681241E+03  0.45169681241E+03  0.00000000000E+00 0. -1.
         25    1    1    2    0    0 -0.15408953802E+03  0.14634106567E+03 -0.24072682520E+03  0.34457756398E+03  0.12500000000E+03 0.  0.
         21    1    1    2  503  502  0.11832847255E+03 -0.78727170699E+02 -0.11531680530E+03  0.18302338760E+03  0.00000000000E+00 0. -1.
          1    1    1    2  501    0  0.35761065466E+02 -0.67613894976E+02  0.13824639448E+03  0.15799543723E+03  0.00000000000E+00 0. -1.
<mgrwt>
<rscale>  4 0.38935292E+03</rscale>
<asrwt>0</asrwt>
<pdfrwt beam="1">  1       21 0.69491817E-01 0.38935292E+03</pdfrwt>
<pdfrwt beam="2">  1        1 0.35984550E-01 0.38935292E+03</pdfrwt>
<totfact> 0.23313153E+03</totfact>
</mgrwt>
</event>
<event>
 5    0  0.7099509E-001  0.5213584E+03  0.7546771E-02  0.1008350E+00
          2   -1    0    0  503    0 -0.00000000000E+00  0.00000000000E+00  0.80322327859E+03  0.80322327859E+03  0.00000000000E+00 0. -1.
         21   -1    0    0  501  502  0.00000000000E+00 -0.00000000000E+00 -0.22610869013E+03  0.22610869013E+03  0.00000000000E+00 0.  1.
         25    1    1    2    0    0  0.18082140663E+03 -0.17123989318E+03  0.15316997367E+03  0.31797094670E+03  0.12500000000E+03 0.  0.
         21    1    1    2  503  502 -0.15572508042E+03  0.11813874071E+03 -0.74711544951E+02  0.20925792142E+03  0.00000000000E+00 0.  1.
          2    1    1    2  501    0 -0.25096326206E+02  0.53101152474E+02  0.49865615975E+03  0.50210310061E+03  0.00000000000E+00 0. -1.
<mgrwt>
<rscale>  4 0.52135837E+03</rscale>
<asrwt>0</asrwt>
<pdfrwt beam="1">  1       21 0.34785953E-01 0.52135837E+03</pdfrwt>
<pdfrwt beam="2">  1        2 0.12357281E+00 0.52135837E+03</pdfrwt>
<totfact> 0.32749355E+03</totfact>
</mgrwt>
</event>
<event>
 5    0  0.7099509E-001  0.1407614E+04  0.7546771E-02  0.8948325E-01
         21   -1    0    0  501  502  0.00000000000E+00  0.00000000000E+00  0.32556457079E+03  0.32556457079E+03  0.00000000000E+00 0.  1.
          2   -1    0    0  503    0 -0.00000000000E+00 -0.00000000000E+00 -0.30228888202E+04  0.30228888202E+04  0.00000000000E+00 0. -1.
         25    1    1    2    0    0  0.67693445560E+03  0.21102453388E+03 -0.70772208744E+03  0.10095876208E+04  0.12500000000E+03 0.  0.
         21    1    1    2  503  502 -0.64527927485E+03 -0.21617271418E+03 -0.48917993044E+03  0.83810082285E+03  0.00000000000E+00 0.  1.
          2    1    1    2  501    0 -0.31655180747E+02  0.51481803027E+01 -0.15004222315E+04  0.15007649473E+04  0.00000000000E+00 0. -1.
<mgrwt>
<rscale>  4 0.14076143E+04</rscale>
<asrwt>0</asrwt>
<pdfrwt beam="1">  1       21 0.50086858E-01 0.14076143E+04</pdfrwt>
<pdfrwt beam="2">  1        2 0.46505981E+00 0.14076143E+04</pdfrwt>
<totfact> 0.68142196E+01</totfact>
</mgrwt>
</event>
<event>
 5    0  0.7099509E-001  0.6302301E+03  0.7546771E-02  0.9844600E-01
          1   -1    0    0  503    0 -0.00000000000E+00  0.00000000000E+00  0.14311717596E+03  0.14311717596E+03  0.00000000000E+00 0. -1.
         21   -1    0    0  501  502  0.00000000000E+00 -0.00000000000E+00 -0.10948466019E+04  0.10948466019E+04  0.00000000000E+00 0. -1.
         25    1    1    2    0    0  0.78878841246E+00  0.25008517303E+03 -0.89610037301E+03  0.93870341135E+03  0.12500000000E+03 0.  0.
         21    1    1    2  503  502 -0.40413046904E+01 -0.21965438970E+03 -0.10317784969E+03  0.24271392981E+03  0.00000000000E+00 0. -1.
          1    1    1    2  501    0  0.32525162779E+01 -0.30430783338E+02  0.47548796737E+02  0.56546436739E+02  0.00000000000E+00 0. -1.
<mgrwt>
<rscale>  4 0.63023009E+03</rscale>
<asrwt>0</asrwt>
<pdfrwt beam="1">  1       21 0.16843793E+00 0.63023009E+03</pdfrwt>
<pdfrwt beam="2">  1        1 0.22018028E-01 0.63023009E+03</pdfrwt>
<totfact> 0.45730187E+02</totfact>
</mgrwt>
</event>
<event>
 5    0  0.7099509E-001  0.5132241E+03  0.7546771E-02  0.1010384E+00
         -2   -1    0    0    0  501 -0.00000000000E+00  0.00000000000E+00  0.58102537247E+03  0.58102537247E+03  0.00000000000E+00 0. -1.
         21   -1    0    0  501  502  0.00000000000E+00 -0.00000000000E+00 -0.42412573095E+03  0.42412573095E+03  0.00000000000E+00 0.  1.
         25    1    1    2    0    0  0.43174750900E+02  0.22750513540E+03 -0.56629852438E+00  0.26315008350E+03  0.12500000000E+03 0.  0.
         21    1    1    2  503  502 -0.71572190281E+02 -0.15515637458E+03 -0.26342803414E+03  0.31399109568E+03  0.00000000000E+00 0.  1.
         -2    1    1    2    0  503  0.28397439380E+02 -0.72348760823E+02  0.42089397418E+03  0.42800992425E+03  0.00000000000E+00 0. -1.
<mgrwt>
<rscale>  4 0.51322406E+03</rscale>
<asrwt>0</asrwt>
<pdfrwt beam="1">  1       21 0.65250112E-01 0.51322406E+03</pdfrwt>
<pdfrwt beam="2">  1       -2 0.89388519E-01 0.51322406E+03</pdfrwt>
<totfact> 0.17763938E+02</totfact>
</mgrwt>
</event>
<event>
 5    0  0.7099509E-001  0.3895544E+03  0.7546771E-02  0.1047458E+00
         21   -1    0    0  501  502  0.00000000000E+00  0.00000000000E+00  0.12122912298E+03  0.12122912298E+03  0.00000000000E+00 0.  1.
          2   -1    0    0  503    0 -0.00000000000E+00 -0.00000000000E+00 -0.18614192490E+04  0.18614192490E+04  0.00000000000E+00 0. -1.
         25    1    1    2    0    0  0.91700657921E+02 -0.21083720757E+03 -0.70551627991E+02  0.27104219408E+03  0.12500000000E+03 0.  0.
         21    1    1    2  503  502 -0.68075324874E+02  0.78697888282E+02 -0.13182300407E+03  0.16794318050E+03  0.00000000000E+00 0. -1.
          2    1    1    2  501    0 -0.23625333047E+02  0.13213931928E+03 -0.15378154939E+04  0.15436629974E+04  0.00000000000E+00 0. -1.
<mgrwt>
<rscale>  4 0.38955445E+03</rscale>
<asrwt>0</asrwt>
<pdfrwt beam="1">  1       21 0.18650633E-01 0.38955445E+03</pdfrwt>
<pdfrwt beam="2">  1        2 0.28637220E+00 0.38955445E+03</pdfrwt>
<totfact> 0.27656938E+03</totfact>
</mgrwt>
</event>
<event>
 5    0  0.7099509E-001  0.4985076E+03  0.7546771E-02  0.1014169E+00
         21   -1    0    0  501  502  0.00000000000E+00  0.00000000000E+00  0.19570927136E+03  0.19570927136E+03  0.00000000000E+00 0.  1.
          2   -1    0    0  503    0 -0.00000000000E+00 -0.00000000000E+00 -0.11612664909E+04  0.11612664909E+04  0.00000000000E+00 0. -1.
         25    1    1    2    0    0 -0.17091219340E+03  0.19328791809E+03 -0.78926074182E+02  0.29736429227E+03  0.12500000000E+03 0.  0.
         21    1    1    2  503  502  0.94709216668E+02 -0.18928520790E+03 -0.47376131218E+02  0.21689449845E+03  0.00000000000E+00 0. -1.
          2    1    1    2  501    0  0.76202976736E+02 -0.40027101898E+01 -0.83925501416E+03  0.84271697155E+03  0.00000000000E+00 0. -1.
<mgrwt>
<rscale>  4 0.49850763E+03</rscale>
<asrwt>0</asrwt>
<pdfrwt beam="1">  1       21 0.30109118E-01 0.49850763E+03</pdfrwt>
<pdfrwt beam="2">  1        2 0.17865638E+00 0.49850763E+03</pdfrwt>
<totfact> 0.25932976E+03</totfact>
</mgrwt>
</event>
<event>
 5    0  0.7099509E-001  0.4391297E+03  0.7546771E-02  0.1031014E+00
          2   -1    0    0  503    0 -0.00000000000E+00  0.00000000000E+00  0.28215415226E+04  0.28215415226E+04  0.00000000000E+00 0.  1.
         21   -1    0    0  501  502  0.00000000000E+00 -0.00000000000E+00 -0.12023131390E+03  0.12023131390E+03  0.00000000000E+00 0.  1.
         25    1    1    2    0    0 -0.13211635419E+03 -0.16598721559E+03  0.12506888873E+03  0.27617696086E+03  0.12500000000E+03 0.  0.
         21    1    1    2  503  502  0.14353720313E+03  0.12311860795E+03  0.15654891178E+03  0.24549680667E+03  0.00000000000E+00 0.  1.
          2    1    1    2  501    0 -0.11420848948E+02  0.42868607635E+02  0.24196924082E+04  0.24200990690E+04  0.00000000000E+00 0.  1.
<mgrwt>
<rscale>  4 0.43912975E+03</rscale>
<asrwt>0</asrwt>
<pdfrwt beam="1">  1       21 0.18497127E-01 0.43912975E+03</pdfrwt>
<pdfrwt beam="2">  1        2 0.43408326E+00 0.43912975E+03</pdfrwt>
<totfact> 0.81897224E+02</totfact>
</mgrwt>
</event>
<event>
 5    0  0.7099509E-001  0.5112100E+03  0.7546771E-02  0.1010894E+00
         -3   -1    0    0    0  501 -0.00000000000E+00  0.00000000000E+00  0.12043790583E+04  0.12043790583E+04  0.00000000000E+00 0.  1.
         21   -1    0    0  501  502  0.00000000000E+00 -0.00000000000E+00 -0.17665353504E+03  0.17665353504E+03  0.00000000000E+00 0.  1.
         25    1    1    2    0    0  0.22528322805E+03 -0.18560763325E+02  0.19815727327E+03  0.32555850431E+03  0.12500000000E+03 0.  0.
         21    1    1    2  503  502 -0.21687547873E+03  0.43093411418E+02 -0.43446240590E+01  0.22115806822E+03  0.00000000000E+00 0.  1.
         -3    1    1    2    0  503 -0.84077493224E+01 -0.24532648093E+02  0.83391287404E+03  0.83431602080E+03  0.00000000000E+00 0.  1.
<mgrwt>
<rscale>  4 0.51121000E+03</rscale>
<asrwt>0</asrwt>
<pdfrwt beam="1">  1       21 0.27177468E-01 0.51121000E+03</pdfrwt>
<pdfrwt beam="2">  1       -3 0.18528908E+00 0.51121000E+03</pdfrwt>
<totfact> 0.11743089E+02</totfact>
</mgrwt>
</event>
<event>
 5    0  0.7099509E-001  0.4703544E+03  0.7546771E-02  0.1021820E+00
         21   -1    0    0  501  502  0.00000000000E+00  0.00000000000E+00  0.13417598839E+04  0.13417598839E+04  0.00000000000E+00 0. -1.
          1   -1    0    0  503    0 -0.00000000000E+00 -0.00000000000E+00 -0.79640963964E+03  0.79640963964E+03  0.00000000000E+00 0.  1.
         25    1    1    2    0    0  0.27053996466E+02 -0.25516884793E+03  0.11745325917E+04  0.12087162069E+04  0.12500000000E+03 0.  0.
         21    1    1    2  503  502 -0.10569644513E+03  0.44496572443E+02  0.10873387430E+03  0.15803398018E+03  0.00000000000E+00 0.  1.
          1    1    1    2  501    0  0.78642448660E+02  0.21067227549E+03 -0.73791622177E+03  0.77141933651E+03  0.00000000000E+00 0.  1.
<mgrwt>
<rscale>  4 0.47035439E+03</rscale>
<asrwt>0</asrwt>
<pdfrwt beam="1">  1       21 0.20642460E+00 0.47035439E+03</pdfrwt>
<pdfrwt beam="2">  1        1 0.12252456E+00 0.47035439E+03</pdfrwt>
<totfact> 0.26053362E+01</totfact>
</mgrwt>
</event>
<event>
 5    0  0.7099509E-001  0.6769568E+03  0.7546771E-02  0.9757471E-01
          1   -1    0    0  503    0 -0.00000000000E+00  0.00000000000E+00  0.21297347231E+03  0.21297347231E+03  0.00000000000E+00 0.  1.
         21   -1    0    0  501  502  0.00000000000E+00 -0.00000000000E+00 -0.60283858354E+03  0.60283858354E+03  0.00000000000E+00 0.  1.
         25    1    1    2    0    0 -0.12311614392E+03 -0.16628418369E+03  0.85457330463E+02  0.25639026887E+03  0.12500000000E+03 0.  0.
         21    1    1    2  503  502  0.15452347588E+03  0.15607779637E+03 -0.47824747959E+03  0.52626840571E+03  0.00000000000E+00 0.  1.
          1    1    1    2  501    0 -0.31407331958E+02  0.10206387316E+02  0.29250378936E+01  0.33153381267E+02  0.00000000000E+00 0.  1.
<mgrwt>
<rscale>  4 0.67695679E+03</rscale>
<asrwt>0</asrwt>
<pdfrwt beam="1">  1       21 0.92744397E-01 0.67695679E+03</pdfrwt>
<pdfrwt beam="2">  1        1 0.32765150E-01 0.67695679E+03</pdfrwt>
<totfact> 0.12847671E+03</totfact>
</mgrwt>
</event>
<event>
 5    0  0.7099509E-001  0.5409733E+03  0.7546771E-02  0.1003605E+00
          1   -1    0    0  503    0 -0.00000000000E+00  0.00000000000E+00  0.30318673390E+03  0.30318673390E+03  0.00000000000E+00 0. -1.
         21   -1    0    0  501  502  0.00000000000E+00 -0.00000000000E+00 -0.72735921384E+03  0.72735921384E+03  0.00000000000E+00 0.  1.
         25    1    1    2    0    0 -0.22344288573E+03  0.42145868721E+02 -0.47482607169E+03  0.54109869321E+03  0.12500000000E+03 0.  0.
         21    1    1    2  503  502  0.23106222455E+03 -0.74814668968E+02 -0.15036345050E+03  0.28565040444E+03  0.00000000000E+00 0. -1.
          1    1    1    2  501    0 -0.76193388175E+01  0.32668800247E+02  0.20101704225E+03  0.20379685010E+03  0.00000000000E+00 0. -1.
<mgrwt>
<rscale>  4 0.54097332E+03</rscale>
<asrwt>0</asrwt>
<pdfrwt beam="1">  1       21 0.11190142E+00 0.54097332E+03</pdfrwt>
<pdfrwt beam="2">  1        1 0.46644114E-01 0.54097332E+03</pdfrwt>
<totfact> 0.52543317E+02</totfact>
</mgrwt>
</event>
<event>
 5    0  0.7099509E-001  0.5953822E+03  0.7546771E-02  0.9915033E-01
         21   -1    0    0  501  502  0.00000000000E+00  0.00000000000E+00  0.19932242272E+04  0.19932242272E+04  0.00000000000E+00 0. -1.
          2   -1    0    0  503    0 -0.00000000000E+00 -0.00000000000E+00 -0.25407769976E+03  0.25407769976E+03  0.00000000000E+00 0. -1.
         25    1    1    2    0    0  0.16930542489E+03 -0.19359895512E+03  0.15047523521E+04  0.15316819264E+04  0.12500000000E+03 0.  0.
         21    1    1    2  503  502 -0.21422515577E+03  0.11007421222E+03  0.43303116720E+03  0.49550453210E+03  0.00000000000E+00 0. -1.
          2    1    1    2  501    0  0.44919730877E+02  0.83524742902E+02 -0.19863699192E+03  0.22011546847E+03  0.00000000000E+00 0. -1.
<mgrwt>
<rscale>  4 0.59538220E+03</rscale>
<asrwt>0</asrwt>
<pdfrwt beam="1">  1       21 0.30664987E+00 0.59538220E+03</pdfrwt>
<pdfrwt beam="2">  1        2 0.39088878E-01 0.59538220E+03</pdfrwt>
<totfact> 0.38860424E+01</totfact>
</mgrwt>
</event>
<event>
 5    0  0.7099509E-001  0.5617871E+03  0.7546771E-02  0.9988019E-01
         -2   -1    0    0    0  501 -0.00000000000E+00  0.00000000000E+00  0.73600717357E+03  0.73600717357E+03  0.00000000000E+00 0. -1.
         21   -1    0    0  501  502  0.00000000000E+00 -0.00000000000E+00 -0.71527112049E+03  0.71527112049E+03  0.00000000000E+00 0. -1.
         25    1    1    2    0    0 -0.96420152047E+02  0.17898478245E+03 -0.71622642916E+02  0.24917303435E+03  0.12500000000E+03 0.  0.
         21    1    1    2  503  502  0.58069945091E+02 -0.21137860772E+03 -0.53217629220E+03  0.57555594021E+03  0.00000000000E+00 0. -1.
         -2    1    1    2    0  503  0.38350206955E+02  0.32393825277E+02  0.62453498819E+03  0.62654931950E+03  0.00000000000E+00 0. -1.
<mgrwt>
<rscale>  4 0.56178708E+03</rscale>
<asrwt>0</asrwt>
<pdfrwt beam="1">  1       21 0.11004171E+00 0.56178708E+03</pdfrwt>
<pdfrwt beam="2">  1       -2 0.11323187E+00 0.56178708E+03</pdfrwt>
<totfact> 0.29376819E+01</totfact>
</mgrwt>
</event>
<event>
 5    0  0.7099509E-001  0.5257769E+03  0.7546771E-02  0.1007261E+00
          2   -1    0    0  503    0 -0.00000000000E+00  0.00000000000E+00  0.13070864057E+04  0.13070864057E+04  0.00000000000E+00 0. -1.
         21   -1    0    0  501  502  0.00000000000E+00 -0.00000000000E+00 -0.73206486399E+02  0.73206486399E+02  0.00000000000E+00 0. -1.
         25    1    1    2    0    0  0.24138669792E+03 -0.46435364628E+02  0.64942043227E+03  0.70554636905E+03  0.12500000000E+03 0.  0.
         21    1    1    2  503  502 -0.21352792476E+03  0.57764689199E+02  0.23034897928E+03  0.31936121591E+03  0.00000000000E+00 0. -1.
          2    1    1    2  501    0 -0.27858773161E+02 -0.11329324571E+02  0.35411050771E+03  0.35538530711E+03  0.00000000000E+00 0. -1.
<mgrwt>
<rscale>  4 0.52577689E+03</rscale>
<asrwt>0</asrwt>
<pdfrwt beam="1">  1       21 0.11262537E-01 0.52577689E+03</pdfrwt>
<pdfrwt beam="2">  1        2 0.20109020E+00 0.52577689E+03</pdfrwt>
<totfact> 0.13738193E+04</totfact>
</mgrwt>
</event>
<event>
 5    0  0.7099509E-001  0.3464270E+03  0.7546771E-02  0.1064091E+00
         21   -1    0    0  501  502  0.00000000000E+00  0.00000000000E+00  0.10675513024E+04  0.10675513024E+04  0.00000000000E+00 0. -1.
          4   -1    0    0  503    0 -0.00000000000E+00 -0.00000000000E+00 -0.77889905877E+02  0.77889905877E+02  0.00000000000E+00 0. -1.
         25    1    1    2    0    0 -0.22517889052E+03  0.37018884741E+02  0.48281975075E+03  0.54846681055E+03  0.12500000000E+03 0.  0.
         21    1    1    2  503  502  0.16227667292E+02 -0.13162111910E+02 -0.20482408073E+02  0.29259313322E+02  0.00000000000E+00 0.  1.
          4    1    1    2  501    0  0.20895122323E+03 -0.23856772831E+02  0.52732405387E+03  0.56771508443E+03  0.00000000000E+00 0. -1.
<mgrwt>
<rscale>  4 0.34642698E+03</rscale>
<asrwt>0</asrwt>
<pdfrwt beam="1">  1       21 0.16423865E+00 0.34642698E+03</pdfrwt>
<pdfrwt beam="2">  1        4 0.11983063E-01 0.34642698E+03</pdfrwt>
<totfact> 0.53390064E+02</totfact>
</mgrwt>
</event>
<event>
 5    0  0.7099509E-001  0.4538908E+03  0.7546771E-02  0.1026568E+00
          1   -1    0    0  503    0 -0.00000000000E+00  0.00000000000E+00  0.30398876708E+03  0.30398876708E+03  0.00000000000E+00 0. -1.
         21   -1    0    0  501  502  0.00000000000E+00 -0.00000000000E+00 -0.87414108993E+03  0.87414108993E+03  0.00000000000E+00 0. -1.
         25    1    1    2    0    0 -0.22487142933E+03 -0.57880313911E+02 -0.30952844513E+03  0.40663269520E+03  0.12500000000E+03 0.  0.
         21    1    1    2  503  502  0.84861209416E+02  0.12883905608E+03 -0.47862036694E+03  0.50287014515E+03  0.00000000000E+00 0. -1.
          1    1    1    2  501    0  0.14001021991E+03 -0.70958742169E+02  0.21799648921E+03  0.26862701666E+03  0.00000000000E+00 0. -1.
<mgrwt>
<rscale>  4 0.45389081E+03</rscale>
<asrwt>0</asrwt>
<pdfrwt beam="1">  1       21 0.13448324E+00 0.45389081E+03</pdfrwt>
<pdfrwt beam="2">  1        1 0.46767503E-01 0.45389081E+03</pdfrwt>
<totfact> 0.33402276E+02</totfact>
</mgrwt>
</event>
<event>
 5    0  0.7099509E-001  0.4086477E+03  0.7546771E-02  0.1040826E+00
         21   -1    0    0  501  502  0.00000000000E+00  0.00000000000E+00  0.43619465411E+03  0.43619465411E+03  0.00000000000E+00 0. -1.
          1   -1    0    0  503    0 -0.00000000000E+00 -0.00000000000E+00 -0.18921354435E+04  0.18921354435E+04  0.00000000000E+00 0.  1.
         25    1    1    2    0    0 -0.38911326206E+02 -0.23500896414E+03  0.20398549786E+03  0.33760685400E+03  0.12500000000E+03 0.  0.
         21    1    1    2  503  502 -0.10853594377E+03  0.86598769191E+02  0.12904729288E+03  0.18955896633E+03  0.00000000000E+00 0. -1.
          1    1    1    2  501    0  0.14744726997E+03  0.14841019495E+03 -0.17889735801E+04  0.18011642772E+04  0.00000000000E+00 0.  1.
<mgrwt>
<rscale>  4 0.40864772E+03</rscale>
<asrwt>0</asrwt>
<pdfrwt beam="1">  1       21 0.67106870E-01 0.40864772E+03</pdfrwt>
<pdfrwt beam="2">  1        1 0.29109776E+00 0.40864772E+03</pdfrwt>
<totfact> 0.80206300E+01</totfact>
</mgrwt>
</event>
<event>
 5    0  0.7099509E-001  0.6544852E+03  0.7546771E-02  0.9798399E-01
         21   -1    0    0  501  502  0.00000000000E+00  0.00000000000E+00  0.19969116033E+03  0.19969116033E+03  0.00000000000E+00 0. -1.
          1   -1    0    0  503    0 -0.00000000000E+00 -0.00000000000E+00 -0.94801160904E+03  0.94801160904E+03  0.00000000000E+00 0. -1.
         25    1    1    2    0    0  0.11326519648E+03  0.24335907154E+03 -0.33362992286E+03  0.44607910494E+03  0.12500000000E+03 0.  0.
         21    1    1    2  503  502 -0.11078365695E+03 -0.26855210460E+03 -0.43853225232E+01  0.29053826355E+03  0.00000000000E+00 0. -1.
          1    1    1    2  501    0 -0.24815395292E+01  0.25193033059E+02 -0.41030520332E+03  0.41108540089E+03  0.00000000000E+00 0. -1.
<mgrwt>
<rscale>  4 0.65448517E+03</rscale>
<asrwt>0</asrwt>
<pdfrwt beam="1">  1       21 0.30721716E-01 0.65448517E+03</pdfrwt>
<pdfrwt beam="2">  1        1 0.14584794E+00 0.65448517E+03</pdfrwt>
<totfact> 0.17786168E+03</totfact>
</mgrwt>
</event>
<event>
 5    0  0.7099509E-001  0.5065343E+03  0.7546771E-02  0.1012087E+00
          2   -1    0    0  503    0 -0.00000000000E+00  0.00000000000E+00  0.15096900873E+03  0.15096900873E+03  0.00000000000E+00 0. -1.
         21   -1    0    0  501  502  0.00000000000E+00 -0.00000000000E+00 -0.12386265653E+04  0.12386265653E+04  0.00000000000E+00 0. -1.
         25    1    1    2    0    0  0.18920013391E+03 -0.18784727129E+03 -0.89786648858E+03  0.94491931894E+03  0.12500000000E+03 0.  0.
         21    1    1    2  503  502 -0.17440874056E+03  0.24659482784E+02 -0.21602235925E+03  0.27873313145E+03  0.00000000000E+00 0.  1.
          2    1    1    2  501    0 -0.14791393355E+02  0.16318778850E+03  0.26231291264E+02  0.16594312362E+03  0.00000000000E+00 0. -1.
<mgrwt>
<rscale>  4 0.50653426E+03</rscale>
<asrwt>0</asrwt>
<pdfrwt beam="1">  1       21 0.19055793E+00 0.50653426E+03</pdfrwt>
<pdfrwt beam="2">  1        2 0.23226001E-01 0.50653426E+03</pdfrwt>
<totfact> 0.38692501E+02</totfact>
</mgrwt>
</event>
<event>
 5    0  0.7099509E-001  0.5669106E+03  0.7546771E-02  0.9976538E-01
          1   -1    0    0  503    0 -0.00000000000E+00  0.00000000000E+00  0.76593903188E+03  0.76593903188E+03  0.00000000000E+00 0.  1.
         21   -1    0    0  501  502  0.00000000000E+00 -0.00000000000E+00 -0.33568944168E+03  0.33568944168E+03  0.00000000000E+00 0. -1.
         25    1    1    2    0    0  0.30260941644E+03 -0.34347579285E+02 -0.15622553748E+03  0.36439488701E+03  0.12500000000E+03 0.  0.
         21    1    1    2  503  502 -0.19551066328E+03 -0.16282959042E+02  0.71502942395E+02  0.20881145798E+03  0.00000000000E+00 0.  1.
          1    1    1    2  501    0 -0.10709875315E+03  0.50630538327E+02  0.51497218529E+03  0.52842212857E+03  0.00000000000E+00 0.  1.
<mgrwt>
<rscale>  4 0.56691057E+03</rscale>
<asrwt>0</asrwt>
<pdfrwt beam="1">  1       21 0.51644530E-01 0.56691057E+03</pdfrwt>
<pdfrwt beam="2">  1        1 0.11783677E+00 0.56691057E+03</pdfrwt>
<totfact> 0.87077065E+02</totfact>
</mgrwt>
</event>
<event>
 5    0  0.7099509E-001  0.5844043E+03  0.7546771E-02  0.9938301E-01
         21   -1    0    0  501  502  0.00000000000E+00  0.00000000000E+00  0.28453715141E+03  0.28453715141E+03  0.00000000000E+00 0. -1.
          2   -1    0    0  503    0 -0.00000000000E+00 -0.00000000000E+00 -0.94881633997E+03  0.94881633997E+03  0.00000000000E+00 0. -1.
         25    1    1    2    0    0 -0.48734824970E+03 -0.59711808164E+02 -0.32216975540E+03  0.60040999976E+03  0.12500000000E+03 0.  0.
         21    1    1    2  503  502  0.33594157312E+02  0.67488037788E+02 -0.25453168592E+02  0.79567998852E+02  0.00000000000E+00 0.  1.
          2    1    1    2  501    0  0.45375409239E+03 -0.77762296242E+01 -0.31665626456E+03  0.55337549276E+03  0.00000000000E+00 0. -1.
<mgrwt>
<rscale>  4 0.58440430E+03</rscale>
<asrwt>0</asrwt>
<pdfrwt beam="1">  1       21 0.43774947E-01 0.58440430E+03</pdfrwt>
<pdfrwt beam="2">  1        2 0.14597174E+00 0.58440430E+03</pdfrwt>
<totfact> 0.16079118E+03</totfact>
</mgrwt>
</event>
<event>
 5    0  0.7099509E-001  0.3943548E+03  0.7546771E-02  0.1045752E+00
          2   -1    0    0  503    0 -0.00000000000E+00  0.00000000000E+00  0.73460728575E+03  0.73460728575E+03  0.00000000000E+00 0. -1.
         21   -1    0    0  501  502  0.00000000000E+00 -0.00000000000E+00 -0.31562577685E+03  0.31562577685E+03  0.00000000000E+00 0.  1.
         25    1    1    2    0    0 -0.16260297117E+03  0.11674098000E+03 -0.96729799916E+01  0.23619218697E+03  0.12500000000E+03 0.  0.
         21    1    1    2  503  502  0.53118139136E+02 -0.79015036284E+02 -0.17508383200E+03  0.19929691642E+03  0.00000000000E+00 0.  1.
          2    1    1    2  501    0  0.10948483203E+03 -0.37725943720E+02  0.60373832089E+03  0.61474395921E+03  0.00000000000E+00 0. -1.
<mgrwt>
<rscale>  4 0.39435476E+03</rscale>
<asrwt>0</asrwt>
<pdfrwt beam="1">  1       21 0.48557812E-01 0.39435476E+03</pdfrwt>
<pdfrwt beam="2">  1        2 0.11301651E+00 0.39435476E+03</pdfrwt>
<totfact> 0.18878067E+03</totfact>
</mgrwt>
</event>
<event>
 5    0  0.1009362E+000  0.3287159E+03  0.7546771E-02  0.1071706E+00
         21   -1    0    0  501  502  0.00000000000E+00  0.00000000000E+00  0.11304566906E+03  0.11304566906E+03  0.00000000000E+00 0. -1.
         -2   -1    0    0    0  501 -0.00000000000E+00 -0.00000000000E+00 -0.13557644857E+04  0.13557644857E+04  0.00000000000E+00 0. -1.
         25    1    1    2    0    0  0.12461137835E+03 -0.20763076925E+03 -0.97447440566E+02  0.28941239715E+03  0.12500000000E+03 0.  0.
         21    1    1    2  503  502 -0.36256595701E+02  0.28249537144E+02 -0.58564907716E+02  0.74447468032E+02  0.00000000000E+00 0.  1.
         -2    1    1    2    0  503 -0.88354782649E+02  0.17938123210E+03 -0.10867064684E+04  0.11049502896E+04  0.00000000000E+00 0. -1.
<mgrwt>
<rscale>  4 0.32871591E+03</rscale>
<asrwt>0</asrwt>
<pdfrwt beam="1">  1       21 0.17391641E-01 0.32871591E+03</pdfrwt>
<pdfrwt beam="2">  1       -2 0.20857915E+00 0.32871591E+03</pdfrwt>
<totfact> 0.30300403E+02</totfact>
</mgrwt>
</event>
<event>
 5    0  0.7099509E-001  0.4837806E+03  0.7546771E-02  0.1018101E+00
         21   -1    0    0  501  502  0.00000000000E+00  0.00000000000E+00  0.19675923108E+03  0.19675923108E+03  0.00000000000E+00 0.  1.
          4   -1    0    0  503    0 -0.00000000000E+00 -0.00000000000E+00 -0.56884222014E+03  0.56884222014E+03  0.00000000000E+00 0.  1.
         25    1    1    2    0    0  0.11567425032E+02 -0.21194343624E+03 -0.24479389533E+03  0.34727924884E+03  0.12500000000E+03 0.  0.
         21    1    1    2  503  502 -0.61169959491E+02  0.99834896728E+02  0.10396680473E+03  0.15658182217E+03  0.00000000000E+00 0.  1.
          4    1    1    2  501    0  0.49602534458E+02  0.11210853951E+03 -0.23125589847E+03  0.26174038021E+03  0.00000000000E+00 0.  1.
<mgrwt>
<rscale>  4 0.48378064E+03</rscale>
<asrwt>0</asrwt>
<pdfrwt beam="1">  1       21 0.30270651E-01 0.48378064E+03</pdfrwt>
<pdfrwt beam="2">  1        4 0.87514188E-01 0.48378064E+03</pdfrwt>
<totfact> 0.50262442E+02</totfact>
</mgrwt>
</event>
<event>
 5    0  0.7099509E-001  0.4975585E+03  0.7546771E-02  0.1014418E+00
         21   -1    0    0  501  502  0.00000000000E+00  0.00000000000E+00  0.11708960736E+03  0.11708960736E+03  0.00000000000E+00 0.  1.
          4   -1    0    0  503    0 -0.00000000000E+00 -0.00000000000E+00 -0.13461347795E+04  0.13461347795E+04  0.00000000000E+00 0.  1.
         25    1    1    2    0    0 -0.17421077377E+03  0.17569355831E+03 -0.16844771813E+03  0.32437209169E+03  0.12500000000E+03 0.  0.
         21    1    1    2  503  502  0.15653015282E+03 -0.13945259477E+03 -0.24580071304E+03  0.32305836232E+03  0.00000000000E+00 0.  1.
          4    1    1    2  501    0  0.17680620946E+02 -0.36240963534E+02 -0.81479674098E+03  0.81579393287E+03  0.00000000000E+00 0.  1.
<mgrwt>
<rscale>  4 0.49755847E+03</rscale>
<asrwt>0</asrwt>
<pdfrwt beam="1">  1       21 0.18013785E-01 0.49755847E+03</pdfrwt>
<pdfrwt beam="2">  1        4 0.20709767E+00 0.49755847E+03</pdfrwt>
<totfact> 0.14681075E+02</totfact>
</mgrwt>
</event>
<event>
 5    0  0.7099509E-001  0.4289374E+03  0.7546771E-02  0.1034196E+00
          2   -1    0    0  503    0 -0.00000000000E+00  0.00000000000E+00  0.73664836799E+03  0.73664836799E+03  0.00000000000E+00 0. -1.
         21   -1    0    0  501  502  0.00000000000E+00 -0.00000000000E+00 -0.14024399982E+03  0.14024399982E+03  0.00000000000E+00 0. -1.
         25    1    1    2    0    0  0.15893279534E+03  0.15199985786E+03  0.25187648531E+03  0.35697388431E+03  0.12500000000E+03 0.  0.
         21    1    1    2  503  502  0.51398616188E+02 -0.16819510263E+03  0.18643551708E+03  0.25629984846E+03  0.00000000000E+00 0.  1.
          2    1    1    2  501    0 -0.21033141152E+03  0.16195244764E+02  0.15809236577E+03  0.26361863504E+03  0.00000000000E+00 0. -1.
<mgrwt>
<rscale>  4 0.42893736E+03</rscale>
<asrwt>0</asrwt>
<pdfrwt beam="1">  1       21 0.21576000E-01 0.42893736E+03</pdfrwt>
<pdfrwt beam="2">  1        2 0.11333052E+00 0.42893736E+03</pdfrwt>
<totfact> 0.95062159E+03</totfact>
</mgrwt>
</event>
<event>
 5    0  0.7099509E-001  0.6938959E+03  0.7546771E-02  0.9727728E-01
          1   -1    0    0  503    0 -0.00000000000E+00  0.00000000000E+00  0.64976666250E+03  0.64976666250E+03  0.00000000000E+00 0.  1.
         21   -1    0    0  501  502  0.00000000000E+00 -0.00000000000E+00 -0.25093767314E+03  0.25093767314E+03  0.00000000000E+00 0. -1.
         25    1    1    2    0    0 -0.22454162074E+03 -0.77217565177E+02  0.35251420844E+03  0.44302681518E+03  0.12500000000E+03 0.  0.
         21    1    1    2  503  502  0.24762693604E+03  0.84653936798E+02 -0.12121107876E+03  0.28840512146E+03  0.00000000000E+00 0. -1.
          1    1    1    2  501    0 -0.23085315300E+02 -0.74363716213E+01  0.16752585967E+03  0.16927239901E+03  0.00000000000E+00 0.  1.
<mgrwt>
<rscale>  4 0.69389591E+03</rscale>
<asrwt>0</asrwt>
<pdfrwt beam="1">  1       21 0.38605796E-01 0.69389591E+03</pdfrwt>
<pdfrwt beam="2">  1        1 0.99964101E-01 0.69389591E+03</pdfrwt>
<totfact> 0.20214057E+03</totfact>
</mgrwt>
</event>
<event>
 5    0  0.7099509E-001  0.4920391E+03  0.7546771E-02  0.1015878E+00
         21   -1    0    0  501  502  0.00000000000E+00  0.00000000000E+00  0.26209702750E+03  0.26209702750E+03  0.00000000000E+00 0. -1.
          1   -1    0    0  503    0 -0.00000000000E+00 -0.00000000000E+00 -0.13089233257E+04  0.13089233257E+04  0.00000000000E+00 0. -1.
         25    1    1    2    0    0  0.67544937469E+00  0.27693734322E+03  0.12001409376E+03  0.32668506394E+03  0.12500000000E+03 0.  0.
         21    1    1    2  503  502  0.28570029137E+02 -0.13009119089E+03 -0.98761839533E+02  0.16581274215E+03  0.00000000000E+00 0.  1.
          1    1    1    2  501    0 -0.29245478512E+02 -0.14684615233E+03 -0.10680785524E+04  0.10785225471E+04  0.00000000000E+00 0. -1.
<mgrwt>
<rscale>  4 0.49203905E+03</rscale>
<asrwt>0</asrwt>
<pdfrwt beam="1">  1       21 0.40322620E-01 0.49203905E+03</pdfrwt>
<pdfrwt beam="2">  1        1 0.20137282E+00 0.49203905E+03</pdfrwt>
<totfact> 0.57201333E+02</totfact>
</mgrwt>
</event>
<event>
 5    0  0.7099509E-001  0.5435686E+03  0.7546771E-02  0.1002994E+00
         21   -1    0    0  501  502  0.00000000000E+00  0.00000000000E+00  0.39601152422E+03  0.39601152422E+03  0.00000000000E+00 0. -1.
         -1   -1    0    0    0  501 -0.00000000000E+00 -0.00000000000E+00 -0.46443341795E+03  0.46443341795E+03  0.00000000000E+00 0.  1.
         25    1    1    2    0    0  0.88556927936E+02 -0.32574705086E+03 -0.35003789874E+02  0.36166799130E+03  0.12500000000E+03 0.  0.
         21    1    1    2  503  502  0.97922853534E+02  0.11794931080E+03  0.10631635706E+03  0.18655855097E+03  0.00000000000E+00 0. -1.
         -1    1    1    2    0  503 -0.18647978147E+03  0.20779774006E+03 -0.13973446091E+03  0.31221839990E+03  0.00000000000E+00 0.  1.
<mgrwt>
<rscale>  4 0.54356863E+03</rscale>
<asrwt>0</asrwt>
<pdfrwt beam="1">  1       21 0.60924850E-01 0.54356863E+03</pdfrwt>
<pdfrwt beam="2">  1       -1 0.71451295E-01 0.54356863E+03</pdfrwt>
<totfact> 0.43330480E+02</totfact>
</mgrwt>
</event>
<event>
 5    0  0.7099509E-001  0.4304246E+03  0.7546771E-02  0.1033726E+00
         21   -1    0    0  501  502  0.00000000000E+00  0.00000000000E+00  0.11874199602E+03  0.11874199602E+03  0.00000000000E+00 0. -1.
          1   -1    0    0  503    0 -0.00000000000E+00 -0.00000000000E+00 -0.10092324194E+04  0.10092324194E+04  0.00000000000E+00 0. -1.
         25    1    1    2    0    0 -0.17338511330E+03  0.11158384160E+03 -0.14683376173E+03  0.28230923613E+03  0.12500000000E+03 0.  0.
         21    1    1    2  503  502  0.15006214536E+03 -0.11522223099E+03 -0.12544935554E+03  0.22700738047E+03  0.00000000000E+00 0. -1.
          1    1    1    2  501    0  0.23322967945E+02  0.36383893884E+01 -0.61820730615E+03  0.61865779886E+03  0.00000000000E+00 0. -1.
<mgrwt>
<rscale>  4 0.43042458E+03</rscale>
<asrwt>0</asrwt>
<pdfrwt beam="1">  1       21 0.18267999E-01 0.43042458E+03</pdfrwt>
<pdfrwt beam="2">  1        1 0.15526653E+00 0.43042458E+03</pdfrwt>
<totfact> 0.45407603E+03</totfact>
</mgrwt>
</event>
<event>
 5    0  0.7099509E-001  0.9098426E+03  0.7546771E-02  0.9413361E-01
         21   -1    0    0  501  502  0.00000000000E+00  0.00000000000E+00  0.25795086285E+03  0.25795086285E+03  0.00000000000E+00 0. -1.
          2   -1    0    0  503    0 -0.00000000000E+00 -0.00000000000E+00 -0.23961858627E+04  0.23961858627E+04  0.00000000000E+00 0. -1.
         25    1    1    2    0    0  0.17011600644E+03 -0.10541816315E+03 -0.69472842238E+03  0.73370636200E+03  0.12500000000E+03 0.  0.
         21    1    1    2  503  502 -0.26436059707E+03  0.13465225560E+03  0.14405697183E+03  0.32980322369E+03  0.00000000000E+00 0. -1.
          2    1    1    2  501    0  0.94244590633E+02 -0.29234092453E+02 -0.15875635493E+04  0.15906271399E+04  0.00000000000E+00 0. -1.
<mgrwt>
<rscale>  4 0.90984262E+03</rscale>
<asrwt>0</asrwt>
<pdfrwt beam="1">  1       21 0.39684748E-01 0.90984262E+03</pdfrwt>
<pdfrwt beam="2">  1        2 0.36864398E+00 0.90984262E+03</pdfrwt>
<totfact> 0.28300292E+02</totfact>
</mgrwt>
</event>
<event>
 5    0  0.7099509E-001  0.4653512E+03  0.7546771E-02  0.1023241E+00
         21   -1    0    0  501  502  0.00000000000E+00  0.00000000000E+00  0.18013304596E+03  0.18013304596E+03  0.00000000000E+00 0. -1.
          1   -1    0    0  503    0 -0.00000000000E+00 -0.00000000000E+00 -0.10009616846E+04  0.10009616846E+04  0.00000000000E+00 0. -1.
         25    1    1    2    0    0 -0.19568677454E+03 -0.10141707197E+03 -0.74687244876E+02  0.26416267860E+03  0.12500000000E+03 0.  0.
         21    1    1    2  503  502  0.20439427458E+03  0.55177938732E+02 -0.47842295596E+02  0.21704955575E+03  0.00000000000E+00 0. -1.
          1    1    1    2  501    0 -0.87075000353E+01  0.46239133239E+02 -0.69829909815E+03  0.69988249619E+03  0.00000000000E+00 0. -1.
<mgrwt>
<rscale>  4 0.46535119E+03</rscale>
<asrwt>0</asrwt>
<pdfrwt beam="1">  1       21 0.27712776E-01 0.46535119E+03</pdfrwt>
<pdfrwt beam="2">  1        1 0.15399411E+00 0.46535119E+03</pdfrwt>
<totfact> 0.20509833E+03</totfact>
</mgrwt>
</event>
<event>
 5    0  0.7099509E-001  0.4723770E+03  0.7546771E-02  0.1021251E+00
         21   -1    0    0  501  502  0.00000000000E+00  0.00000000000E+00  0.41842937068E+03  0.41842937068E+03  0.00000000000E+00 0.  1.
          2   -1    0    0  503    0 -0.00000000000E+00 -0.00000000000E+00 -0.29210121753E+04  0.29210121753E+04  0.00000000000E+00 0.  1.
         25    1    1    2    0    0  0.11151547261E+03 -0.19960233209E+03  0.11171660329E+03  0.28351788490E+03  0.12500000000E+03 0.  0.
         21    1    1    2  503  502  0.19647961472E+03  0.64398600639E+02  0.15991691686E+03  0.26139020460E+03  0.00000000000E+00 0.  1.
          2    1    1    2  501    0 -0.30799508733E+03  0.13520373145E+03 -0.27742163248E+04  0.27945334565E+04  0.00000000000E+00 0.  1.
<mgrwt>
<rscale>  4 0.47237703E+03</rscale>
<asrwt>0</asrwt>
<pdfrwt beam="1">  1       21 0.64373750E-01 0.47237703E+03</pdfrwt>
<pdfrwt beam="2">  1        2 0.44938648E+00 0.47237703E+03</pdfrwt>
<totfact> 0.56037068E+01</totfact>
</mgrwt>
</event>
<event>
 5    0  0.7099509E-001  0.4307649E+03  0.7546771E-02  0.1033619E+00
          1   -1    0    0  503    0 -0.00000000000E+00  0.00000000000E+00  0.76349414376E+03  0.76349414376E+03  0.00000000000E+00 0. -1.
         21   -1    0    0  501  502  0.00000000000E+00 -0.00000000000E+00 -0.12526186226E+03  0.12526186226E+03  0.00000000000E+00 0. -1.
         25    1    1    2    0    0  0.13885404687E+03 -0.24372719070E+03  0.28866316148E+03  0.42146744905E+03  0.12500000000E+03 0.  0.
         21    1    1    2  503  502 -0.74359573072E+02  0.91085869164E+02  0.56130603763E+02  0.13029438341E+03  0.00000000000E+00 0.  1.
          1    1    1    2  501    0 -0.64494473799E+02  0.15264132153E+03  0.29343851626E+03  0.33699417356E+03  0.00000000000E+00 0. -1.
<mgrwt>
<rscale>  4 0.43076488E+03</rscale>
<asrwt>0</asrwt>
<pdfrwt beam="1">  1       21 0.19271056E-01 0.43076488E+03</pdfrwt>
<pdfrwt beam="2">  1        1 0.11746063E+00 0.43076488E+03</pdfrwt>
<totfact> 0.64903547E+03</totfact>
</mgrwt>
</event>
<event>
 5    0  0.7099509E-001  0.5841489E+03  0.7546771E-02  0.9938849E-01
          2   -1    0    0  503    0 -0.00000000000E+00  0.00000000000E+00  0.16474928561E+04  0.16474928561E+04  0.00000000000E+00 0.  1.
         21   -1    0    0  501  502  0.00000000000E+00 -0.00000000000E+00 -0.20363535931E+03  0.20363535931E+03  0.00000000000E+00 0.  1.
         25    1    1    2    0    0  0.57547181058E+02  0.20068871818E+03  0.24446606854E+03  0.34492941063E+03  0.12500000000E+03 0.  0.
         21    1    1    2  503  502  0.35979454431E+01 -0.27882532791E+03 -0.22992542006E+02  0.27979486357E+03  0.00000000000E+00 0.  1.
          2    1    1    2  501    0 -0.61145126501E+02  0.78136609727E+02  0.12223839702E+04  0.12264039412E+04  0.00000000000E+00 0.  1.
<mgrwt>
<rscale>  4 0.58414886E+03</rscale>
<asrwt>0</asrwt>
<pdfrwt beam="1">  1       21 0.31328518E-01 0.58414886E+03</pdfrwt>
<pdfrwt beam="2">  1        2 0.25346043E+00 0.58414886E+03</pdfrwt>
<totfact> 0.12561113E+03</totfact>
</mgrwt>
</event>
<event>
 5    0  0.7099509E-001  0.5896270E+03  0.7546771E-02  0.9927164E-01
         21   -1    0    0  501  502  0.00000000000E+00  0.00000000000E+00  0.17507228332E+03  0.17507228332E+03  0.00000000000E+00 0.  1.
          2   -1    0    0  503    0 -0.00000000000E+00 -0.00000000000E+00 -0.93499810903E+03  0.93499810903E+03  0.00000000000E+00 0. -1.
         25    1    1    2    0    0 -0.22108517965E+03  0.69037355625E+01 -0.39351947974E+03  0.46841103655E+03  0.12500000000E+03 0.  0.
         21    1    1    2  503  502  0.19150022825E+03 -0.54580947628E+01  0.70210949262E+02  0.20403849052E+03  0.00000000000E+00 0.  1.
          2    1    1    2  501    0  0.29584951402E+02 -0.14456407997E+01 -0.43661729524E+03  0.43762086528E+03  0.00000000000E+00 0. -1.
<mgrwt>
<rscale>  4 0.58962697E+03</rscale>
<asrwt>0</asrwt>
<pdfrwt beam="1">  1       21 0.26934198E-01 0.58962697E+03</pdfrwt>
<pdfrwt beam="2">  1        2 0.14384586E+00 0.58962697E+03</pdfrwt>
<totfact> 0.44009983E+03</totfact>
</mgrwt>
</event>
<event>
 5    0  0.7099509E-001  0.4517299E+03  0.7546771E-02  0.1027207E+00
          2   -1    0    0  503    0 -0.00000000000E+00  0.00000000000E+00  0.80288065529E+03  0.80288065529E+03  0.00000000000E+00 0.  1.
         21   -1    0    0  501  502  0.00000000000E+00 -0.00000000000E+00 -0.20134767426E+03  0.20134767426E+03  0.00000000000E+00 0.  1.
         25    1    1    2    0    0 -0.24294427283E+03 -0.11880604246E+03  0.24406723714E+03  0.38513713359E+03  0.12500000000E+03 0.  0.
         21    1    1    2  503  502  0.60995444743E+02 -0.38294987552E+02  0.37138242806E+03  0.37830127970E+03  0.00000000000E+00 0. -1.
          2    1    1    2  501    0  0.18194882809E+03  0.15710103001E+03 -0.13916684165E+02  0.24078991626E+03  0.00000000000E+00 0.  1.
<mgrwt>
<rscale>  4 0.45172992E+03</rscale>
<asrwt>0</asrwt>
<pdfrwt beam="1">  1       21 0.30976566E-01 0.45172992E+03</pdfrwt>
<pdfrwt beam="2">  1        2 0.12352010E+00 0.45172992E+03</pdfrwt>
<totfact> 0.41854948E+03</totfact>
</mgrwt>
</event>
<event>
 5    0  0.7099509E-001  0.4900989E+03  0.7546771E-02  0.1016396E+00
         21   -1    0    0  501  502  0.00000000000E+00  0.00000000000E+00  0.72657020541E+03  0.72657020541E+03  0.00000000000E+00 0.  1.
          2   -1    0    0  503    0 -0.00000000000E+00 -0.00000000000E+00 -0.88759970223E+03  0.88759970223E+03  0.00000000000E+00 0.  1.
         25    1    1    2    0    0  0.14064278874E+02  0.25730057817E+03  0.17683078295E+03  0.33659399470E+03  0.12500000000E+03 0.  0.
         21    1    1    2  503  502  0.87153259581E+02 -0.35889454701E+02  0.44648106416E+03  0.45632125117E+03  0.00000000000E+00 0.  1.
          2    1    1    2  501    0 -0.10121753846E+03 -0.22141112347E+03 -0.78434134393E+03  0.82125466178E+03  0.00000000000E+00 0.  1.
<mgrwt>
<rscale>  4 0.49009890E+03</rscale>
<asrwt>0</asrwt>
<pdfrwt beam="1">  1       21 0.11178003E+00 0.49009890E+03</pdfrwt>
<pdfrwt beam="2">  1        2 0.13655380E+00 0.49009890E+03</pdfrwt>
<totfact> 0.21391837E+02</totfact>
</mgrwt>
</event>
<event>
 5    0  0.7099509E-001  0.4352607E+03  0.7546771E-02  0.1032211E+00
         21   -1    0    0  501  502  0.00000000000E+00  0.00000000000E+00  0.83469864657E+03  0.83469864657E+03  0.00000000000E+00 0.  1.
          2   -1    0    0  503    0 -0.00000000000E+00 -0.00000000000E+00 -0.43045924572E+03  0.43045924572E+03  0.00000000000E+00 0. -1.
         25    1    1    2    0    0 -0.10732763563E+03  0.19254657409E+03  0.68614563180E+03  0.73144667106E+03  0.12500000000E+03 0.  0.
         21    1    1    2  503  502  0.10171968009E+03 -0.76698337586E+02  0.82177046922E+02  0.15160011658E+03  0.00000000000E+00 0. -1.
          2    1    1    2  501    0  0.56079555423E+01 -0.11584823651E+03 -0.36408327788E+03  0.38211110465E+03  0.00000000000E+00 0. -1.
<mgrwt>
<rscale>  4 0.43526072E+03</rscale>
<asrwt>0</asrwt>
<pdfrwt beam="1">  1       21 0.12841518E+00 0.43526072E+03</pdfrwt>
<pdfrwt beam="2">  1        2 0.66224500E-01 0.43526072E+03</pdfrwt>
<totfact> 0.36771502E+02</totfact>
</mgrwt>
</event>
<event>
 5    0  0.7099509E-001  0.4277494E+03  0.7546771E-02  0.1034573E+00
         21   -1    0    0  501  502  0.00000000000E+00  0.00000000000E+00  0.65755127094E+02  0.65755127094E+02  0.00000000000E+00 0. -1.
          1   -1    0    0  503    0 -0.00000000000E+00 -0.00000000000E+00 -0.18882655496E+04  0.18882655496E+04  0.00000000000E+00 0. -1.
         25    1    1    2    0    0 -0.23140501173E+03 -0.15381674829E+03 -0.57175977490E+03  0.64787507414E+03  0.12500000000E+03 0.  0.
         21    1    1    2  503  502  0.12058765702E+03 -0.55312594220E+01 -0.17236447843E+03  0.21043167842E+03  0.00000000000E+00 0.  1.
          1    1    1    2  501    0  0.11081735472E+03  0.15934800771E+03 -0.10783861692E+04  0.10957139241E+04  0.00000000000E+00 0. -1.
<mgrwt>
<rscale>  4 0.42774943E+03</rscale>
<asrwt>0</asrwt>
<pdfrwt beam="1">  1       21 0.10116173E-01 0.42774943E+03</pdfrwt>
<pdfrwt beam="2">  1        1 0.29050239E+00 0.42774943E+03</pdfrwt>
<totfact> 0.33480654E+03</totfact>
</mgrwt>
</event>
<event>
 5    0  0.7099509E-001  0.4147317E+03  0.7546771E-02  0.1038795E+00
         21   -1    0    0  501  502  0.00000000000E+00  0.00000000000E+00  0.21298634986E+03  0.21298634986E+03  0.00000000000E+00 0. -1.
         -3   -1    0    0    0  501 -0.00000000000E+00 -0.00000000000E+00 -0.39427904272E+03  0.39427904272E+03  0.00000000000E+00 0. -1.
         25    1    1    2    0    0  0.25221839160E+02 -0.20047868459E+03  0.46291508632E+02  0.24206558598E+03  0.12500000000E+03 0.  0.
         21    1    1    2  503  502 -0.18697833937E+02  0.16745272914E+03 -0.38098565692E+02  0.17274700055E+03  0.00000000000E+00 0. -1.
         -3    1    1    2    0  503 -0.65240052235E+01  0.33025955452E+02 -0.18948563581E+03  0.19245280605E+03  0.00000000000E+00 0. -1.
<mgrwt>
<rscale>  4 0.41473167E+03</rscale>
<asrwt>0</asrwt>
<pdfrwt beam="1">  1       21 0.32767131E-01 0.41473167E+03</pdfrwt>
<pdfrwt beam="2">  1       -3 0.60658314E-01 0.41473167E+03</pdfrwt>
<totfact> 0.11709189E+03</totfact>
</mgrwt>
</event>
<event>
 5    0  0.7099509E-001  0.5655616E+03  0.7546771E-02  0.9979549E-01
          1   -1    0    0  503    0 -0.00000000000E+00  0.00000000000E+00  0.83591931674E+03  0.83591931674E+03  0.00000000000E+00 0. -1.
         21   -1    0    0  501  502  0.00000000000E+00 -0.00000000000E+00 -0.11998059048E+03  0.11998059048E+03  0.00000000000E+00 0. -1.
         25    1    1    2    0    0  0.22888086580E+02 -0.23180616167E+03  0.35725490338E+03  0.44442550229E+03  0.12500000000E+03 0.  0.
         21    1    1    2  503  502 -0.39651040974E+02  0.29545538888E+03  0.30559832214E+03  0.42691501070E+03  0.00000000000E+00 0. -1.
          1    1    1    2  501    0  0.16762954393E+02 -0.63649227209E+02  0.53085500738E+02  0.84559394232E+02  0.00000000000E+00 0. -1.
<mgrwt>
<rscale>  4 0.56556157E+03</rscale>
<asrwt>0</asrwt>
<pdfrwt beam="1">  1       21 0.18458553E-01 0.56556157E+03</pdfrwt>
<pdfrwt beam="2">  1        1 0.12860297E+00 0.56556157E+03</pdfrwt>
<totfact> 0.59950517E+03</totfact>
</mgrwt>
</event>
<event>
 5    0  0.7099509E-001  0.3720328E+03  0.7546771E-02  0.1053918E+00
         21   -1    0    0  501  502  0.00000000000E+00  0.00000000000E+00  0.34406908385E+03  0.34406908385E+03  0.00000000000E+00 0. -1.
          1   -1    0    0  503    0 -0.00000000000E+00 -0.00000000000E+00 -0.19103691128E+03  0.19103691128E+03  0.00000000000E+00 0.  1.
         25    1    1    2    0    0 -0.78741378204E+02 -0.20759209599E+03  0.15146980285E+03  0.29641657196E+03  0.12500000000E+03 0.  0.
         21    1    1    2  503  502  0.74103398497E+02  0.82750699990E+02  0.18526477438E+02  0.11261537366E+03  0.00000000000E+00 0. -1.
          1    1    1    2  501    0  0.46379797068E+01  0.12484139600E+03 -0.16964107716E+02  0.12607404952E+03  0.00000000000E+00 0.  1.
<mgrwt>
<rscale>  4 0.37203279E+03</rscale>
<asrwt>0</asrwt>
<pdfrwt beam="1">  1       21 0.52933705E-01 0.37203279E+03</pdfrwt>
<pdfrwt beam="2">  1        1 0.29390294E-01 0.37203279E+03</pdfrwt>
<totfact> 0.54922134E+03</totfact>
</mgrwt>
</event>
<event>
 5    0  0.7099509E-001  0.6627887E+03  0.7546771E-02  0.9783074E-01
          1   -1    0    0  503    0 -0.00000000000E+00  0.00000000000E+00  0.19824361675E+04  0.19824361675E+04  0.00000000000E+00 0.  1.
         21   -1    0    0  501  502  0.00000000000E+00 -0.00000000000E+00 -0.20070021451E+03  0.20070021451E+03  0.00000000000E+00 0. -1.
         25    1    1    2    0    0  0.28834912633E+03 -0.29029487755E+03  0.11871475633E+03  0.44399834229E+03  0.12500000000E+03 0.  0.
         21    1    1    2  503  502 -0.15353276799E+03  0.98352870091E+02  0.26556672622E+03  0.32213550561E+03  0.00000000000E+00 0.  1.
          1    1    1    2  501    0 -0.13481635834E+03  0.19194200746E+03  0.13974544705E+04  0.14170025341E+04  0.00000000000E+00 0.  1.
<mgrwt>
<rscale>  4 0.66278867E+03</rscale>
<asrwt>0</asrwt>
<pdfrwt beam="1">  1       21 0.30876957E-01 0.66278867E+03</pdfrwt>
<pdfrwt beam="2">  1        1 0.30499017E+00 0.66278867E+03</pdfrwt>
<totfact> 0.33276126E+02</totfact>
</mgrwt>
</event>
<event>
 5    0  0.7099509E-001  0.4893075E+03  0.7546771E-02  0.1016608E+00
          2   -1    0    0  503    0 -0.00000000000E+00  0.00000000000E+00  0.30190176278E+04  0.30190176278E+04  0.00000000000E+00 0.  1.
         21   -1    0    0  501  502  0.00000000000E+00 -0.00000000000E+00 -0.46122349544E+02  0.46122349544E+02  0.00000000000E+00 0. -1.
         25    1    1    2    0    0 -0.16415816606E+03  0.12419994256E+03  0.70571830645E+03  0.74567878961E+03  0.12500000000E+03 0.  0.
         21    1    1    2  503  502  0.19566858345E+03 -0.14722609186E+03  0.55241262842E+03  0.60425278544E+03  0.00000000000E+00 0. -1.
          2    1    1    2  501    0 -0.31510417395E+02  0.23026149292E+02  0.17147643434E+04  0.17152084023E+04  0.00000000000E+00 0.  1.
<mgrwt>
<rscale>  4 0.48930748E+03</rscale>
<asrwt>0</asrwt>
<pdfrwt beam="1">  1       21 0.70957484E-02 0.48930748E+03</pdfrwt>
<pdfrwt beam="2">  1        2 0.46446410E+00 0.48930748E+03</pdfrwt>
<totfact> 0.35215938E+03</totfact>
</mgrwt>
</event>
<event>
 5    0  0.7099509E-001  0.1521339E+04  0.7546771E-02  0.8870386E-01
         21   -1    0    0  501  502  0.00000000000E+00  0.00000000000E+00  0.16460731561E+04  0.16460731561E+04  0.00000000000E+00 0.  1.
          1   -1    0    0  503    0 -0.00000000000E+00 -0.00000000000E+00 -0.13441979770E+04  0.13441979770E+04  0.00000000000E+00 0.  1.
         25    1    1    2    0    0 -0.18248538405E+03  0.31270691334E+03 -0.23185464937E+03  0.44773664969E+03  0.12500000000E+03 0.  0.
         21    1    1    2  503  502  0.19610700062E+03 -0.19521066039E+03  0.15221328702E+04  0.15470790646E+04  0.00000000000E+00 0.  1.
          1    1    1    2  501    0 -0.13621616579E+02 -0.11749625295E+03 -0.98840304169E+03  0.99545541875E+03  0.00000000000E+00 0.  1.
<mgrwt>
<rscale>  4 0.15213388E+04</rscale>
<asrwt>0</asrwt>
<pdfrwt beam="1">  1       21 0.25324202E+00 0.15213388E+04</pdfrwt>
<pdfrwt beam="2">  1        1 0.20679969E+00 0.15213388E+04</pdfrwt>
<totfact> 0.37747249E+00</totfact>
</mgrwt>
</event>
<event>
 5    0  0.7099509E-001  0.6501422E+03  0.7546771E-02  0.9806512E-01
          1   -1    0    0  503    0 -0.00000000000E+00  0.00000000000E+00  0.26358532864E+04  0.26358532864E+04  0.00000000000E+00 0.  1.
         21   -1    0    0  501  502  0.00000000000E+00 -0.00000000000E+00 -0.49963342276E+02  0.49963342276E+02  0.00000000000E+00 0.  1.
         25    1    1    2    0    0 -0.28830005026E+03 -0.13601438802E+03  0.10103641756E+04  0.10668071991E+04  0.12500000000E+03 0.  0.
         21    1    1    2  503  502  0.29148846846E+03  0.87815423997E+02  0.11101762558E+04  0.11511595870E+04  0.00000000000E+00 0.  1.
          1    1    1    2  501    0 -0.31884181961E+01  0.48198964023E+02  0.46534951269E+03  0.46784984247E+03  0.00000000000E+00 0.  1.
<mgrwt>
<rscale>  4 0.65014225E+03</rscale>
<asrwt>0</asrwt>
<pdfrwt beam="1">  1       21 0.76866701E-02 0.65014225E+03</pdfrwt>
<pdfrwt beam="2">  1        1 0.40551578E+00 0.65014225E+03</pdfrwt>
<totfact> 0.16529006E+03</totfact>
</mgrwt>
</event>
<event>
 5    0  0.7099509E-001  0.3835699E+03  0.7546771E-02  0.1049622E+00
          2   -1    0    0  503    0 -0.00000000000E+00  0.00000000000E+00  0.10596429283E+04  0.10596429283E+04  0.00000000000E+00 0.  1.
         21   -1    0    0  501  502  0.00000000000E+00 -0.00000000000E+00 -0.59536889611E+03  0.59536889611E+03  0.00000000000E+00 0. -1.
         25    1    1    2    0    0  0.12800090380E+03 -0.16156876041E+03 -0.33714037324E+03  0.41446028396E+03  0.12500000000E+03 0.  0.
         21    1    1    2  503  502 -0.41437435360E+02  0.13632403173E+03 -0.19419966084E+03  0.24086263917E+03  0.00000000000E+00 0. -1.
          2    1    1    2  501    0 -0.86563468441E+02  0.25244728677E+02  0.99561406627E+03  0.99968890129E+03  0.00000000000E+00 0.  1.
<mgrwt>
<rscale>  4 0.38356994E+03</rscale>
<asrwt>0</asrwt>
<pdfrwt beam="1">  1       21 0.91595215E-01 0.38356994E+03</pdfrwt>
<pdfrwt beam="2">  1        2 0.16302199E+00 0.38356994E+03</pdfrwt>
<totfact> 0.27995483E+02</totfact>
</mgrwt>
</event>
<event>
 5    0  0.7099509E-001  0.6526603E+03  0.7546771E-02  0.9801800E-01
          1   -1    0    0  503    0 -0.00000000000E+00  0.00000000000E+00  0.35241548417E+03  0.35241548417E+03  0.00000000000E+00 0. -1.
         21   -1    0    0  501  502  0.00000000000E+00 -0.00000000000E+00 -0.17749228184E+04  0.17749228184E+04  0.00000000000E+00 0. -1.
         25    1    1    2    0    0 -0.24239979174E+03  0.15439384971E+03 -0.39465099218E+03  0.50395389223E+03  0.12500000000E+03 0.  0.
         21    1    1    2  503  502  0.17788173840E+03 -0.95696965998E+01 -0.12979922076E+04  0.13101592510E+04  0.00000000000E+00 0. -1.
          1    1    1    2  501    0  0.64518053343E+02 -0.14482415311E+03  0.27013586561E+03  0.31322515930E+03  0.00000000000E+00 0. -1.
<mgrwt>
<rscale>  4 0.65266032E+03</rscale>
<asrwt>0</asrwt>
<pdfrwt beam="1">  1       21 0.27306505E+00 0.65266032E+03</pdfrwt>
<pdfrwt beam="2">  1        1 0.54217766E-01 0.65266032E+03</pdfrwt>
<totfact> 0.28940481E+01</totfact>
</mgrwt>
</event>
<event>
 5    0  0.7099509E-001  0.8660488E+03  0.7546771E-02  0.9469046E-01
         21   -1    0    0  501  502  0.00000000000E+00  0.00000000000E+00  0.16836723535E+04  0.16836723535E+04  0.00000000000E+00 0.  1.
          2   -1    0    0  503    0 -0.00000000000E+00 -0.00000000000E+00 -0.47721191253E+03  0.47721191253E+03  0.00000000000E+00 0. -1.
         25    1    1    2    0    0  0.17661573603E+03 -0.14431193865E+03  0.15701015744E+04  0.15914970964E+04  0.12500000000E+03 0.  0.
         21    1    1    2  503  502 -0.10864057888E+03  0.16818778160E+03 -0.15835770579E+01  0.20023089916E+03  0.00000000000E+00 0. -1.
          2    1    1    2  501    0 -0.67975157148E+02 -0.23875842954E+02 -0.36205755641E+03  0.36915627046E+03  0.00000000000E+00 0. -1.
<mgrwt>
<rscale>  4 0.86604879E+03</rscale>
<asrwt>0</asrwt>
<pdfrwt beam="1">  1       21 0.25902651E+00 0.86604879E+03</pdfrwt>
<pdfrwt beam="2">  1        2 0.73417218E-01 0.86604879E+03</pdfrwt>
<totfact> 0.34802052E+01</totfact>
</mgrwt>
</event>
<event>
 5    0  0.7099509E-001  0.4743337E+03  0.7546771E-02  0.1020704E+00
         21   -1    0    0  501  502  0.00000000000E+00  0.00000000000E+00  0.31398559934E+03  0.31398559934E+03  0.00000000000E+00 0. -1.
          2   -1    0    0  503    0 -0.00000000000E+00 -0.00000000000E+00 -0.21304976878E+04  0.21304976878E+04  0.00000000000E+00 0. -1.
         25    1    1    2    0    0  0.12525451444E+03  0.20051078598E+03 -0.64587185586E+02  0.27511774429E+03  0.12500000000E+03 0.  0.
         21    1    1    2  503  502 -0.99720926214E+02 -0.36157677113E+01  0.19143958704E+03  0.21588527598E+03  0.00000000000E+00 0. -1.
          2    1    1    2  501    0 -0.25533588228E+02 -0.19689501827E+03 -0.19433644899E+04  0.19534802669E+04  0.00000000000E+00 0. -1.
<mgrwt>
<rscale>  4 0.47433367E+03</rscale>
<asrwt>0</asrwt>
<pdfrwt beam="1">  1       21 0.48305476E-01 0.47433367E+03</pdfrwt>
<pdfrwt beam="2">  1        2 0.32776888E+00 0.47433367E+03</pdfrwt>
<totfact> 0.29070566E+02</totfact>
</mgrwt>
</event>
<event>
 5    0  0.7099509E-001  0.4855624E+03  0.7546771E-02  0.1017618E+00
          2   -1    0    0  503    0 -0.00000000000E+00  0.00000000000E+00  0.53017634889E+03  0.53017634889E+03  0.00000000000E+00 0. -1.
         21   -1    0    0  501  502  0.00000000000E+00 -0.00000000000E+00 -0.33571062429E+03  0.33571062429E+03  0.00000000000E+00 0.  1.
         25    1    1    2    0    0  0.65219684785E+02  0.32077323361E+03 -0.12674885244E+03  0.37261152194E+03  0.12500000000E+03 0.  0.
         21    1    1    2  503  502 -0.67183274204E+00 -0.12407354090E+03  0.16900971724E+02  0.12522115538E+03  0.00000000000E+00 0. -1.
          2    1    1    2  501    0 -0.64547852043E+02 -0.19669969272E+03  0.30431360531E+03  0.36805429586E+03  0.00000000000E+00 0. -1.
<mgrwt>
<rscale>  4 0.48556237E+03</rscale>
<asrwt>0</asrwt>
<pdfrwt beam="1">  1       21 0.51647788E-01 0.48556237E+03</pdfrwt>
<pdfrwt beam="2">  1        2 0.81565592E-01 0.48556237E+03</pdfrwt>
<totfact> 0.24057395E+03</totfact>
</mgrwt>
</event>
<event>
 5    0  0.7099509E-001  0.6916805E+03  0.7546771E-02  0.9731566E-01
          2   -1    0    0  503    0 -0.00000000000E+00  0.00000000000E+00  0.10246385922E+04  0.10246385922E+04  0.00000000000E+00 0. -1.
         21   -1    0    0  501  502  0.00000000000E+00 -0.00000000000E+00 -0.82480279217E+03  0.82480279217E+03  0.00000000000E+00 0. -1.
         25    1    1    2    0    0  0.16126035262E+03  0.14043134997E+03 -0.44137513252E+03  0.50612535304E+03  0.12500000000E+03 0.  0.
         21    1    1    2  503  502 -0.17079370831E+03 -0.35529953544E+03 -0.22287865773E+03  0.45286106783E+03  0.00000000000E+00 0. -1.
          2    1    1    2  501    0  0.95333556898E+01  0.21486818548E+03  0.86408959033E+03  0.89045496355E+03  0.00000000000E+00 0. -1.
<mgrwt>
<rscale>  4 0.69168046E+03</rscale>
<asrwt>0</asrwt>
<pdfrwt beam="1">  1       21 0.12689274E+00 0.69168046E+03</pdfrwt>
<pdfrwt beam="2">  1        2 0.15763671E+00 0.69168046E+03</pdfrwt>
<totfact> 0.11968352E+02</totfact>
</mgrwt>
</event>
<event>
 5    0  0.7099509E-001  0.4086299E+03  0.7546771E-02  0.1040832E+00
          1   -1    0    0  503    0 -0.00000000000E+00  0.00000000000E+00  0.73439376446E+03  0.73439376446E+03  0.00000000000E+00 0.  1.
         21   -1    0    0  501  502  0.00000000000E+00 -0.00000000000E+00 -0.10607686073E+04  0.10607686073E+04  0.00000000000E+00 0.  1.
         25    1    1    2    0    0 -0.84420731438E+02 -0.18424042924E+03 -0.93455455152E+03  0.96441101478E+03  0.12500000000E+03 0.  0.
         21    1    1    2  503  502  0.95537544699E+02 -0.21692036290E+02 -0.70973564909E+02  0.12097608773E+03  0.00000000000E+00 0. -1.
          1    1    1    2  501    0 -0.11116813261E+02  0.20593246553E+03  0.67915327356E+03  0.70977526928E+03  0.00000000000E+00 0.  1.
<mgrwt>
<rscale>  4 0.40862987E+03</rscale>
<asrwt>0</asrwt>
<pdfrwt beam="1">  1       21 0.16319517E+00 0.40862987E+03</pdfrwt>
<pdfrwt beam="2">  1        1 0.11298366E+00 0.40862987E+03</pdfrwt>
<totfact> 0.60669459E+01</totfact>
</mgrwt>
</event>
<event>
 5    0  0.7099509E-001  0.4958908E+03  0.7546771E-02  0.1014857E+00
         21   -1    0    0  501  502  0.00000000000E+00  0.00000000000E+00  0.15962140717E+03  0.15962140717E+03  0.00000000000E+00 0.  1.
          3   -1    0    0  503    0 -0.00000000000E+00 -0.00000000000E+00 -0.27490950958E+04  0.27490950958E+04  0.00000000000E+00 0.  1.
         25    1    1    2    0    0  0.14803941674E+03 -0.16587481279E+03 -0.69545398863E+02  0.26437035562E+03  0.12500000000E+03 0.  0.
         21    1    1    2  503  502 -0.10267260114E+03  0.20889405340E+03 -0.15738925297E+03  0.28098000911E+03  0.00000000000E+00 0.  1.
          3    1    1    2  501    0 -0.45366815600E+02 -0.43019240613E+02 -0.23625390368E+04  0.23633661382E+04  0.00000000000E+00 0.  1.
<mgrwt>
<rscale>  4 0.49589080E+03</rscale>
<asrwt>0</asrwt>
<pdfrwt beam="1">  1       21 0.24557141E-01 0.49589080E+03</pdfrwt>
<pdfrwt beam="2">  1        3 0.42293768E+00 0.49589080E+03</pdfrwt>
<totfact> 0.70687878E+00</totfact>
</mgrwt>
</event>
<event>
 5    0  0.7099509E-001  0.4582927E+03  0.7546771E-02  0.1025278E+00
          2   -1    0    0  503    0 -0.00000000000E+00  0.00000000000E+00  0.13982181471E+04  0.13982181471E+04  0.00000000000E+00 0.  1.
         21   -1    0    0  501  502  0.00000000000E+00 -0.00000000000E+00 -0.87589917719E+02  0.87589917719E+02  0.00000000000E+00 0.  1.
         25    1    1    2    0    0  0.25619053819E+03  0.15026780823E+03  0.83088636327E+03  0.89118525275E+03  0.12500000000E+03 0.  0.
         21    1    1    2  503  502 -0.53841605893E+02 -0.19252251295E+02 -0.60285384220E+00  0.57183311708E+02  0.00000000000E+00 0. -1.
          2    1    1    2  501    0 -0.20234893229E+03 -0.13101555694E+03  0.48034471992E+03  0.53743950033E+03  0.00000000000E+00 0.  1.
<mgrwt>
<rscale>  4 0.45829273E+03</rscale>
<asrwt>0</asrwt>
<pdfrwt beam="1">  1       21 0.13475373E-01 0.45829273E+03</pdfrwt>
<pdfrwt beam="2">  1        2 0.21511047E+00 0.45829273E+03</pdfrwt>
<totfact> 0.88798177E+03</totfact>
</mgrwt>
</event>
<event>
 5    0  0.7099509E-001  0.7918584E+03  0.7546771E-02  0.9571877E-01
         21   -1    0    0  501  502  0.00000000000E+00  0.00000000000E+00  0.40761615196E+03  0.40761615196E+03  0.00000000000E+00 0. -1.
          2   -1    0    0  503    0 -0.00000000000E+00 -0.00000000000E+00 -0.59278922854E+03  0.59278922854E+03  0.00000000000E+00 0. -1.
         25    1    1    2    0    0  0.33720150215E+03  0.30477888138E+02 -0.76968636751E+02  0.36902970851E+03  0.12500000000E+03 0.  0.
         21    1    1    2  503  502 -0.40783899752E+03 -0.74796580753E+02  0.82920468336E+02  0.42285101449E+03  0.00000000000E+00 0. -1.
          2    1    1    2  501    0  0.70637495369E+02  0.44318692615E+02 -0.19112490816E+03  0.20852465751E+03  0.00000000000E+00 0. -1.
<mgrwt>
<rscale>  4 0.79185836E+03</rscale>
<asrwt>0</asrwt>
<pdfrwt beam="1">  1       21 0.62710178E-01 0.79185836E+03</pdfrwt>
<pdfrwt beam="2">  1        2 0.91198342E-01 0.79185836E+03</pdfrwt>
<totfact> 0.13202678E+03</totfact>
</mgrwt>
</event>
