<event>
 5    0  0.1856407E+000  0.2543747E+03  0.7546771E-02  0.1110571E+00
         21   -1    0    0  502  501  0.00000000000E+00  0.00000000000E+00  0.39851306813E+02  0.39851306813E+02  0.00000000000E+00 0. -1.
         21   -1    0    0  503  502 -0.00000000000E+00 -0.00000000000E+00 -0.17804355513E+04  0.17804355513E+04  0.00000000000E+00 0. -1.
         25    1    1    2    0    0 -0.19871791224E+03 -0.97942109003E+02 -0.54769571088E+03  0.60388497007E+03  0.12500000000E+03 0.  0.
         21    1    1    2  503  504  0.16149009830E+03  0.40293026446E+02 -0.75152873619E+03  0.76973893052E+03  0.00000000000E+00 0. -1.
         21    1    1    2  504  501  0.37227813940E+02  0.57649082558E+02 -0.44135979743E+03  0.44666295754E+03  0.00000000000E+00 0. -1.
<mgrwt>
<rscale>  4 0.25437466E+03</rscale>
<asrwt>0</asrwt>
<pdfrwt beam="1">  1       21 0.61309716E-02 0.25437466E+03</pdfrwt>
<pdfrwt beam="2">  1       21 0.27391310E+00 0.25437466E+03</pdfrwt>
<totfact> 0.86707174E+03</totfact>
</mgrwt>
</event>
<event>
 5    0  0.1856407E+000  0.2360415E+03  0.7546771E-02  0.1122458E+00
         21   -1    0    0  502  501  0.00000000000E+00  0.00000000000E+00  0.97305119899E+03  0.97305119899E+03  0.00000000000E+00 0.  1.
         21   -1    0    0  503  502 -0.00000000000E+00 -0.00000000000E+00 -0.75821719781E+02  0.75821719781E+02  0.00000000000E+00 0.  1.
         25    1    1    2    0    0 -0.11729386390E+03 -0.16227365092E+03  0.77378419532E+03  0.80898551854E+03  0.12500000000E+03 0.  0.
         21    1    1    2  503  504  0.68773164704E+02  0.12712772864E+03  0.98935434454E+02  0.17515543886E+03  0.00000000000E+00 0.  1.
         21    1    1    2  504  501  0.48520699191E+02  0.35145922278E+02  0.24509849437E+02  0.64731961366E+02  0.00000000000E+00 0.  1.
<mgrwt>
<rscale>  4 0.23604150E+03</rscale>
<asrwt>0</asrwt>
<pdfrwt beam="1">  1       21 0.14970018E+00 0.23604150E+03</pdfrwt>
<pdfrwt beam="2">  1       21 0.11664881E-01 0.23604150E+03</pdfrwt>
<totfact> 0.18038558E+04</totfact>
</mgrwt>
</event>
<event>
 5    0  0.1856407E+000  0.2343967E+03  0.7546771E-02  0.1123583E+00
         21   -1    0    0  502  501  0.00000000000E+00  0.00000000000E+00  0.21504216069E+04  0.21504216069E+04  0.00000000000E+00 0. -1.
         21   -1    0    0  503  502 -0.00000000000E+00 -0.00000000000E+00 -0.10764237257E+03  0.10764237257E+03  0.00000000000E+00 0.  1.
         25    1    1    2    0    0  0.94709514492E+02 -0.17701652576E+03  0.20270515445E+04  0.20408007513E+04  0.12500000000E+03 0.  0.
         21    1    1    2  503  504 -0.66583329819E+02  0.15154881858E+03 -0.17987390662E+02  0.16650504631E+03  0.00000000000E+00 0.  1.
         21    1    1    2  504  501 -0.28126184674E+02  0.25467707174E+02  0.33715080563E+02  0.50758181906E+02  0.00000000000E+00 0. -1.
<mgrwt>
<rscale>  4 0.23439673E+03</rscale>
<asrwt>0</asrwt>
<pdfrwt beam="1">  1       21 0.33083406E+00 0.23439673E+03</pdfrwt>
<pdfrwt beam="2">  1       21 0.16560367E-01 0.23439673E+03</pdfrwt>
<totfact> 0.70100833E+02</totfact>
</mgrwt>
</event>
<event>
 5    0  0.1856407E+000  0.3078238E+03  0.7546771E-02  0.1081394E+00
         21   -1    0    0  502  501  0.00000000000E+00  0.00000000000E+00  0.79595347995E+03  0.79595347995E+03  0.00000000000E+00 0. -1.
         21   -1    0    0  503  502 -0.00000000000E+00 -0.00000000000E+00 -0.32125213362E+03  0.32125213362E+03  0.00000000000E+00 0. -1.
         25    1    1    2    0    0 -0.26086405434E+03  0.11124512928E+03  0.68389874968E+03  0.75084487976E+03  0.12500000000E+03 0.  0.
         21    1    1    2  503  504  0.69912056766E+01 -0.32629639723E+02 -0.36277052771E+02  0.49290921101E+02  0.00000000000E+00 0. -1.
         21    1    1    2  504  501  0.25387284867E+03 -0.78615489560E+02 -0.17292035058E+03  0.31706981271E+03  0.00000000000E+00 0. -1.
<mgrwt>
<rscale>  4 0.30782385E+03</rscale>
<asrwt>0</asrwt>
<pdfrwt beam="1">  1       21 0.12245438E+00 0.30782385E+03</pdfrwt>
<pdfrwt beam="2">  1       21 0.49423405E-01 0.30782385E+03</pdfrwt>
<totfact> 0.17988284E+03</totfact>
</mgrwt>
</event>
<event>
 5    0  0.3751376E+000  0.2528592E+03  0.7546771E-02  0.1111511E+00
         21   -1    0    0  502  501  0.00000000000E+00  0.00000000000E+00  0.13858504494E+03  0.13858504494E+03  0.00000000000E+00 0.  1.
         21   -1    0    0  503  502 -0.00000000000E+00 -0.00000000000E+00 -0.51136347426E+03  0.51136347426E+03  0.00000000000E+00 0.  1.
         25    1    1    2    0    0 -0.22467151242E+03  0.80420104125E+02 -0.21181038030E+03  0.34268545175E+03  0.12500000000E+03 0.  0.
         21    1    1    2  503  504  0.22062115995E+02 -0.27747839543E+02 -0.71094634518E+02  0.79442599522E+02  0.00000000000E+00 0.  1.
         21    1    1    2  504  501  0.20260939642E+03 -0.52672264582E+02 -0.89873414498E+02  0.22782046793E+03  0.00000000000E+00 0.  1.
<mgrwt>
<rscale>  4 0.25285920E+03</rscale>
<asrwt>0</asrwt>
<pdfrwt beam="1">  1       21 0.21320776E-01 0.25285920E+03</pdfrwt>
<pdfrwt beam="2">  1       21 0.78671304E-01 0.25285920E+03</pdfrwt>
<totfact> 0.28360492E+04</totfact>
</mgrwt>
</event>
<event>
 5    0  0.1856407E+000  0.3334081E+03  0.7546771E-02  0.1069639E+00
         21   -1    0    0  502  501  0.00000000000E+00  0.00000000000E+00  0.81750123223E+03  0.81750123223E+03  0.00000000000E+00 0. -1.
         21   -1    0    0  503  502 -0.00000000000E+00 -0.00000000000E+00 -0.63729051055E+03  0.63729051055E+03  0.00000000000E+00 0. -1.
         25    1    1    2    0    0 -0.33385551607E+03 -0.35958883337E+02  0.61751476145E+03  0.71393418989E+03  0.12500000000E+03 0.  0.
         21    1    1    2  503  504  0.20980273245E+03  0.16606249131E+03  0.51348826142E+00  0.26757092748E+03  0.00000000000E+00 0. -1.
         21    1    1    2  504  501  0.12405278361E+03 -0.13010360797E+03 -0.43781752803E+03  0.47328662540E+03  0.00000000000E+00 0. -1.
<mgrwt>
<rscale>  4 0.33340810E+03</rscale>
<asrwt>0</asrwt>
<pdfrwt beam="1">  1       21 0.12576942E+00 0.33340810E+03</pdfrwt>
<pdfrwt beam="2">  1       21 0.98044694E-01 0.33340810E+03</pdfrwt>
<totfact> 0.35718209E+02</totfact>
</mgrwt>
</event>
<event>
 5    0  0.5196820E+000  0.3244578E+03  0.7546771E-02  0.1073616E+00
         21   -1    0    0  502  501  0.00000000000E+00  0.00000000000E+00  0.73421310374E+02  0.73421310374E+02  0.00000000000E+00 0.  1.
         21   -1    0    0  503  502 -0.00000000000E+00 -0.00000000000E+00 -0.17229048184E+04  0.17229048184E+04  0.00000000000E+00 0.  1.
         25    1    1    2    0    0 -0.28932323942E+03 -0.13887937596E+03 -0.92576719608E+03  0.98775772296E+03  0.12500000000E+03 0.  0.
         21    1    1    2  503  504  0.24878346751E+03  0.13056000679E+03 -0.71219283658E+03  0.76560940796E+03  0.00000000000E+00 0.  1.
         21    1    1    2  504  501  0.40539771906E+02  0.83193691730E+01 -0.11523475331E+02  0.42958997816E+02  0.00000000000E+00 0. -1.
<mgrwt>
<rscale>  4 0.32445779E+03</rscale>
<asrwt>0</asrwt>
<pdfrwt beam="1">  1       21 0.11295588E-01 0.32445779E+03</pdfrwt>
<pdfrwt beam="2">  1       21 0.26506225E+00 0.32445779E+03</pdfrwt>
<totfact> 0.31702207E+03</totfact>
</mgrwt>
</event>
<event>
 5    0  0.1856407E+000  0.3412009E+03  0.7546771E-02  0.1066286E+00
         21   -1    0    0  502  501  0.00000000000E+00  0.00000000000E+00  0.22735940425E+03  0.22735940425E+03  0.00000000000E+00 0.  1.
         21   -1    0    0  503  502 -0.00000000000E+00 -0.00000000000E+00 -0.70326983009E+03  0.70326983009E+03  0.00000000000E+00 0. -1.
         25    1    1    2    0    0 -0.29047691617E+03 -0.12812579829E+03  0.15706162241E+02  0.34156220890E+03  0.12500000000E+03 0.  0.
         21    1    1    2  503  504  0.26565367523E+03  0.12113129968E+03 -0.40900458349E+03  0.50252305046E+03  0.00000000000E+00 0. -1.
         21    1    1    2  504  501  0.24823240941E+02  0.69944986140E+01 -0.82612004591E+02  0.86543974974E+02  0.00000000000E+00 0. -1.
<mgrwt>
<rscale>  4 0.34120091E+03</rscale>
<asrwt>0</asrwt>
<pdfrwt beam="1">  1       21 0.34978370E-01 0.34120091E+03</pdfrwt>
<pdfrwt beam="2">  1       21 0.10819536E+00 0.34120091E+03</pdfrwt>
<totfact> 0.48965580E+03</totfact>
</mgrwt>
</event>
<event>
 5    0  0.1856407E+000  0.3749882E+03  0.7546771E-02  0.1052802E+00
         21   -1    0    0  502  501  0.00000000000E+00  0.00000000000E+00  0.85686670629E+02  0.85686670629E+02  0.00000000000E+00 0.  1.
         21   -1    0    0  503  502 -0.00000000000E+00 -0.00000000000E+00 -0.19086591509E+04  0.19086591509E+04  0.00000000000E+00 0.  1.
         25    1    1    2    0    0  0.35019531396E+03 -0.11901451851E+03 -0.63999980991E+03  0.74968391354E+03  0.12500000000E+03 0.  0.
         21    1    1    2  503  504 -0.15461402202E+02  0.31080938606E+02 -0.57382121508E+02  0.67065546828E+02  0.00000000000E+00 0. -1.
         21    1    1    2  504  501 -0.33473391176E+03  0.87933579901E+02 -0.11255905489E+04  0.11775963612E+04  0.00000000000E+00 0.  1.
<mgrwt>
<rscale>  4 0.37498820E+03</rscale>
<asrwt>0</asrwt>
<pdfrwt beam="1">  1       21 0.13182565E-01 0.37498820E+03</pdfrwt>
<pdfrwt beam="2">  1       21 0.29363986E+00 0.37498820E+03</pdfrwt>
<totfact> 0.15663706E+03</totfact>
</mgrwt>
</event>
<event>
 5    0  0.1856407E+000  0.3131776E+03  0.7546771E-02  0.1078833E+00
         21   -1    0    0  502  501  0.00000000000E+00  0.00000000000E+00  0.17498416074E+04  0.17498416074E+04  0.00000000000E+00 0. -1.
         21   -1    0    0  503  502 -0.00000000000E+00 -0.00000000000E+00 -0.15324733689E+03  0.15324733689E+03  0.00000000000E+00 0.  1.
         25    1    1    2    0    0  0.14554393777E+03 -0.24753217977E+03  0.15604502470E+04  0.15915668981E+04  0.12500000000E+03 0.  0.
         21    1    1    2  503  504 -0.55087198694E+02  0.12075649163E+03 -0.39366647633E+02  0.13844299432E+03  0.00000000000E+00 0.  1.
         21    1    1    2  504  501 -0.90456739081E+02  0.12677568814E+03  0.75510671227E+02  0.17307905193E+03  0.00000000000E+00 0. -1.
<mgrwt>
<rscale>  4 0.31317761E+03</rscale>
<asrwt>0</asrwt>
<pdfrwt beam="1">  1       21 0.26920639E+00 0.31317761E+03</pdfrwt>
<pdfrwt beam="2">  1       21 0.23576515E-01 0.31317761E+03</pdfrwt>
<totfact> 0.77011562E+02</totfact>
</mgrwt>
</event>
<event>
 5    0  0.1856407E+000  0.2371493E+03  0.7546771E-02  0.1121707E+00
         21   -1    0    0  502  501  0.00000000000E+00  0.00000000000E+00  0.19554213942E+04  0.19554213942E+04  0.00000000000E+00 0. -1.
         21   -1    0    0  503  502 -0.00000000000E+00 -0.00000000000E+00 -0.29085395421E+02  0.29085395421E+02  0.00000000000E+00 0. -1.
         25    1    1    2    0    0 -0.10528268829E+03 -0.17184391763E+03  0.13380369740E+04  0.13588902532E+04  0.12500000000E+03 0.  0.
         21    1    1    2  503  504  0.74002159397E+02  0.86199728459E+02  0.23921793084E+03  0.26482434030E+03  0.00000000000E+00 0. -1.
         21    1    1    2  504  501  0.31280528891E+02  0.85644189168E+02  0.34908109395E+03  0.36079219612E+03  0.00000000000E+00 0. -1.
<mgrwt>
<rscale>  4 0.23714927E+03</rscale>
<asrwt>0</asrwt>
<pdfrwt beam="1">  1       21 0.30083396E+00 0.23714927E+03</pdfrwt>
<pdfrwt beam="2">  1       21 0.44746777E-02 0.23714927E+03</pdfrwt>
<totfact> 0.10487258E+04</totfact>
</mgrwt>
</event>
<event>
 5    0  0.2037101E+000  0.2622475E+03  0.7546771E-02  0.1105800E+00
         21   -1    0    0  502  501  0.00000000000E+00  0.00000000000E+00  0.16634776144E+04  0.16634776144E+04  0.00000000000E+00 0.  1.
         21   -1    0    0  503  502 -0.00000000000E+00 -0.00000000000E+00 -0.36859858295E+02  0.36859858295E+02  0.00000000000E+00 0.  1.
         25    1    1    2    0    0  0.57365462987E+02 -0.22328896402E+03  0.88576472312E+03  0.92377102278E+03  0.12500000000E+03 0.  0.
         21    1    1    2  503  504 -0.18796475650E+01  0.20278459714E+02  0.99607631424E+02  0.10166823123E+03  0.00000000000E+00 0.  1.
         21    1    1    2  504  501 -0.55485815422E+02  0.20301050430E+03  0.64124540159E+03  0.67489821872E+03  0.00000000000E+00 0.  1.
<mgrwt>
<rscale>  4 0.26224751E+03</rscale>
<asrwt>0</asrwt>
<pdfrwt beam="1">  1       21 0.25591957E+00 0.26224751E+03</pdfrwt>
<pdfrwt beam="2">  1       21 0.56707487E-02 0.26224751E+03</pdfrwt>
<totfact> 0.12591825E+04</totfact>
</mgrwt>
</event>
<event>
 5    0  0.1856407E+000  0.5002784E+03  0.7546771E-02  0.1013706E+00
         21   -1    0    0  502  501  0.00000000000E+00  0.00000000000E+00  0.46323489402E+03  0.46323489402E+03  0.00000000000E+00 0. -1.
         21   -1    0    0  503  502 -0.00000000000E+00 -0.00000000000E+00 -0.60007697007E+03  0.60007697007E+03  0.00000000000E+00 0. -1.
         25    1    1    2    0    0 -0.47671078172E+03 -0.82352916613E+02  0.78794962349E+02  0.50583477379E+03  0.12500000000E+03 0.  0.
         21    1    1    2  503  504 -0.59790892694E+01  0.26171319393E+02 -0.20648354912E+02  0.33868008914E+02  0.00000000000E+00 0.  1.
         21    1    1    2  504  501  0.48268987099E+03  0.56181597220E+02 -0.19498868348E+03  0.52360908139E+03  0.00000000000E+00 0. -1.
<mgrwt>
<rscale>  4 0.50027837E+03</rscale>
<asrwt>0</asrwt>
<pdfrwt beam="1">  1       21 0.71266907E-01 0.50027837E+03</pdfrwt>
<pdfrwt beam="2">  1       21 0.92319533E-01 0.50027837E+03</pdfrwt>
<totfact> 0.14853802E+03</totfact>
</mgrwt>
</event>
<event>
 5    0  0.1896698E+000  0.2333260E+03  0.7546771E-02  0.1124320E+00
         21   -1    0    0  502  501  0.00000000000E+00  0.00000000000E+00  0.26954774102E+03  0.26954774102E+03  0.00000000000E+00 0.  1.
         21   -1    0    0  503  502 -0.00000000000E+00 -0.00000000000E+00 -0.27894719699E+03  0.27894719699E+03  0.00000000000E+00 0.  1.
         25    1    1    2    0    0  0.12249340246E+03 -0.19373969074E+03  0.45638159427E+02  0.26504253057E+03  0.12500000000E+03 0.  0.
         21    1    1    2  503  504 -0.42486270870E+02  0.18235267126E+03 -0.72483973644E+02  0.20077725559E+03  0.00000000000E+00 0.  1.
         21    1    1    2  504  501 -0.80007131594E+02  0.11387019481E+02  0.17446358242E+02  0.82675151856E+02  0.00000000000E+00 0.  1.
<mgrwt>
<rscale>  4 0.23332596E+03</rscale>
<asrwt>0</asrwt>
<pdfrwt beam="1">  1       21 0.41468883E-01 0.23332596E+03</pdfrwt>
<pdfrwt beam="2">  1       21 0.42914953E-01 0.23332596E+03</pdfrwt>
<totfact> 0.28621545E+04</totfact>
</mgrwt>
</event>
