<event>
 5    0  0.2917107E+000  0.2858070E+03  0.7546771E-02  0.1092559E+00
          2   -1    0    0  502    0  0.00000000000E+00  0.00000000000E+00  0.25379164354E+03  0.25379164354E+03  0.00000000000E+00 0.  1.
          2   -1    0    0  501    0 -0.00000000000E+00 -0.00000000000E+00 -0.24379078576E+04  0.24379078576E+04  0.00000000000E+00 0. -1.
         25    1    1    2    0    0  0.18570755397E+03 -0.24798717240E+03 -0.50118267219E+03  0.60232383663E+03  0.12500000000E+03 0.  0.
          2    1    1    2  501    0 -0.12903216373E+03  0.21393875162E+03  0.12560088100E+03  0.27963309895E+03  0.00000000000E+00 0.  1.
          2    1    1    2  502    0 -0.56675390236E+02  0.34048420783E+02 -0.18085344229E+04  0.18097425656E+04  0.00000000000E+00 0. -1.
<mgrwt>
<rscale>  4 0.28580695E+03</rscale>
<asrwt>0</asrwt>
<pdfrwt beam="1">  1        2 0.39044870E-01 0.28580695E+03</pdfrwt>
<pdfrwt beam="2">  1        2 0.37506273E+00 0.28580695E+03</pdfrwt>
<totfact> 0.87940039E+01</totfact>
</mgrwt>
</event>
<event>
 5    0  0.2917107E+000  0.4222646E+03  0.7546771E-02  0.1036332E+00
          1   -1    0    0  502    0  0.00000000000E+00  0.00000000000E+00  0.59364880296E+03  0.59364880296E+03  0.00000000000E+00 0.  1.
          1   -1    0    0  501    0 -0.00000000000E+00 -0.00000000000E+00 -0.96008978762E+03  0.96008978762E+03  0.00000000000E+00 0. -1.
         25    1    1    2    0    0  0.45092345189E+03  0.14887680348E+03 -0.21984366094E+02  0.49153288235E+03  0.12500000000E+03 0.  0.
          1    1    1    2  501    0 -0.36759440491E+03 -0.79919654774E+02  0.25409685653E+03  0.45395815913E+03  0.00000000000E+00 0.  1.
          1    1    1    2  502    0 -0.83329046983E+02 -0.68957148704E+02 -0.59855347511E+03  0.60824754910E+03  0.00000000000E+00 0. -1.
<mgrwt>
<rscale>  4 0.42226464E+03</rscale>
<asrwt>0</asrwt>
<pdfrwt beam="1">  1        1 0.91330586E-01 0.42226464E+03</pdfrwt>
<pdfrwt beam="2">  1        1 0.14770612E+00 0.42226464E+03</pdfrwt>
<totfact> 0.71170231E+01</totfact>
</mgrwt>
</event>
<event>
 5    0  0.2917107E+000  0.2426671E+03  0.7546771E-02  0.1118029E+00
          2   -1    0    0  502    0  0.00000000000E+00  0.00000000000E+00  0.13634859877E+04  0.13634859877E+04  0.00000000000E+00 0.  1.
          2   -1    0    0  501    0 -0.00000000000E+00 -0.00000000000E+00 -0.64797061762E+03  0.64797061762E+03  0.00000000000E+00 0.  1.
         25    1    1    2    0    0  0.19445248409E+03 -0.12988719511E+03  0.40977589797E+03  0.48808169253E+03  0.12500000000E+03 0.  0.
          2    1    1    2  501    0 -0.32106929858E+02  0.11785806113E+02 -0.59730526739E+03  0.59828366401E+03  0.00000000000E+00 0.  1.
          2    1    1    2  502    0 -0.16234555423E+03  0.11810138900E+03  0.90304473952E+03  0.92509124882E+03  0.00000000000E+00 0.  1.
<mgrwt>
<rscale>  4 0.24266706E+03</rscale>
<asrwt>0</asrwt>
<pdfrwt beam="1">  1        2 0.20976707E+00 0.24266706E+03</pdfrwt>
<pdfrwt beam="2">  1        2 0.99687788E-01 0.24266706E+03</pdfrwt>
<totfact> 0.11778137E+02</totfact>
</mgrwt>
</event>
<event>
 5    0  0.2917107E+000  0.2657522E+03  0.7546771E-02  0.1103736E+00
          2   -1    0    0  501    0  0.00000000000E+00  0.00000000000E+00  0.16999815052E+04  0.16999815052E+04  0.00000000000E+00 0.  1.
         -3   -1    0    0    0  501 -0.00000000000E+00 -0.00000000000E+00 -0.13935953639E+03  0.13935953639E+03  0.00000000000E+00 0. -1.
         25    1    1    2    0    0  0.31118034321E+02  0.20531619386E+03  0.43367044802E+03  0.49680793976E+03  0.12500000000E+03 0.  0.
          2    1    1    2  502    0  0.48889040911E+01  0.34401746000E+02  0.10978337285E+04  0.10983834835E+04  0.00000000000E+00 0.  1.
         -3    1    1    2    0  502 -0.36006938412E+02 -0.23971793986E+03  0.29117792358E+02  0.24414961834E+03  0.00000000000E+00 0. -1.
<mgrwt>
<rscale>  4 0.26575223E+03</rscale>
<asrwt>0</asrwt>
<pdfrwt beam="1">  1        2 0.26153560E+00 0.26575223E+03</pdfrwt>
<pdfrwt beam="2">  1       -3 0.21439930E-01 0.26575223E+03</pdfrwt>
<totfact> 0.13385741E+02</totfact>
</mgrwt>
</event>
<event>
 5    0  0.2917107E+000  0.1999426E+03  0.7546771E-02  0.1149787E+00
          1   -1    0    0  501    0 -0.00000000000E+00  0.00000000000E+00  0.30683648326E+03  0.30683648326E+03  0.00000000000E+00 0. -1.
          2   -1    0    0  502    0  0.00000000000E+00 -0.00000000000E+00 -0.38017282570E+04  0.38017282570E+04  0.00000000000E+00 0. -1.
         25    1    1    2    0    0 -0.15620388283E+03 -0.16193759872E+03 -0.18388492326E+04  0.18567754143E+04  0.12500000000E+03 0.  0.
          2    1    1    2  501    0  0.47838397054E+02  0.50702106530E+02 -0.19330044146E+04  0.19342609138E+04  0.00000000000E+00 0. -1.
          1    1    1    2  502    0  0.10836548577E+03  0.11123549219E+03  0.27696187342E+03  0.31752841220E+03  0.00000000000E+00 0. -1.
<mgrwt>
<rscale>  4 0.19994257E+03</rscale>
<asrwt>0</asrwt>
<pdfrwt beam="1">  1        2 0.58488130E+00 0.19994257E+03</pdfrwt>
<pdfrwt beam="2">  1        1 0.47205611E-01 0.19994257E+03</pdfrwt>
<totfact> 0.77591523E+00</totfact>
</mgrwt>
</event>
<event>
 5    0  0.2917107E+000  0.2651699E+03  0.7546771E-02  0.1104076E+00
          1   -1    0    0  502    0  0.00000000000E+00  0.00000000000E+00  0.19428905206E+04  0.19428905206E+04  0.00000000000E+00 0. -1.
          1   -1    0    0  501    0 -0.00000000000E+00 -0.00000000000E+00 -0.75901784852E+02  0.75901784852E+02  0.00000000000E+00 0. -1.
         25    1    1    2    0    0  0.20353633945E+03  0.15455637541E+03  0.89929318387E+03  0.94322210810E+03  0.12500000000E+03 0.  0.
          1    1    1    2  501    0 -0.18948751185E+03 -0.11610140529E+03  0.99938703460E+03  0.10237966099E+04  0.00000000000E+00 0. -1.
          1    1    1    2  502    0 -0.14048827605E+02 -0.38454970123E+02 -0.31691482717E+02  0.51773587484E+02  0.00000000000E+00 0. -1.
<mgrwt>
<rscale>  4 0.26516987E+03</rscale>
<asrwt>0</asrwt>
<pdfrwt beam="1">  1        1 0.29890620E+00 0.26516987E+03</pdfrwt>
<pdfrwt beam="2">  1        1 0.11677199E-01 0.26516987E+03</pdfrwt>
<totfact> 0.22831191E+02</totfact>
</mgrwt>
</event>
<event>
 5    0  0.2917107E+000  0.1956391E+03  0.7546771E-02  0.1153471E+00
         -4   -1    0    0    0  501 -0.00000000000E+00  0.00000000000E+00  0.68953851055E+03  0.68953851055E+03  0.00000000000E+00 0.  1.
          1   -1    0    0  501    0  0.00000000000E+00 -0.00000000000E+00 -0.11121701237E+04  0.11121701237E+04  0.00000000000E+00 0. -1.
         25    1    1    2    0    0 -0.24733203957E+03 -0.99360329392E+02  0.85237450833E+02  0.30648986261E+03  0.12500000000E+03 0.  0.
          1    1    1    2  502    0  0.12931504390E+03  0.70560197391E+02 -0.98852900116E+03  0.99944520018E+03  0.00000000000E+00 0. -1.
         -4    1    1    2    0  502  0.11801699568E+03  0.28800132001E+02  0.48065993722E+03  0.49577357142E+03  0.00000000000E+00 0.  1.
<mgrwt>
<rscale>  4 0.19563913E+03</rscale>
<asrwt>0</asrwt>
<pdfrwt beam="1">  1        1 0.17110309E+00 0.19563913E+03</pdfrwt>
<pdfrwt beam="2">  1       -4 0.10608285E+00 0.19563913E+03</pdfrwt>
<totfact> 0.46601832E+00</totfact>
</mgrwt>
</event>
<event>
 5    0  0.2917107E+000  0.2777319E+03  0.7546771E-02  0.1096934E+00
          2   -1    0    0  502    0  0.00000000000E+00  0.00000000000E+00  0.10423650612E+04  0.10423650612E+04  0.00000000000E+00 0.  1.
          2   -1    0    0  501    0 -0.00000000000E+00 -0.00000000000E+00 -0.76066834393E+03  0.76066834393E+03  0.00000000000E+00 0.  1.
         25    1    1    2    0    0 -0.21350965552E+03  0.16297457685E+03 -0.20245382206E+03  0.35883092922E+03  0.12500000000E+03 0.  0.
          2    1    1    2  501    0  0.19271795540E+03 -0.14321832154E+03 -0.44976673925E+03  0.50984489572E+03  0.00000000000E+00 0.  1.
          2    1    1    2  502    0  0.20791700117E+02 -0.19756255313E+02  0.93391727860E+03  0.93435758020E+03  0.00000000000E+00 0.  1.
<mgrwt>
<rscale>  4 0.27773191E+03</rscale>
<asrwt>0</asrwt>
<pdfrwt beam="1">  1        2 0.16036386E+00 0.27773191E+03</pdfrwt>
<pdfrwt beam="2">  1        2 0.11702590E+00 0.27773191E+03</pdfrwt>
<totfact> 0.14592323E+02</totfact>
</mgrwt>
</event>
<event>
 5    0  0.2917107E+000  0.2208584E+03  0.7546771E-02  0.1133245E+00
          2   -1    0    0  501    0  0.00000000000E+00  0.00000000000E+00  0.11106413050E+04  0.11106413050E+04  0.00000000000E+00 0. -1.
         -1   -1    0    0    0  501 -0.00000000000E+00 -0.00000000000E+00 -0.45867975576E+03  0.45867975576E+03  0.00000000000E+00 0.  1.
         25    1    1    2    0    0  0.20523088817E+03  0.45294573060E+02 -0.39861337081E+03  0.46764188777E+03  0.12500000000E+03 0.  0.
          2    1    1    2  502    0 -0.18012224451E+03 -0.23053461843E+02  0.10525295877E+04  0.10680795935E+04  0.00000000000E+00 0. -1.
         -1    1    1    2    0  502 -0.25108643657E+02 -0.22241111217E+02 -0.19546676760E+01  0.33599579464E+02  0.00000000000E+00 0.  1.
<mgrwt>
<rscale>  4 0.22085838E+03</rscale>
<asrwt>0</asrwt>
<pdfrwt beam="1">  1        2 0.17086789E+00 0.22085838E+03</pdfrwt>
<pdfrwt beam="2">  1       -1 0.70566117E-01 0.22085838E+03</pdfrwt>
<totfact> 0.55829337E+01</totfact>
</mgrwt>
</event>
<event>
 5    0  0.2917107E+000  0.4160008E+03  0.7546771E-02  0.1038376E+00
          2   -1    0    0  502    0  0.00000000000E+00  0.00000000000E+00  0.11298666805E+04  0.11298666805E+04  0.00000000000E+00 0. -1.
          2   -1    0    0  501    0 -0.00000000000E+00 -0.00000000000E+00 -0.40612902750E+03  0.40612902750E+03  0.00000000000E+00 0. -1.
         25    1    1    2    0    0 -0.15050425194E+03 -0.37947421517E+03  0.58066739048E+03  0.72073006612E+03  0.12500000000E+03 0.  0.
          2    1    1    2  501    0  0.15973761901E+03  0.36102057177E+03 -0.21977578584E+03  0.45183332791E+03  0.00000000000E+00 0. -1.
          2    1    1    2  502    0 -0.92333670634E+01  0.18453643399E+02  0.36284604839E+03  0.36343231400E+03  0.00000000000E+00 0. -1.
<mgrwt>
<rscale>  4 0.41600081E+03</rscale>
<asrwt>0</asrwt>
<pdfrwt beam="1">  1        2 0.17382564E+00 0.41600081E+03</pdfrwt>
<pdfrwt beam="2">  1        2 0.62481389E-01 0.41600081E+03</pdfrwt>
<totfact> 0.26102134E+02</totfact>
</mgrwt>
</event>
<event>
 5    0  0.2917107E+000  0.2772966E+03  0.7546771E-02  0.1097175E+00
          1   -1    0    0  501    0 -0.00000000000E+00  0.00000000000E+00  0.40448267670E+03  0.40448267670E+03  0.00000000000E+00 0.  1.
          2   -1    0    0  502    0  0.00000000000E+00 -0.00000000000E+00 -0.86145199165E+03  0.86145199165E+03  0.00000000000E+00 0.  1.
         25    1    1    2    0    0  0.18072557724E+03  0.90292116679E+02  0.29360497607E+02  0.23937719069E+03  0.12500000000E+03 0.  0.
          2    1    1    2  501    0 -0.20974937841E+03 -0.14526207815E+03 -0.73093114485E+03  0.77418099409E+03  0.00000000000E+00 0.  1.
          1    1    1    2  502    0  0.29023801171E+02  0.54969961472E+02  0.24460133230E+03  0.25237648358E+03  0.00000000000E+00 0.  1.
<mgrwt>
<rscale>  4 0.27729660E+03</rscale>
<asrwt>0</asrwt>
<pdfrwt beam="1">  1        2 0.13253107E+00 0.27729660E+03</pdfrwt>
<pdfrwt beam="2">  1        1 0.62228105E-01 0.27729660E+03</pdfrwt>
<totfact> 0.26278364E+02</totfact>
</mgrwt>
</event>
<event>
 5    0  0.2917107E+000  0.2429158E+03  0.7546771E-02  0.1117865E+00
          2   -1    0    0  502    0  0.00000000000E+00  0.00000000000E+00  0.10351059837E+04  0.10351059837E+04  0.00000000000E+00 0. -1.
          3   -1    0    0  501    0 -0.00000000000E+00 -0.00000000000E+00 -0.23682286723E+03  0.23682286723E+03  0.00000000000E+00 0. -1.
         25    1    1    2    0    0 -0.34247699602E+02 -0.23862182729E+03  0.32168379796E+03  0.42097357073E+03  0.12500000000E+03 0.  0.
          2    1    1    2  501    0  0.80370130870E+01  0.19853254161E+03  0.64550297360E+03  0.67539162904E+03  0.00000000000E+00 0. -1.
          3    1    1    2  502    0  0.26210686515E+02  0.40089285681E+02 -0.16890365507E+03  0.17556365117E+03  0.00000000000E+00 0. -1.
<mgrwt>
<rscale>  4 0.24291583E+03</rscale>
<asrwt>0</asrwt>
<pdfrwt beam="1">  1        2 0.15924707E+00 0.24291583E+03</pdfrwt>
<pdfrwt beam="2">  1        3 0.36434288E-01 0.24291583E+03</pdfrwt>
<totfact> 0.11657029E+02</totfact>
</mgrwt>
</event>
<event>
 5    0  0.2917107E+000  0.2473381E+03  0.7546771E-02  0.1114999E+00
          1   -1    0    0  502    0  0.00000000000E+00  0.00000000000E+00  0.82999643934E+02  0.82999643934E+02  0.00000000000E+00 0. -1.
          1   -1    0    0  501    0 -0.00000000000E+00 -0.00000000000E+00 -0.10837566635E+04  0.10837566635E+04  0.00000000000E+00 0. -1.
         25    1    1    2    0    0  0.19421000147E+03 -0.11164543384E+03 -0.31203852262E+03  0.40394958493E+03  0.12500000000E+03 0.  0.
          1    1    1    2  501    0 -0.16727768566E+03  0.12749673066E+03 -0.69896089538E+03  0.72992025161E+03  0.00000000000E+00 0. -1.
          1    1    1    2  502    0 -0.26932315805E+02 -0.15851296824E+02  0.10242398389E+02  0.32886470932E+02  0.00000000000E+00 0. -1.
<mgrwt>
<rscale>  4 0.24733805E+03</rscale>
<asrwt>0</asrwt>
<pdfrwt beam="1">  1        1 0.12769176E-01 0.24733805E+03</pdfrwt>
<pdfrwt beam="2">  1        1 0.16673179E+00 0.24733805E+03</pdfrwt>
<totfact> 0.76489581E+02</totfact>
</mgrwt>
</event>
<event>
 5    0  0.2917107E+000  0.2192975E+03  0.7546771E-02  0.1134408E+00
         -2   -1    0    0    0  501 -0.00000000000E+00  0.00000000000E+00  0.33630562623E+03  0.33630562623E+03  0.00000000000E+00 0.  1.
          2   -1    0    0  502    0  0.00000000000E+00 -0.00000000000E+00 -0.27069897313E+04  0.27069897313E+04  0.00000000000E+00 0.  1.
         25    1    1    2    0    0 -0.19067282047E+03  0.17680040513E+03 -0.82394651979E+03  0.87299906941E+03  0.12500000000E+03 0.  0.
          2    1    1    2  502    0  0.99092677244E+02 -0.13607661474E+03 -0.18465334756E+04  0.18541904110E+04  0.00000000000E+00 0.  1.
         -2    1    1    2    0  501  0.91580143225E+02 -0.40723790393E+02  0.29979589028E+03  0.31610587715E+03  0.00000000000E+00 0.  1.
<mgrwt>
<rscale>  4 0.21929747E+03</rscale>
<asrwt>0</asrwt>
<pdfrwt beam="1">  1        2 0.41645994E+00 0.21929747E+03</pdfrwt>
<pdfrwt beam="2">  1       -2 0.51739329E-01 0.21929747E+03</pdfrwt>
<totfact> 0.11537351E+01</totfact>
</mgrwt>
</event>
<event>
 5    0  0.2917107E+000  0.2594833E+03  0.7546771E-02  0.1107454E+00
          1   -1    0    0  501    0 -0.00000000000E+00  0.00000000000E+00  0.12658492951E+04  0.12658492951E+04  0.00000000000E+00 0. -1.
          2   -1    0    0  502    0  0.00000000000E+00 -0.00000000000E+00 -0.10050768650E+03  0.10050768650E+03  0.00000000000E+00 0. -1.
         25    1    1    2    0    0  0.21767129059E+03 -0.44072428039E+02  0.15207541627E+03  0.29677449671E+03  0.12500000000E+03 0.  0.
          2    1    1    2  501    0 -0.21980395840E+03  0.12068875732E+03  0.61767877943E+03  0.66663830585E+03  0.00000000000E+00 0. -1.
          1    1    1    2  502    0  0.21326678049E+01 -0.76616329279E+02  0.39558741289E+03  0.40294417904E+03  0.00000000000E+00 0. -1.
<mgrwt>
<rscale>  4 0.25948328E+03</rscale>
<asrwt>0</asrwt>
<pdfrwt beam="1">  1        2 0.15462722E-01 0.25948328E+03</pdfrwt>
<pdfrwt beam="2">  1        1 0.19474603E+00 0.25948328E+03</pdfrwt>
<totfact> 0.52713992E+02</totfact>
</mgrwt>
</event>
<event>
 5    0  0.2917107E+000  0.4171480E+03  0.7546771E-02  0.1037999E+00
          1   -1    0    0  501    0 -0.00000000000E+00  0.00000000000E+00  0.22599153868E+04  0.22599153868E+04  0.00000000000E+00 0.  1.
          2   -1    0    0  502    0  0.00000000000E+00 -0.00000000000E+00 -0.23880969162E+04  0.23880969162E+04  0.00000000000E+00 0.  1.
         25    1    1    2    0    0  0.81997563653E+02  0.38798232155E+03 -0.22211526479E+04  0.22597340480E+04  0.12500000000E+03 0.  0.
          2    1    1    2  501    0 -0.22092089923E+02  0.54789613693E+01 -0.12897549065E+03  0.13096853303E+03  0.00000000000E+00 0.  1.
          1    1    1    2  502    0 -0.59905473730E+02 -0.39346128292E+03  0.22219466092E+04  0.22573097220E+04  0.00000000000E+00 0.  1.
<mgrwt>
<rscale>  4 0.41714799E+03</rscale>
<asrwt>0</asrwt>
<pdfrwt beam="1">  1        2 0.36739952E+00 0.41714799E+03</pdfrwt>
<pdfrwt beam="2">  1        1 0.34767929E+00 0.41714799E+03</pdfrwt>
<totfact> 0.13178916E+00</totfact>
</mgrwt>
</event>
<event>
 5    0  0.2917107E+000  0.3451178E+03  0.7546771E-02  0.1064637E+00
          1   -1    0    0  501    0 -0.00000000000E+00  0.00000000000E+00  0.14511430899E+03  0.14511430899E+03  0.00000000000E+00 0.  1.
          2   -1    0    0  502    0  0.00000000000E+00 -0.00000000000E+00 -0.30042791263E+04  0.30042791263E+04  0.00000000000E+00 0. -1.
         25    1    1    2    0    0 -0.24728718311E+03  0.12295327889E+03 -0.10100652201E+04  0.10545734723E+04  0.12500000000E+03 0.  0.
          2    1    1    2  501    0  0.36571791374E+03 -0.32083281032E+02 -0.19014988591E+04  0.19366147889E+04  0.00000000000E+00 0. -1.
          1    1    1    2  502    0 -0.11843073063E+03 -0.90869997861E+02  0.52399261851E+02  0.15820517410E+03  0.00000000000E+00 0.  1.
<mgrwt>
<rscale>  4 0.34511781E+03</rscale>
<asrwt>0</asrwt>
<pdfrwt beam="1">  1        2 0.46219680E+00 0.34511781E+03</pdfrwt>
<pdfrwt beam="2">  1        1 0.22325278E-01 0.34511781E+03</pdfrwt>
<totfact> 0.60643383E+01</totfact>
</mgrwt>
</event>
<event>
 5    0  0.2917107E+000  0.3343007E+03  0.7546771E-02  0.1069250E+00
          1   -1    0    0  501    0 -0.00000000000E+00  0.00000000000E+00  0.10706909772E+04  0.10706909772E+04  0.00000000000E+00 0.  1.
          2   -1    0    0  502    0  0.00000000000E+00 -0.00000000000E+00 -0.19708418954E+04  0.19708418954E+04  0.00000000000E+00 0. -1.
         25    1    1    2    0    0 -0.30077886312E+03 -0.14827274444E+03  0.30758438661E+03  0.47189605437E+03  0.12500000000E+03 0.  0.
          2    1    1    2  501    0  0.27477549334E+03  0.14185486504E+03 -0.18757583788E+04  0.19010770290E+04  0.00000000000E+00 0. -1.
          1    1    1    2  502    0  0.26003369781E+02  0.64178794056E+01  0.66802307400E+03  0.66855978926E+03  0.00000000000E+00 0.  1.
<mgrwt>
<rscale>  4 0.33430066E+03</rscale>
<asrwt>0</asrwt>
<pdfrwt beam="1">  1        2 0.30320645E+00 0.33430066E+03</pdfrwt>
<pdfrwt beam="2">  1        1 0.16472169E+00 0.33430066E+03</pdfrwt>
<totfact> 0.14573858E+01</totfact>
</mgrwt>
</event>
<event>
 5    0  0.2917107E+000  0.2699974E+03  0.7546771E-02  0.1101281E+00
          2   -1    0    0  501    0  0.00000000000E+00  0.00000000000E+00  0.30926996922E+03  0.30926996922E+03  0.00000000000E+00 0.  1.
         -4   -1    0    0    0  501 -0.00000000000E+00 -0.00000000000E+00 -0.97151767245E+03  0.97151767245E+03  0.00000000000E+00 0.  1.
         25    1    1    2    0    0  0.29417474583E+03 -0.29522240507E+02 -0.34349384951E+02  0.32282382814E+03  0.12500000000E+03 0.  0.
          2    1    1    2  502    0 -0.20978945822E+03  0.57070980351E+02  0.89485167638E+02  0.23510914232E+03  0.00000000000E+00 0.  1.
         -4    1    1    2    0  502 -0.84385287609E+02 -0.27548739844E+02 -0.71738348592E+03  0.72285467122E+03  0.00000000000E+00 0.  1.
<mgrwt>
<rscale>  4 0.26999745E+03</rscale>
<asrwt>0</asrwt>
<pdfrwt beam="1">  1        2 0.47579997E-01 0.26999745E+03</pdfrwt>
<pdfrwt beam="2">  1       -4 0.14946425E+00 0.26999745E+03</pdfrwt>
<totfact> 0.17672546E+01</totfact>
</mgrwt>
</event>
<event>
 5    0  0.2917107E+000  0.3127543E+03  0.7546771E-02  0.1079033E+00
          2   -1    0    0  501    0  0.00000000000E+00  0.00000000000E+00  0.99236266235E+03  0.99236266235E+03  0.00000000000E+00 0.  1.
         -3   -1    0    0    0  501 -0.00000000000E+00 -0.00000000000E+00 -0.69433916666E+03  0.69433916666E+03  0.00000000000E+00 0.  1.
         25    1    1    2    0    0  0.31235204668E+02  0.27703490422E+03 -0.36400756816E+03  0.47523729425E+03  0.12500000000E+03 0.  0.
          2    1    1    2  502    0 -0.73492739418E+01  0.20288646178E+02  0.85560476855E+03  0.85587683749E+03  0.00000000000E+00 0.  1.
         -3    1    1    2    0  502 -0.23885930727E+02 -0.29732355039E+03 -0.19357370470E+03  0.35558769728E+03  0.00000000000E+00 0.  1.
<mgrwt>
<rscale>  4 0.31275433E+03</rscale>
<asrwt>0</asrwt>
<pdfrwt beam="1">  1        2 0.15267118E+00 0.31275433E+03</pdfrwt>
<pdfrwt beam="2">  1       -3 0.10682141E+00 0.31275433E+03</pdfrwt>
<totfact> 0.12657104E+01</totfact>
</mgrwt>
</event>
<event>
 5    0  0.2917107E+000  0.3425528E+03  0.7546771E-02  0.1065714E+00
          1   -1    0    0  501    0 -0.00000000000E+00  0.00000000000E+00  0.22598086169E+04  0.22598086169E+04  0.00000000000E+00 0. -1.
          2   -1    0    0  502    0  0.00000000000E+00 -0.00000000000E+00 -0.11210093791E+04  0.11210093791E+04  0.00000000000E+00 0.  1.
         25    1    1    2    0    0 -0.13303616565E+02 -0.43478580956E+03  0.42961838041E+03  0.62402935764E+03  0.12500000000E+03 0.  0.
          2    1    1    2  501    0  0.67435041675E+02  0.30661003701E+03 -0.99683850390E+03  0.10451048763E+04  0.00000000000E+00 0.  1.
          1    1    1    2  502    0 -0.54131425110E+02  0.12817577255E+03  0.17060193613E+04  0.17116837620E+04  0.00000000000E+00 0. -1.
<mgrwt>
<rscale>  4 0.34255279E+03</rscale>
<asrwt>0</asrwt>
<pdfrwt beam="1">  1        2 0.17246298E+00 0.34255279E+03</pdfrwt>
<pdfrwt beam="2">  1        1 0.34766286E+00 0.34255279E+03</pdfrwt>
<totfact> 0.67173904E+00</totfact>
</mgrwt>
</event>
<event>
 5    0  0.2917107E+000  0.4521030E+03  0.7546771E-02  0.1027097E+00
          2   -1    0    0  502    0  0.00000000000E+00  0.00000000000E+00  0.77611370305E+03  0.77611370305E+03  0.00000000000E+00 0. -1.
          2   -1    0    0  501    0 -0.00000000000E+00 -0.00000000000E+00 -0.14056308982E+04  0.14056308982E+04  0.00000000000E+00 0.  1.
         25    1    1    2    0    0  0.60453134145E+02  0.32611172760E+03 -0.51457132953E+03  0.62482965157E+03  0.12500000000E+03 0.  0.
          2    1    1    2  501    0  0.33950468636E+03 -0.32427086834E+03  0.58540141301E+03  0.75040645151E+03  0.00000000000E+00 0. -1.
          2    1    1    2  502    0 -0.39995782050E+03 -0.18408592532E+01 -0.70034727867E+03  0.80650849821E+03  0.00000000000E+00 0.  1.
<mgrwt>
<rscale>  4 0.45210296E+03</rscale>
<asrwt>0</asrwt>
<pdfrwt beam="1">  1        2 0.11940211E+00 0.45210296E+03</pdfrwt>
<pdfrwt beam="2">  1        2 0.21625090E+00 0.45210296E+03</pdfrwt>
<totfact> 0.84090996E+01</totfact>
</mgrwt>
</event>
<event>
 5    0  0.2917107E+000  0.1828481E+03  0.7546771E-02  0.1165075E+00
          1   -1    0    0  501    0 -0.00000000000E+00  0.00000000000E+00  0.37171155301E+04  0.37171155301E+04  0.00000000000E+00 0.  1.
          2   -1    0    0  502    0  0.00000000000E+00 -0.00000000000E+00 -0.23377231387E+03  0.23377231387E+03  0.00000000000E+00 0. -1.
         25    1    1    2    0    0  0.79843737164E+02  0.20971937482E+03 -0.41859205109E+02  0.26025839389E+03  0.12500000000E+03 0.  0.
          2    1    1    2  501    0 -0.41008145538E+02 -0.82816688449E+02 -0.55281940844E+02  0.10768641915E+03  0.00000000000E+00 0. -1.
          1    1    1    2  502    0 -0.38835591626E+02 -0.12690268637E+03  0.35804843621E+04  0.35829430309E+04  0.00000000000E+00 0.  1.
<mgrwt>
<rscale>  4 0.18284813E+03</rscale>
<asrwt>0</asrwt>
<pdfrwt beam="1">  1        2 0.35964974E-01 0.18284813E+03</pdfrwt>
<pdfrwt beam="2">  1        1 0.57186388E+00 0.18284813E+03</pdfrwt>
<totfact> 0.44811898E+00</totfact>
</mgrwt>
</event>
<event>
 5    0  0.2917107E+000  0.3691226E+03  0.7546771E-02  0.1055029E+00
         -2   -1    0    0    0  501 -0.00000000000E+00  0.00000000000E+00  0.67890847742E+03  0.67890847742E+03  0.00000000000E+00 0. -1.
          1   -1    0    0  501    0  0.00000000000E+00 -0.00000000000E+00 -0.29241642504E+04  0.29241642504E+04  0.00000000000E+00 0.  1.
         25    1    1    2    0    0  0.47947250604E+03  0.22575551361E+03 -0.51678321115E+03  0.75069922292E+03  0.12500000000E+03 0.  0.
          1    1    1    2  502    0 -0.19167551187E+03 -0.58013072507E+02 -0.22361862591E+04  0.22451356315E+04  0.00000000000E+00 0.  1.
         -2    1    1    2    0  502 -0.28779699417E+03 -0.16774244110E+03  0.50771369732E+03  0.60723787336E+03  0.00000000000E+00 0. -1.
<mgrwt>
<rscale>  4 0.36912259E+03</rscale>
<asrwt>0</asrwt>
<pdfrwt beam="1">  1        1 0.44987142E+00 0.36912259E+03</pdfrwt>
<pdfrwt beam="2">  1       -2 0.10444746E+00 0.36912259E+03</pdfrwt>
<totfact> 0.53656060E-01</totfact>
</mgrwt>
</event>
<event>
 5    0  0.2917107E+000  0.3795835E+03  0.7546771E-02  0.1051088E+00
          2   -1    0    0  502    0  0.00000000000E+00  0.00000000000E+00  0.16999994691E+04  0.16999994691E+04  0.00000000000E+00 0.  1.
          1   -1    0    0  501    0 -0.00000000000E+00 -0.00000000000E+00 -0.37755199016E+03  0.37755199016E+03  0.00000000000E+00 0.  1.
         25    1    1    2    0    0  0.16566643958E+03 -0.37088358572E+03 -0.10136092820E+02  0.42512085780E+03  0.12500000000E+03 0.  0.
          2    1    1    2  501    0 -0.18929876216E+02  0.85191549477E+02  0.13283671944E+04  0.13312307627E+04  0.00000000000E+00 0.  1.
          1    1    1    2  502    0 -0.14673656337E+03  0.28569203624E+03  0.42163773570E+01  0.32119983879E+03  0.00000000000E+00 0.  1.
<mgrwt>
<rscale>  4 0.37958354E+03</rscale>
<asrwt>0</asrwt>
<pdfrwt beam="1">  1        2 0.26153838E+00 0.37958354E+03</pdfrwt>
<pdfrwt beam="2">  1        1 0.58084922E-01 0.37958354E+03</pdfrwt>
<totfact> 0.92613548E+01</totfact>
</mgrwt>
</event>
<event>
 5    0  0.2917107E+000  0.2833525E+03  0.7546771E-02  0.1093872E+00
          2   -1    0    0  502    0  0.00000000000E+00  0.00000000000E+00  0.16944612990E+04  0.16944612990E+04  0.00000000000E+00 0.  1.
          3   -1    0    0  501    0 -0.00000000000E+00 -0.00000000000E+00 -0.86978289619E+03  0.86978289619E+03  0.00000000000E+00 0. -1.
         25    1    1    2    0    0  0.30007639744E+03  0.75769095393E+01  0.10869789303E+04  0.11345710417E+04  0.12500000000E+03 0.  0.
          2    1    1    2  501    0 -0.46714274231E+02 -0.16350698942E+02  0.56358500138E+03  0.56575403008E+03  0.00000000000E+00 0.  1.
          3    1    1    2  502    0 -0.25336212320E+03  0.87737894023E+01 -0.82588552888E+03  0.86391912334E+03  0.00000000000E+00 0. -1.
<mgrwt>
<rscale>  4 0.28335251E+03</rscale>
<asrwt>0</asrwt>
<pdfrwt beam="1">  1        2 0.26068635E+00 0.28335251E+03</pdfrwt>
<pdfrwt beam="2">  1        3 0.13381275E+00 0.28335251E+03</pdfrwt>
<totfact> 0.30155247E+00</totfact>
</mgrwt>
</event>
<event>
 5    0  0.2917107E+000  0.2220023E+03  0.7546771E-02  0.1132399E+00
          2   -1    0    0  501    0  0.00000000000E+00  0.00000000000E+00  0.30749272914E+04  0.30749272914E+04  0.00000000000E+00 0.  1.
         -1   -1    0    0    0  501 -0.00000000000E+00 -0.00000000000E+00 -0.96135948904E+03  0.96135948904E+03  0.00000000000E+00 0.  1.
         25    1    1    2    0    0 -0.18807929312E+03 -0.10024544669E+03  0.81198798973E+03  0.84874758648E+03  0.12500000000E+03 0.  0.
          2    1    1    2  502    0  0.29827679378E+02  0.80470290134E+01  0.22355586485E+04  0.22357721073E+04  0.00000000000E+00 0.  1.
         -1    1    1    2    0  502  0.15825161374E+03  0.92198417674E+02 -0.93397883583E+03  0.95176708666E+03  0.00000000000E+00 0.  1.
<mgrwt>
<rscale>  4 0.22200225E+03</rscale>
<asrwt>0</asrwt>
<pdfrwt beam="1">  1        2 0.47306573E+00 0.22200225E+03</pdfrwt>
<pdfrwt beam="2">  1       -1 0.14790146E+00 0.22200225E+03</pdfrwt>
<totfact> 0.89372114E-01</totfact>
</mgrwt>
</event>
<event>
 5    0  0.2917107E+000  0.2113081E+03  0.7546771E-02  0.1140534E+00
          2   -1    0    0  502    0  0.00000000000E+00  0.00000000000E+00  0.64439267049E+03  0.64439267049E+03  0.00000000000E+00 0. -1.
          1   -1    0    0  501    0 -0.00000000000E+00 -0.00000000000E+00 -0.25882655736E+03  0.25882655736E+03  0.00000000000E+00 0. -1.
         25    1    1    2    0    0 -0.21135608272E+03  0.45161419300E+01 -0.89956577116E+02  0.26155109445E+03  0.12500000000E+03 0.  0.
          2    1    1    2  501    0  0.16740032116E+03 -0.14562700632E+01  0.53899894949E+03  0.56439778154E+03  0.00000000000E+00 0. -1.
          1    1    1    2  502    0  0.43955761553E+02 -0.30598718668E+01 -0.63476259250E+02  0.77270351869E+02  0.00000000000E+00 0. -1.
<mgrwt>
<rscale>  4 0.21130809E+03</rscale>
<asrwt>0</asrwt>
<pdfrwt beam="1">  1        2 0.99137334E-01 0.21130809E+03</pdfrwt>
<pdfrwt beam="2">  1        1 0.39819470E-01 0.21130809E+03</pdfrwt>
<totfact> 0.67083818E+02</totfact>
</mgrwt>
</event>
<event>
 5    0  0.2917107E+000  0.3340796E+03  0.7546771E-02  0.1069346E+00
         -3   -1    0    0    0  501 -0.00000000000E+00  0.00000000000E+00  0.10837661641E+04  0.10837661641E+04  0.00000000000E+00 0. -1.
          1   -1    0    0  501    0  0.00000000000E+00 -0.00000000000E+00 -0.14298520665E+04  0.14298520665E+04  0.00000000000E+00 0. -1.
         25    1    1    2    0    0  0.28380589098E+03  0.12773235264E+03  0.65146264467E+03  0.73272772233E+03  0.12500000000E+03 0.  0.
          1    1    1    2  502    0  0.88244791039E+01 -0.29683369490E+02 -0.13282162890E+04  0.13285772406E+04  0.00000000000E+00 0. -1.
         -3    1    1    2    0  502 -0.29263037008E+03 -0.98048983148E+02  0.33066774187E+03  0.45231326767E+03  0.00000000000E+00 0. -1.
<mgrwt>
<rscale>  4 0.33407964E+03</rscale>
<asrwt>0</asrwt>
<pdfrwt beam="1">  1        1 0.21997724E+00 0.33407964E+03</pdfrwt>
<pdfrwt beam="2">  1       -3 0.16673326E+00 0.33407964E+03</pdfrwt>
<totfact> 0.10995209E+00</totfact>
</mgrwt>
</event>
<event>
 5    0  0.2917107E+000  0.2356240E+03  0.7546771E-02  0.1122743E+00
         -2   -1    0    0    0  501 -0.00000000000E+00  0.00000000000E+00  0.64361426393E+02  0.64361426393E+02  0.00000000000E+00 0. -1.
          2   -1    0    0  502    0  0.00000000000E+00 -0.00000000000E+00 -0.19099588399E+04  0.19099588399E+04  0.00000000000E+00 0. -1.
         25    1    1    2    0    0 -0.13121819466E+03  0.16715029351E+03 -0.48395635749E+03  0.54313551825E+03  0.12500000000E+03 0.  0.
          2    1    1    2  502    0  0.83121418825E+01 -0.18248591725E+02 -0.11276191192E+04  0.11277974023E+04  0.00000000000E+00 0. -1.
         -2    1    1    2    0  501  0.12290605278E+03 -0.14890170179E+03 -0.23402193681E+03  0.30338734567E+03  0.00000000000E+00 0. -1.
<mgrwt>
<rscale>  4 0.23562400E+03</rscale>
<asrwt>0</asrwt>
<pdfrwt beam="1">  1        2 0.29383978E+00 0.23562400E+03</pdfrwt>
<pdfrwt beam="2">  1       -2 0.99017594E-02 0.23562400E+03</pdfrwt>
<totfact> 0.56297897E+02</totfact>
</mgrwt>
</event>
<event>
 5    0  0.2917107E+000  0.2216111E+03  0.7546771E-02  0.1132688E+00
          2   -1    0    0  502    0  0.00000000000E+00  0.00000000000E+00  0.39661725419E+04  0.39661725419E+04  0.00000000000E+00 0. -1.
          2   -1    0    0  501    0 -0.00000000000E+00 -0.00000000000E+00 -0.18737608842E+04  0.18737608842E+04  0.00000000000E+00 0.  1.
         25    1    1    2    0    0  0.23893099799E+03  0.86808729386E+00  0.64010644617E+03  0.69458623496E+03  0.12500000000E+03 0.  0.
          2    1    1    2  501    0 -0.18249309381E+03  0.66945099548E+01 -0.18417592742E+04  0.18507905797E+04  0.00000000000E+00 0.  1.
          2    1    1    2  502    0 -0.56437904173E+02 -0.75625972487E+01  0.32940644857E+04  0.32945566114E+04  0.00000000000E+00 0. -1.
<mgrwt>
<rscale>  4 0.22161106E+03</rscale>
<asrwt>0</asrwt>
<pdfrwt beam="1">  1        2 0.61018039E+00 0.22161106E+03</pdfrwt>
<pdfrwt beam="2">  1        2 0.28827091E+00 0.22161106E+03</pdfrwt>
<totfact> 0.68464697E-01</totfact>
</mgrwt>
</event>
<event>
 5    0  0.2917107E+000  0.2661121E+03  0.7546771E-02  0.1103526E+00
          2   -1    0    0  502    0  0.00000000000E+00  0.00000000000E+00  0.55020873014E+03  0.55020873014E+03  0.00000000000E+00 0. -1.
          1   -1    0    0  501    0 -0.00000000000E+00 -0.00000000000E+00 -0.44813472656E+03  0.44813472656E+03  0.00000000000E+00 0. -1.
         25    1    1    2    0    0 -0.13144232203E+03  0.18165172261E+03 -0.25849500596E+03  0.36430632777E+03  0.12500000000E+03 0.  0.
          2    1    1    2  501    0  0.10912689880E+03  0.14521906385E+03  0.19657323998E+03  0.26765331162E+03  0.00000000000E+00 0. -1.
          1    1    1    2  502    0  0.22315423234E+02 -0.32687078646E+03  0.16399576955E+03  0.36638381731E+03  0.00000000000E+00 0. -1.
<mgrwt>
<rscale>  4 0.26611214E+03</rscale>
<asrwt>0</asrwt>
<pdfrwt beam="1">  1        2 0.84647496E-01 0.26611214E+03</pdfrwt>
<pdfrwt beam="2">  1        1 0.68943804E-01 0.26611214E+03</pdfrwt>
<totfact> 0.39816946E+02</totfact>
</mgrwt>
</event>
<event>
 5    0  0.2917107E+000  0.2135747E+03  0.7546771E-02  0.1138766E+00
          3   -1    0    0  501    0 -0.00000000000E+00  0.00000000000E+00  0.26940747621E+03  0.26940747621E+03  0.00000000000E+00 0.  1.
          2   -1    0    0  502    0  0.00000000000E+00 -0.00000000000E+00 -0.43324289978E+03  0.43324289978E+03  0.00000000000E+00 0.  1.
         25    1    1    2    0    0  0.15092634182E+03  0.18168461525E+03 -0.66726469896E+02  0.27543689270E+03  0.12500000000E+03 0.  0.
          2    1    1    2  501    0 -0.31536796664E+02 -0.15881000203E+03 -0.20737247773E+03  0.26309414818E+03  0.00000000000E+00 0.  1.
          3    1    1    2  502    0 -0.11938954515E+03 -0.22874613226E+02  0.11026352405E+03  0.16411933512E+03  0.00000000000E+00 0.  1.
<mgrwt>
<rscale>  4 0.21357467E+03</rscale>
<asrwt>0</asrwt>
<pdfrwt beam="1">  1        2 0.66652753E-01 0.21357467E+03</pdfrwt>
<pdfrwt beam="2">  1        3 0.41447304E-01 0.21357467E+03</pdfrwt>
<totfact> 0.26191135E+02</totfact>
</mgrwt>
</event>
<event>
 5    0  0.2917107E+000  0.3210008E+03  0.7546771E-02  0.1075190E+00
          2   -1    0    0  502    0  0.00000000000E+00  0.00000000000E+00  0.10843955974E+04  0.10843955974E+04  0.00000000000E+00 0. -1.
          2   -1    0    0  501    0 -0.00000000000E+00 -0.00000000000E+00 -0.52000045044E+03  0.52000045044E+03  0.00000000000E+00 0. -1.
         25    1    1    2    0    0  0.28249049873E+03  0.17581692661E+03 -0.19086762518E+03  0.40344506925E+03  0.12500000000E+03 0.  0.
          2    1    1    2  501    0 -0.45441954941E+02 -0.51251969076E+02  0.89587791976E+03  0.89849261695E+03  0.00000000000E+00 0. -1.
          2    1    1    2  502    0 -0.23704854379E+03 -0.12456495754E+03 -0.14061514765E+03  0.30245836161E+03  0.00000000000E+00 0. -1.
<mgrwt>
<rscale>  4 0.32100082E+03</rscale>
<asrwt>0</asrwt>
<pdfrwt beam="1">  1        2 0.16683009E+00 0.32100082E+03</pdfrwt>
<pdfrwt beam="2">  1        2 0.80000070E-01 0.32100082E+03</pdfrwt>
<totfact> 0.21412830E+02</totfact>
</mgrwt>
</event>
<event>
 5    0  0.2917107E+000  0.4630245E+03  0.7546771E-02  0.1023908E+00
          1   -1    0    0  501    0 -0.00000000000E+00  0.00000000000E+00  0.10806557358E+04  0.10806557358E+04  0.00000000000E+00 0. -1.
          2   -1    0    0  502    0  0.00000000000E+00 -0.00000000000E+00 -0.70234148393E+03  0.70234148393E+03  0.00000000000E+00 0.  1.
         25    1    1    2    0    0 -0.41873751780E+03 -0.42603576615E+03  0.12249664083E+03  0.62247731675E+03  0.12500000000E+03 0.  0.
          2    1    1    2  501    0  0.11287651775E+03  0.15442388170E+03 -0.36788745813E+03  0.41464325069E+03  0.00000000000E+00 0.  1.
          1    1    1    2  502    0  0.30586100005E+03  0.27161188445E+03  0.62370506919E+03  0.74587665231E+03  0.00000000000E+00 0. -1.
<mgrwt>
<rscale>  4 0.46302453E+03</rscale>
<asrwt>0</asrwt>
<pdfrwt beam="1">  1        2 0.10805254E+00 0.46302453E+03</pdfrwt>
<pdfrwt beam="2">  1        1 0.16625473E+00 0.46302453E+03</pdfrwt>
<totfact> 0.76199358E+01</totfact>
</mgrwt>
</event>
<event>
 5    0  0.2917107E+000  0.2920477E+03  0.7546771E-02  0.1089285E+00
          2   -1    0    0  501    0  0.00000000000E+00  0.00000000000E+00  0.40070631431E+04  0.40070631431E+04  0.00000000000E+00 0. -1.
         -1   -1    0    0    0  501 -0.00000000000E+00 -0.00000000000E+00 -0.61951053893E+02  0.61951053893E+02  0.00000000000E+00 0.  1.
         25    1    1    2    0    0  0.24684749397E+03  0.13818997579E+03  0.20658421440E+04  0.20888654621E+04  0.12500000000E+03 0.  0.
          2    1    1    2  502    0 -0.12055076443E+02 -0.24367420120E+02  0.15913649072E+04  0.15915971111E+04  0.00000000000E+00 0. -1.
         -1    1    1    2    0  502 -0.23479241753E+03 -0.11382255567E+03  0.28790503801E+03  0.38855162388E+03  0.00000000000E+00 0.  1.
<mgrwt>
<rscale>  4 0.29204774E+03</rscale>
<asrwt>0</asrwt>
<pdfrwt beam="1">  1        2 0.61647105E+00 0.29204774E+03</pdfrwt>
<pdfrwt beam="2">  1       -1 0.95309346E-02 0.29204774E+03</pdfrwt>
<totfact> 0.32758062E+01</totfact>
</mgrwt>
</event>
<event>
 5    0  0.2917107E+000  0.2693084E+03  0.7546771E-02  0.1101676E+00
         -3   -1    0    0    0  502 -0.00000000000E+00  0.00000000000E+00  0.22654794208E+03  0.22654794208E+03  0.00000000000E+00 0. -1.
         -1   -1    0    0    0  501  0.00000000000E+00 -0.00000000000E+00 -0.61318838191E+03  0.61318838191E+03  0.00000000000E+00 0. -1.
         25    1    1    2    0    0  0.21183189258E+03  0.13094329907E+03 -0.36175858483E+03  0.45663242547E+03  0.12500000000E+03 0.  0.
         -1    1    1    2    0  502 -0.18645724662E+03 -0.12564650194E+03 -0.14015862432E+03  0.26494865208E+03  0.00000000000E+00 0. -1.
         -3    1    1    2    0  501 -0.25374645965E+02 -0.52967971326E+01  0.11527676932E+03  0.11815524644E+03  0.00000000000E+00 0. -1.
<mgrwt>
<rscale>  4 0.26930839E+03</rscale>
<asrwt>0</asrwt>
<pdfrwt beam="1">  1       -1 0.94336675E-01 0.26930839E+03</pdfrwt>
<pdfrwt beam="2">  1       -3 0.34853529E-01 0.26930839E+03</pdfrwt>
<totfact> 0.43035486E+01</totfact>
</mgrwt>
</event>
