<event>
 5    0  0.1788807E+001  0.2467884E+03  0.7546771E-02  0.1115351E+00
         21   -1    0    0  502  501  0.00000000000E+00  0.00000000000E+00  0.82004607247E+02  0.82004607247E+02  0.00000000000E+00 0. -1.
         21   -1    0    0  503  502 -0.00000000000E+00 -0.00000000000E+00 -0.72672318547E+03  0.72672318547E+03  0.00000000000E+00 0. -1.
         25    1    1    2    0    0  0.21063092622E+03  0.30234489004E+02 -0.45988957053E+03  0.52192233952E+03  0.12500000000E+03 0.  0.
         21    1    1    2  503  504 -0.18557247713E+03 -0.31959482311E+02 -0.18137964299E+03  0.26145196053E+03  0.00000000000E+00 0. -1.
         21    1    1    2  504  501 -0.25058449098E+02  0.17249933063E+01 -0.34493646974E+01  0.25353492657E+02  0.00000000000E+00 0.  1.
<mgrwt>
<rscale>  4 0.24678839E+03</rscale>
<asrwt>0</asrwt>
<pdfrwt beam="1">  1       21 0.12616093E-01 0.24678839E+03</pdfrwt>
<pdfrwt beam="2">  1       21 0.11180357E+00 0.24678839E+03</pdfrwt>
<totfact> 0.32739186E+04</totfact>
</mgrwt>
</event>
<event>
 5    0  0.1856407E+000  0.3351489E+03  0.7546771E-02  0.1068881E+00
         21   -1    0    0  502  501  0.00000000000E+00  0.00000000000E+00  0.92572217470E+03  0.92572217470E+03  0.00000000000E+00 0.  1.
         21   -1    0    0  503  502 -0.00000000000E+00 -0.00000000000E+00 -0.50109051504E+03  0.50109051504E+03  0.00000000000E+00 0.  1.
         25    1    1    2    0    0 -0.24900917369E+03  0.18626377883E+03  0.83914960501E+03  0.90360213782E+03  0.12500000000E+03 0.  0.
         21    1    1    2  503  504  0.84809971407E+02 -0.99144932840E+02 -0.20629946297E+03  0.24409407486E+03  0.00000000000E+00 0.  1.
         21    1    1    2  504  501  0.16419920229E+03 -0.87118845987E+02 -0.20821848238E+03  0.27911647705E+03  0.00000000000E+00 0.  1.
<mgrwt>
<rscale>  4 0.33514887E+03</rscale>
<asrwt>0</asrwt>
<pdfrwt beam="1">  1       21 0.14241880E+00 0.33514887E+03</pdfrwt>
<pdfrwt beam="2">  1       21 0.77090849E-01 0.33514887E+03</pdfrwt>
<totfact> 0.45290734E+02</totfact>
</mgrwt>
</event>
<event>
 5    0  0.1856407E+000  0.2393545E+03  0.7546771E-02  0.1120224E+00
         21   -1    0    0  502  501  0.00000000000E+00  0.00000000000E+00  0.27342076859E+03  0.27342076859E+03  0.00000000000E+00 0.  1.
         21   -1    0    0  503  502 -0.00000000000E+00 -0.00000000000E+00 -0.30403656799E+03  0.30403656799E+03  0.00000000000E+00 0.  1.
         25    1    1    2    0    0 -0.75741665013E+02 -0.18954884948E+03  0.16388705251E+03  0.29008538766E+03  0.12500000000E+03 0.  0.
         21    1    1    2  503  504  0.43388729075E+02  0.73997566662E+02 -0.11484180211E+03  0.14334176361E+03  0.00000000000E+00 0.  1.
         21    1    1    2  504  501  0.32352935938E+02  0.11555128282E+03 -0.79661049804E+02  0.14403018531E+03  0.00000000000E+00 0.  1.
<mgrwt>
<rscale>  4 0.23935448E+03</rscale>
<asrwt>0</asrwt>
<pdfrwt beam="1">  1       21 0.42064734E-01 0.23935448E+03</pdfrwt>
<pdfrwt beam="2">  1       21 0.46774857E-01 0.23935448E+03</pdfrwt>
<totfact> 0.23207049E+04</totfact>
</mgrwt>
</event>
<event>
 5    0  0.2402714E+000  0.2705217E+03  0.7546771E-02  0.1100981E+00
         21   -1    0    0  502  501  0.00000000000E+00  0.00000000000E+00  0.86171955559E+03  0.86171955559E+03  0.00000000000E+00 0. -1.
         21   -1    0    0  503  502 -0.00000000000E+00 -0.00000000000E+00 -0.14316390118E+03  0.14316390118E+03  0.00000000000E+00 0. -1.
         25    1    1    2    0    0 -0.19158604608E+03 -0.19563834166E+03  0.56259423398E+03  0.63805708670E+03  0.12500000000E+03 0.  0.
         21    1    1    2  503  504  0.76607877520E+02  0.18830453269E+03  0.14777104967E+03  0.25132378927E+03  0.00000000000E+00 0. -1.
         21    1    1    2  504  501  0.11497816856E+03  0.73338089677E+01  0.81903707581E+01  0.11550258081E+03  0.00000000000E+00 0. -1.
<mgrwt>
<rscale>  4 0.27052166E+03</rscale>
<asrwt>0</asrwt>
<pdfrwt beam="1">  1       21 0.13257224E+00 0.27052166E+03</pdfrwt>
<pdfrwt beam="2">  1       21 0.22025216E-01 0.27052166E+03</pdfrwt>
<totfact> 0.75235713E+03</totfact>
</mgrwt>
</event>
<event>
 5    0  0.1856407E+000  0.3201748E+03  0.7546771E-02  0.1075569E+00
         21   -1    0    0  502  501  0.00000000000E+00  0.00000000000E+00  0.18076406877E+03  0.18076406877E+03  0.00000000000E+00 0.  1.
         21   -1    0    0  503  502 -0.00000000000E+00 -0.00000000000E+00 -0.10316748744E+04  0.10316748744E+04  0.00000000000E+00 0.  1.
         25    1    1    2    0    0  0.13008809143E+03 -0.26450708740E+03 -0.11739620166E+02  0.32038996473E+03  0.12500000000E+03 0.  0.
         21    1    1    2  503  504 -0.60061274756E+00  0.29172345897E+02 -0.14105228292E+03  0.14403865112E+03  0.00000000000E+00 0.  1.
         21    1    1    2  504  501 -0.12948747868E+03  0.23533474150E+03 -0.69811890255E+03  0.74801032733E+03  0.00000000000E+00 0.  1.
<mgrwt>
<rscale>  4 0.32017481E+03</rscale>
<asrwt>0</asrwt>
<pdfrwt beam="1">  1       21 0.27809856E-01 0.32017481E+03</pdfrwt>
<pdfrwt beam="2">  1       21 0.15871922E+00 0.32017481E+03</pdfrwt>
<totfact> 0.28978900E+03</totfact>
</mgrwt>
</event>
<event>
 5    0  0.1880957E+000  0.2431822E+03  0.7546771E-02  0.1117691E+00
         21   -1    0    0  502  501  0.00000000000E+00  0.00000000000E+00  0.18152123129E+03  0.18152123129E+03  0.00000000000E+00 0.  1.
         21   -1    0    0  503  502 -0.00000000000E+00 -0.00000000000E+00 -0.43337557553E+03  0.43337557553E+03  0.00000000000E+00 0.  1.
         25    1    1    2    0    0  0.20205141595E+03 -0.51844190276E+02  0.37913105227E+02  0.24611988603E+03  0.12500000000E+03 0.  0.
         21    1    1    2  503  504 -0.13651663953E+03  0.55104738056E+02 -0.25518395594E+03  0.29460511943E+03  0.00000000000E+00 0.  1.
         21    1    1    2  504  501 -0.65534776419E+02 -0.32605477800E+01 -0.34583493524E+02  0.74171801356E+02  0.00000000000E+00 0.  1.
<mgrwt>
<rscale>  4 0.24318223E+03</rscale>
<asrwt>0</asrwt>
<pdfrwt beam="1">  1       21 0.27926343E-01 0.24318223E+03</pdfrwt>
<pdfrwt beam="2">  1       21 0.66673165E-01 0.24318223E+03</pdfrwt>
<totfact> 0.24578596E+04</totfact>
</mgrwt>
</event>
<event>
 5    0  0.1856407E+000  0.3464554E+03  0.7546771E-02  0.1064079E+00
         21   -1    0    0  502  501  0.00000000000E+00  0.00000000000E+00  0.47368187420E+03  0.47368187420E+03  0.00000000000E+00 0.  1.
         21   -1    0    0  503  502 -0.00000000000E+00 -0.00000000000E+00 -0.42625911308E+03  0.42625911308E+03  0.00000000000E+00 0.  1.
         25    1    1    2    0    0 -0.28682510907E+03 -0.15643005420E+03  0.29851709946E+03  0.45986570183E+03  0.12500000000E+03 0.  0.
         21    1    1    2  503  504  0.34842591751E+02 -0.28792007266E+02 -0.53979158019E+02  0.70404086407E+02  0.00000000000E+00 0.  1.
         21    1    1    2  504  501  0.25198251732E+03  0.18522206147E+03 -0.19711518031E+03  0.36967119904E+03  0.00000000000E+00 0.  1.
<mgrwt>
<rscale>  4 0.34645539E+03</rscale>
<asrwt>0</asrwt>
<pdfrwt beam="1">  1       21 0.72874134E-01 0.34645539E+03</pdfrwt>
<pdfrwt beam="2">  1       21 0.65578325E-01 0.34645539E+03</pdfrwt>
<totfact> 0.32934040E+03</totfact>
</mgrwt>
</event>
<event>
 5    0  0.1856407E+000  0.2887298E+03  0.7546771E-02  0.1091014E+00
         21   -1    0    0  502  501  0.00000000000E+00  0.00000000000E+00  0.11416140630E+03  0.11416140630E+03  0.00000000000E+00 0. -1.
         21   -1    0    0  503  502 -0.00000000000E+00 -0.00000000000E+00 -0.17038500870E+04  0.17038500870E+04  0.00000000000E+00 0. -1.
         25    1    1    2    0    0  0.18953960512E+03 -0.17688420717E+03 -0.15317709574E+03  0.32603911930E+03  0.12500000000E+03 0.  0.
         21    1    1    2  503  504  0.26972761734E+02  0.31483597301E+02 -0.11127908997E+02  0.42925250532E+02  0.00000000000E+00 0.  1.
         21    1    1    2  504  501 -0.21651236686E+03  0.14540060987E+03 -0.14253836759E+04  0.14490471234E+04  0.00000000000E+00 0. -1.
<mgrwt>
<rscale>  4 0.28872980E+03</rscale>
<asrwt>0</asrwt>
<pdfrwt beam="1">  1       21 0.17563294E-01 0.28872980E+03</pdfrwt>
<pdfrwt beam="2">  1       21 0.26213078E+00 0.28872980E+03</pdfrwt>
<totfact> 0.15091304E+03</totfact>
</mgrwt>
</event>
<event>
 5    0  0.2076832E+000  0.2049922E+03  0.7546771E-02  0.1145594E+00
         21   -1    0    0  502  501  0.00000000000E+00  0.00000000000E+00  0.10215434270E+03  0.10215434270E+03  0.00000000000E+00 0. -1.
         21   -1    0    0  503  502 -0.00000000000E+00 -0.00000000000E+00 -0.67159886767E+03  0.67159886767E+03  0.00000000000E+00 0. -1.
         25    1    1    2    0    0 -0.15097796517E+03  0.16736867665E+03 -0.21182825881E+03  0.33362078940E+03  0.12500000000E+03 0.  0.
         21    1    1    2  503  504  0.28569262970E+02 -0.87440132226E+02 -0.63779574195E+02  0.11193664992E+03  0.00000000000E+00 0. -1.
         21    1    1    2  504  501  0.12240870220E+03 -0.79928544423E+02 -0.29383669197E+03  0.32819577105E+03  0.00000000000E+00 0. -1.
<mgrwt>
<rscale>  4 0.20499221E+03</rscale>
<asrwt>0</asrwt>
<pdfrwt beam="1">  1       21 0.15716053E-01 0.20499221E+03</pdfrwt>
<pdfrwt beam="2">  1       21 0.10332290E+00 0.20499221E+03</pdfrwt>
<totfact> 0.27162084E+04</totfact>
</mgrwt>
</event>
<event>
 5    0  0.1856407E+000  0.3263454E+03  0.7546771E-02  0.1072765E+00
         21   -1    0    0  502  501  0.00000000000E+00  0.00000000000E+00  0.50039822236E+03  0.50039822236E+03  0.00000000000E+00 0. -1.
         21   -1    0    0  503  502 -0.00000000000E+00 -0.00000000000E+00 -0.34495284261E+03  0.34495284261E+03  0.00000000000E+00 0. -1.
         25    1    1    2    0    0 -0.29963308424E+03 -0.33110969462E+02 -0.19312206235E+03  0.37920634546E+03  0.12500000000E+03 0.  0.
         21    1    1    2  503  504  0.48935310774E+02 -0.12702228074E+02  0.89156833094E+02  0.10249366871E+03  0.00000000000E+00 0.  1.
         21    1    1    2  504  501  0.25069777347E+03  0.45813197536E+02  0.25941060900E+03  0.36365105081E+03  0.00000000000E+00 0. -1.
<mgrwt>
<rscale>  4 0.32634540E+03</rscale>
<asrwt>0</asrwt>
<pdfrwt beam="1">  1       21 0.76984342E-01 0.32634540E+03</pdfrwt>
<pdfrwt beam="2">  1       21 0.53069668E-01 0.32634540E+03</pdfrwt>
<totfact> 0.46482916E+03</totfact>
</mgrwt>
</event>
