<event>
 5    0  0.1856407E+000  0.2540281E+03  0.7546771E-02  0.1110785E+00
         21   -1    0    0  502  501  0.00000000000E+00  0.00000000000E+00  0.10165144897E+04  0.10165144897E+04  0.00000000000E+00 0.  1.
         21   -1    0    0  503  502 -0.00000000000E+00 -0.00000000000E+00 -0.59905856254E+02  0.59905856254E+02  0.00000000000E+00 0. -1.
         25    1    1    2    0    0 -0.17242445256E+03 -0.13847409088E+03  0.59399144808E+03  0.64603104111E+03  0.12500000000E+03 0.  0.
         21    1    1    2  503  504  0.69567891760E+02  0.24747626898E+02  0.16065500297E+03  0.17681110424E+03  0.00000000000E+00 0. -1.
         21    1    1    2  504  501  0.10285656080E+03  0.11372646398E+03  0.20196218241E+03  0.25357820063E+03  0.00000000000E+00 0. -1.
<mgrwt>
<rscale>  4 0.25402808E+03</rscale>
<asrwt>0</asrwt>
<pdfrwt beam="1">  1       21 0.15638683E+00 0.25402808E+03</pdfrwt>
<pdfrwt beam="2">  1       21 0.92162863E-02 0.25402808E+03</pdfrwt>
<totfact> 0.24176278E+04</totfact>
</mgrwt>
</event>
<event>
 5    0  0.2574514E+000  0.2173886E+03  0.7546771E-02  0.1135845E+00
         21   -1    0    0  502  501  0.00000000000E+00  0.00000000000E+00  0.15949210662E+03  0.15949210662E+03  0.00000000000E+00 0. -1.
         21   -1    0    0  503  502 -0.00000000000E+00 -0.00000000000E+00 -0.43482107070E+03  0.43482107070E+03  0.00000000000E+00 0. -1.
         25    1    1    2    0    0 -0.78970984964E+02 -0.21852378576E+03 -0.17290177821E+03  0.31545060836E+03  0.12500000000E+03 0.  0.
         21    1    1    2  503  504  0.40967657299E+02  0.15382899316E+03 -0.95670596603E+01  0.15947801326E+03  0.00000000000E+00 0. -1.
         21    1    1    2  504  501  0.38003327666E+02  0.64694792594E+02 -0.92860126203E+02  0.11938455571E+03  0.00000000000E+00 0. -1.
<mgrwt>
<rscale>  4 0.21738857E+03</rscale>
<asrwt>0</asrwt>
<pdfrwt beam="1">  1       21 0.24537247E-01 0.21738857E+03</pdfrwt>
<pdfrwt beam="2">  1       21 0.66895550E-01 0.21738857E+03</pdfrwt>
<totfact> 0.31707991E+04</totfact>
</mgrwt>
</event>
<event>
 5    0  0.1856407E+000  0.3051661E+03  0.7546771E-02  0.1082686E+00
         21   -1    0    0  502  501  0.00000000000E+00  0.00000000000E+00  0.89270698705E+03  0.89270698705E+03  0.00000000000E+00 0.  1.
         21   -1    0    0  503  502 -0.00000000000E+00 -0.00000000000E+00 -0.21376404442E+03  0.21376404442E+03  0.00000000000E+00 0. -1.
         25    1    1    2    0    0 -0.26798181466E+03 -0.77787842217E+02  0.70416973216E+03  0.76768822647E+03  0.12500000000E+03 0.  0.
         21    1    1    2  503  504  0.24987125179E+03  0.12307020259E+03 -0.51697619829E+02  0.28329235982E+03  0.00000000000E+00 0. -1.
         21    1    1    2  504  501  0.18110562864E+02 -0.45282360377E+02  0.26470830301E+02  0.55490445172E+02  0.00000000000E+00 0. -1.
<mgrwt>
<rscale>  4 0.30516613E+03</rscale>
<asrwt>0</asrwt>
<pdfrwt beam="1">  1       21 0.13733953E+00 0.30516613E+03</pdfrwt>
<pdfrwt beam="2">  1       21 0.32886777E-01 0.30516613E+03</pdfrwt>
<totfact> 0.30897396E+03</totfact>
</mgrwt>
</event>
<event>
 5    0  0.1856407E+000  0.2597956E+03  0.7546771E-02  0.1107266E+00
         21   -1    0    0  502  501  0.00000000000E+00  0.00000000000E+00  0.19916751871E+03  0.19916751871E+03  0.00000000000E+00 0. -1.
         21   -1    0    0  503  502 -0.00000000000E+00 -0.00000000000E+00 -0.70637267273E+03  0.70637267273E+03  0.00000000000E+00 0.  1.
         25    1    1    2    0    0 -0.66514967680E+02 -0.21781762130E+03  0.81075923963E+02  0.27215264562E+03  0.12500000000E+03 0.  0.
         21    1    1    2  503  504  0.11926321386E+02  0.11056821849E+03 -0.23083806298E+03  0.25622993463E+03  0.00000000000E+00 0.  1.
         21    1    1    2  504  501  0.54588646294E+02  0.10724940281E+03 -0.35744301501E+03  0.37715761120E+03  0.00000000000E+00 0.  1.
<mgrwt>
<rscale>  4 0.25979561E+03</rscale>
<asrwt>0</asrwt>
<pdfrwt beam="1">  1       21 0.30641157E-01 0.25979561E+03</pdfrwt>
<pdfrwt beam="2">  1       21 0.10867272E+00 0.25979561E+03</pdfrwt>
<totfact> 0.65726395E+03</totfact>
</mgrwt>
</event>
<event>
 5    0  0.1856407E+000  0.3262146E+03  0.7546771E-02  0.1072824E+00
         21   -1    0    0  502  501  0.00000000000E+00  0.00000000000E+00  0.14791407975E+04  0.14791407975E+04  0.00000000000E+00 0.  1.
         21   -1    0    0  503  502 -0.00000000000E+00 -0.00000000000E+00 -0.21896264342E+03  0.21896264342E+03  0.00000000000E+00 0. -1.
         25    1    1    2    0    0 -0.10755172875E+03  0.28146689459E+03  0.13409680029E+04  0.13800765095E+04  0.12500000000E+03 0.  0.
         21    1    1    2  503  504  0.17728832573E+02 -0.11657149083E+02  0.33295189810E+01  0.21477577279E+02  0.00000000000E+00 0.  1.
         21    1    1    2  504  501  0.89822896172E+02 -0.26980974550E+03 -0.84119367792E+02  0.29654935421E+03  0.00000000000E+00 0. -1.
<mgrwt>
<rscale>  4 0.32621463E+03</rscale>
<asrwt>0</asrwt>
<pdfrwt beam="1">  1       21 0.22756012E+00 0.32621463E+03</pdfrwt>
<pdfrwt beam="2">  1       21 0.33686561E-01 0.32621463E+03</pdfrwt>
<totfact> 0.67803282E+02</totfact>
</mgrwt>
</event>
<event>
 5    0  0.1856407E+000  0.2787320E+03  0.7546771E-02  0.1096384E+00
         21   -1    0    0  502  501  0.00000000000E+00  0.00000000000E+00  0.93378901963E+03  0.93378901963E+03  0.00000000000E+00 0.  1.
         21   -1    0    0  503  502 -0.00000000000E+00 -0.00000000000E+00 -0.30032247424E+03  0.30032247424E+03  0.00000000000E+00 0.  1.
         25    1    1    2    0    0 -0.14546188669E+03  0.20597232547E+03  0.83569588226E+03  0.88181424743E+03  0.12500000000E+03 0.  0.
         21    1    1    2  503  504 -0.36773066179E+01 -0.47869921355E+02  0.94192333625E+01  0.48926208842E+02  0.00000000000E+00 0. -1.
         21    1    1    2  504  501  0.14913919331E+03 -0.15810240411E+03 -0.21164857023E+03  0.30337103759E+03  0.00000000000E+00 0.  1.
<mgrwt>
<rscale>  4 0.27873203E+03</rscale>
<asrwt>0</asrwt>
<pdfrwt beam="1">  1       21 0.14365985E+00 0.27873203E+03</pdfrwt>
<pdfrwt beam="2">  1       21 0.46203458E-01 0.27873203E+03</pdfrwt>
<totfact> 0.13976874E+03</totfact>
</mgrwt>
</event>
<event>
 5    0  0.1856407E+000  0.2361887E+03  0.7546771E-02  0.1122358E+00
         21   -1    0    0  502  501  0.00000000000E+00  0.00000000000E+00  0.49458594663E+03  0.49458594663E+03  0.00000000000E+00 0.  1.
         21   -1    0    0  503  502 -0.00000000000E+00 -0.00000000000E+00 -0.39374533136E+03  0.39374533136E+03  0.00000000000E+00 0. -1.
         25    1    1    2    0    0 -0.12056321350E+03 -0.16007690684E+03  0.43121881446E+03  0.49166530333E+03  0.12500000000E+03 0.  0.
         21    1    1    2  503  504  0.11702180053E+03  0.10119377079E+03 -0.27617677543E+03  0.31655630199E+03  0.00000000000E+00 0. -1.
         21    1    1    2  504  501  0.35414129710E+01  0.58883136048E+02 -0.54201423767E+02  0.80109672668E+02  0.00000000000E+00 0. -1.
<mgrwt>
<rscale>  4 0.23618871E+03</rscale>
<asrwt>0</asrwt>
<pdfrwt beam="1">  1       21 0.76090146E-01 0.23618871E+03</pdfrwt>
<pdfrwt beam="2">  1       21 0.60576205E-01 0.23618871E+03</pdfrwt>
<totfact> 0.37807288E+03</totfact>
</mgrwt>
</event>
<event>
 5    0  0.1856407E+000  0.3937955E+03  0.7546771E-02  0.1045949E+00
         21   -1    0    0  502  501  0.00000000000E+00  0.00000000000E+00  0.23248728592E+03  0.23248728592E+03  0.00000000000E+00 0.  1.
         21   -1    0    0  503  502 -0.00000000000E+00 -0.00000000000E+00 -0.12372655535E+04  0.12372655535E+04  0.00000000000E+00 0. -1.
         25    1    1    2    0    0  0.16403934095E+03 -0.35563142788E+03 -0.34705500336E+02  0.41256767885E+03  0.12500000000E+03 0.  0.
         21    1    1    2  503  504 -0.14107168813E+03  0.34222351765E+03 -0.95974779655E+03  0.10286564005E+04  0.00000000000E+00 0. -1.
         21    1    1    2  504  501 -0.22967652816E+02  0.13407910232E+02 -0.10324970676E+02  0.28528760087E+02  0.00000000000E+00 0. -1.
<mgrwt>
<rscale>  4 0.39379550E+03</rscale>
<asrwt>0</asrwt>
<pdfrwt beam="1">  1       21 0.35767275E-01 0.39379550E+03</pdfrwt>
<pdfrwt beam="2">  1       21 0.19034854E+00 0.39379550E+03</pdfrwt>
<totfact> 0.10051841E+03</totfact>
</mgrwt>
</event>
<event>
 5    0  0.1917012E+000  0.2919813E+03  0.7546771E-02  0.1089319E+00
         21   -1    0    0  502  501  0.00000000000E+00  0.00000000000E+00  0.83275335472E+03  0.83275335472E+03  0.00000000000E+00 0.  1.
         21   -1    0    0  503  502 -0.00000000000E+00 -0.00000000000E+00 -0.12232366908E+03  0.12232366908E+03  0.00000000000E+00 0. -1.
         25    1    1    2    0    0  0.76954620873E+02 -0.25240065356E+03  0.56840707918E+03  0.63901464088E+03  0.12500000000E+03 0.  0.
         21    1    1    2  503  504  0.20935118031E+02  0.75201465586E+02  0.56172054259E+02  0.96170885786E+02  0.00000000000E+00 0.  1.
         21    1    1    2  504  501 -0.97889738904E+02  0.17719918798E+03  0.85850552200E+02  0.21989149714E+03  0.00000000000E+00 0. -1.
<mgrwt>
<rscale>  4 0.29198134E+03</rscale>
<asrwt>0</asrwt>
<pdfrwt beam="1">  1       21 0.12811590E+00 0.29198134E+03</pdfrwt>
<pdfrwt beam="2">  1       21 0.18819027E-01 0.29198134E+03</pdfrwt>
<totfact> 0.10926882E+04</totfact>
</mgrwt>
</event>
<event>
 5    0  0.1856407E+000  0.4173310E+03  0.7546771E-02  0.1037938E+00
         21   -1    0    0  502  501  0.00000000000E+00  0.00000000000E+00  0.11248394277E+04  0.11248394277E+04  0.00000000000E+00 0.  1.
         21   -1    0    0  503  502 -0.00000000000E+00 -0.00000000000E+00 -0.26394774930E+03  0.26394774930E+03  0.00000000000E+00 0.  1.
         25    1    1    2    0    0  0.38663796661E+03  0.95138255489E+02  0.88355286657E+03  0.97715447751E+03  0.12500000000E+03 0.  0.
         21    1    1    2  503  504 -0.33147540321E+03 -0.64383058643E+02 -0.52594203795E+02  0.34174152725E+03  0.00000000000E+00 0.  1.
         21    1    1    2  504  501 -0.55162563395E+02 -0.30755196847E+02  0.29933015613E+02  0.69891172240E+02  0.00000000000E+00 0.  1.
<mgrwt>
<rscale>  4 0.41733105E+03</rscale>
<asrwt>0</asrwt>
<pdfrwt beam="1">  1       21 0.17305222E+00 0.41733105E+03</pdfrwt>
<pdfrwt beam="2">  1       21 0.40607346E-01 0.41733105E+03</pdfrwt>
<totfact> 0.10125258E+03</totfact>
</mgrwt>
</event>
