<event>
 5    0  0.2629946E-001  0.5223690E+03  0.7546771E-02  0.1008100E+00
         21   -1    0    0  504  501  0.00000000000E+00  0.00000000000E+00  0.30638481036E+03  0.30638481036E+03  0.00000000000E+00 0. -1.
         21   -1    0    0  501  502 -0.00000000000E+00 -0.00000000000E+00 -0.22265252351E+03  0.22265252351E+03  0.00000000000E+00 0. -1.
         25    1    1    2    0    0 -0.19317366274E+03  0.87853247120E+02 -0.18792681683E+01  0.24629817022E+03  0.12500000000E+03 0.  0.
         21    1    1    2  503  502  0.12059461797E+03 -0.35713687325E+02 -0.36922039975E+02  0.13107923704E+03  0.00000000000E+00 0. -1.
         21    1    1    2  504  503  0.72579044768E+02 -0.52139559795E+02  0.12253359500E+03  0.15165992661E+03  0.00000000000E+00 0. -1.
<mgrwt>
<rscale>  4 0.52236903E+03</rscale>
<asrwt>0</asrwt>
<pdfrwt beam="1">  1       21 0.47136125E-01 0.52236903E+03</pdfrwt>
<pdfrwt beam="2">  1       21 0.34254234E-01 0.52236903E+03</pdfrwt>
<totfact> 0.31794258E+04</totfact>
</mgrwt>
</event>
<event>
 5    0  0.2629946E-001  0.6576138E+03  0.7546771E-02  0.9792596E-01
         21   -1    0    0  504  501  0.00000000000E+00  0.00000000000E+00  0.76735183984E+02  0.76735183984E+02  0.00000000000E+00 0.  1.
         21   -1    0    0  501  502 -0.00000000000E+00 -0.00000000000E+00 -0.14089231124E+04  0.14089231124E+04  0.00000000000E+00 0.  1.
         25    1    1    2    0    0 -0.27158910692E+03 -0.23143408147E+02 -0.10298260325E+04  0.10725963442E+04  0.12500000000E+03 0.  0.
         21    1    1    2  503  502  0.20641881248E+02  0.99976225398E+01 -0.58759249688E+02  0.63076851077E+02  0.00000000000E+00 0.  1.
         21    1    1    2  504  503  0.25094722567E+03  0.13145785607E+02 -0.24360264617E+03  0.34998510107E+03  0.00000000000E+00 0.  1.
<mgrwt>
<rscale>  4 0.65761379E+03</rscale>
<asrwt>0</asrwt>
<pdfrwt beam="1">  1       21 0.11805413E-01 0.65761379E+03</pdfrwt>
<pdfrwt beam="2">  1       21 0.21675741E+00 0.65761379E+03</pdfrwt>
<totfact> 0.51028430E+03</totfact>
</mgrwt>
</event>
<event>
 5    0  0.2629946E-001  0.5329328E+03  0.7546771E-02  0.1005523E+00
         21   -1    0    0  502  501  0.00000000000E+00  0.00000000000E+00  0.91882995447E+02  0.91882995447E+02  0.00000000000E+00 0.  1.
         21   -1    0    0  504  502 -0.00000000000E+00 -0.00000000000E+00 -0.77276915702E+03  0.77276915702E+03  0.00000000000E+00 0.  1.
         25    1    1    2    0    0  0.10260556955E+03  0.20534487481E+03 -0.51371666044E+03  0.57638895524E+03  0.12500000000E+03 0.  0.
         21    1    1    2  503  501 -0.78917766013E+02 -0.19164373964E+03 -0.14355278955E+03  0.25211652092E+03  0.00000000000E+00 0.  1.
         21    1    1    2  504  503 -0.23687803541E+02 -0.13701135169E+02 -0.23616711581E+02  0.36146676299E+02  0.00000000000E+00 0.  1.
<mgrwt>
<rscale>  4 0.53293281E+03</rscale>
<asrwt>0</asrwt>
<pdfrwt beam="1">  1       21 0.14135846E-01 0.53293281E+03</pdfrwt>
<pdfrwt beam="2">  1       21 0.11888756E+00 0.53293281E+03</pdfrwt>
<totfact> 0.20819296E+04</totfact>
</mgrwt>
</event>
<event>
 5    0  0.2629946E-001  0.5749654E+03  0.7546771E-02  0.9958751E-01
         21   -1    0    0  504  501  0.00000000000E+00  0.00000000000E+00  0.78660778171E+02  0.78660778171E+02  0.00000000000E+00 0.  1.
         21   -1    0    0  501  502 -0.00000000000E+00 -0.00000000000E+00 -0.10506673378E+04  0.10506673378E+04  0.00000000000E+00 0.  1.
         25    1    1    2    0    0 -0.15186309512E+03  0.20910324317E+03 -0.66725372744E+03  0.72638770828E+03  0.12500000000E+03 0.  0.
         21    1    1    2  503  502  0.15247695601E+03 -0.18841032982E+03 -0.28712134531E+03  0.37574770981E+03  0.00000000000E+00 0.  1.
         21    1    1    2  504  503 -0.61386088450E+00 -0.20692913351E+02 -0.17631486885E+02  0.27192697879E+02  0.00000000000E+00 0.  1.
<mgrwt>
<rscale>  4 0.57496543E+03</rscale>
<asrwt>0</asrwt>
<pdfrwt beam="1">  1       21 0.12101658E-01 0.57496543E+03</pdfrwt>
<pdfrwt beam="2">  1       21 0.16164113E+00 0.57496543E+03</pdfrwt>
<totfact> 0.12076916E+04</totfact>
</mgrwt>
</event>
<event>
 5    0  0.2629946E-001  0.4719095E+03  0.7546771E-02  0.1021383E+00
         21   -1    0    0  504  501  0.00000000000E+00  0.00000000000E+00  0.39930672181E+02  0.39930672181E+02  0.00000000000E+00 0.  1.
         21   -1    0    0  501  502 -0.00000000000E+00 -0.00000000000E+00 -0.13942829255E+04  0.13942829255E+04  0.00000000000E+00 0.  1.
         25    1    1    2    0    0  0.72433705842E+02 -0.20027855061E+03 -0.58080908315E+03  0.63112782433E+03  0.12500000000E+03 0.  0.
         21    1    1    2  503  502 -0.55003927164E+02  0.17420404565E+03 -0.61908939044E+03  0.64547978658E+03  0.00000000000E+00 0.  1.
         21    1    1    2  504  503 -0.17429778679E+02  0.26074504960E+02 -0.15445377974E+03  0.15760598678E+03  0.00000000000E+00 0.  1.
<mgrwt>
<rscale>  4 0.47190954E+03</rscale>
<asrwt>0</asrwt>
<pdfrwt beam="1">  1       21 0.61431810E-02 0.47190954E+03</pdfrwt>
<pdfrwt beam="2">  1       21 0.21450504E+00 0.47190954E+03</pdfrwt>
<totfact> 0.17916513E+04</totfact>
</mgrwt>
</event>
<event>
 5    0  0.2629946E-001  0.4679113E+03  0.7546771E-02  0.1022511E+00
         21   -1    0    0  504  501  0.00000000000E+00  0.00000000000E+00  0.60197783817E+03  0.60197783817E+03  0.00000000000E+00 0. -1.
         21   -1    0    0  501  502 -0.00000000000E+00 -0.00000000000E+00 -0.90925673835E+02  0.90925673835E+02  0.00000000000E+00 0. -1.
         25    1    1    2    0    0 -0.54271252706E+02 -0.20504880986E+03  0.23776951083E+03  0.34227141799E+03  0.12500000000E+03 0.  0.
         21    1    1    2  503  502  0.40786368452E+02  0.18318113039E+03  0.20628223448E+03  0.27887490859E+03  0.00000000000E+00 0. -1.
         21    1    1    2  504  503  0.13484884254E+02  0.21867679470E+02  0.67000419031E+02  0.71757185418E+02  0.00000000000E+00 0. -1.
<mgrwt>
<rscale>  4 0.46791128E+03</rscale>
<asrwt>0</asrwt>
<pdfrwt beam="1">  1       21 0.92611972E-01 0.46791128E+03</pdfrwt>
<pdfrwt beam="2">  1       21 0.13988566E-01 0.46791128E+03</pdfrwt>
<totfact> 0.39847632E+04</totfact>
</mgrwt>
</event>
<event>
 5    0  0.2629946E-001  0.5596296E+03  0.7546771E-02  0.9992893E-01
         21   -1    0    0  502  501  0.00000000000E+00  0.00000000000E+00  0.64286037298E+03  0.64286037298E+03  0.00000000000E+00 0.  1.
         21   -1    0    0  504  502 -0.00000000000E+00 -0.00000000000E+00 -0.12179366100E+03  0.12179366100E+03  0.00000000000E+00 0.  1.
         25    1    1    2    0    0  0.19409239720E+03 -0.12429616228E+03  0.32464076307E+03  0.41729847790E+03  0.12500000000E+03 0.  0.
         21    1    1    2  503  501 -0.21421755790E+02  0.62671874079E+02  0.14106844390E+03  0.15584274538E+03  0.00000000000E+00 0.  1.
         21    1    1    2  504  503 -0.17267064141E+03  0.61624288196E+02  0.55357505002E+02  0.19151281070E+03  0.00000000000E+00 0.  1.
<mgrwt>
<rscale>  4 0.55962959E+03</rscale>
<asrwt>0</asrwt>
<pdfrwt beam="1">  1       21 0.98901594E-01 0.55962959E+03</pdfrwt>
<pdfrwt beam="2">  1       21 0.18737487E-01 0.55962959E+03</pdfrwt>
<totfact> 0.19285818E+04</totfact>
</mgrwt>
</event>
<event>
 5    0  0.2629946E-001  0.6039978E+03  0.7546771E-02  0.9897147E-01
         21   -1    0    0  502  501  0.00000000000E+00  0.00000000000E+00  0.11794206966E+04  0.11794206966E+04  0.00000000000E+00 0. -1.
         21   -1    0    0  504  502 -0.00000000000E+00 -0.00000000000E+00 -0.77328913511E+02  0.77328913511E+02  0.00000000000E+00 0. -1.
         25    1    1    2    0    0  0.75730018577E+02 -0.27438032141E+03  0.49534680624E+03  0.58481882232E+03  0.12500000000E+03 0.  0.
         21    1    1    2  503  501 -0.75251395441E+02  0.21342624296E+03  0.50378489955E+03  0.55227960193E+03  0.00000000000E+00 0. -1.
         21    1    1    2  504  503 -0.47862313598E+00  0.60954078448E+02  0.10296007731E+03  0.11965118587E+03  0.00000000000E+00 0.  1.
<mgrwt>
<rscale>  4 0.60399775E+03</rscale>
<asrwt>0</asrwt>
<pdfrwt beam="1">  1       21 0.18144933E+00 0.60399775E+03</pdfrwt>
<pdfrwt beam="2">  1       21 0.11896757E-01 0.60399775E+03</pdfrwt>
<totfact> 0.88581102E+03</totfact>
</mgrwt>
</event>
<event>
 5    0  0.2629946E-001  0.5901107E+03  0.7546771E-02  0.9926138E-01
         21   -1    0    0  502  501  0.00000000000E+00  0.00000000000E+00  0.18358507293E+03  0.18358507293E+03  0.00000000000E+00 0.  1.
         21   -1    0    0  504  502 -0.00000000000E+00 -0.00000000000E+00 -0.47420882853E+03  0.47420882853E+03  0.00000000000E+00 0.  1.
         25    1    1    2    0    0 -0.97331493055E+01 -0.20858674239E+03 -0.33080512442E+03  0.41068259476E+03  0.12500000000E+03 0.  0.
         21    1    1    2  503  501 -0.30364419734E+02  0.16671649068E+03  0.68266706545E+02  0.18269299240E+03  0.00000000000E+00 0.  1.
         21    1    1    2  504  503  0.40097569039E+02  0.41870251715E+02 -0.28085337727E+02  0.64418314296E+02  0.00000000000E+00 0.  1.
<mgrwt>
<rscale>  4 0.59011071E+03</rscale>
<asrwt>0</asrwt>
<pdfrwt beam="1">  1       21 0.28243858E-01 0.59011071E+03</pdfrwt>
<pdfrwt beam="2">  1       21 0.72955203E-01 0.59011071E+03</pdfrwt>
<totfact> 0.17697825E+04</totfact>
</mgrwt>
</event>
<event>
 5    0  0.2629946E-001  0.5557369E+03  0.7546771E-02  0.1000175E+00
         21   -1    0    0  502  501  0.00000000000E+00  0.00000000000E+00  0.42013849143E+03  0.42013849143E+03  0.00000000000E+00 0.  1.
         21   -1    0    0  504  502 -0.00000000000E+00 -0.00000000000E+00 -0.18377481558E+03  0.18377481558E+03  0.00000000000E+00 0.  1.
         25    1    1    2    0    0 -0.22771123051E+03 -0.96586858546E+02  0.17458732847E+03  0.32754718897E+03  0.12500000000E+03 0.  0.
         21    1    1    2  503  501  0.66065021891E+02  0.23894473258E+02  0.69683050733E+02  0.98950798528E+02  0.00000000000E+00 0.  1.
         21    1    1    2  504  503  0.16164620861E+03  0.72692385288E+02 -0.79067033535E+01  0.17741531951E+03  0.00000000000E+00 0.  1.
<mgrwt>
<rscale>  4 0.55573689E+03</rscale>
<asrwt>0</asrwt>
<pdfrwt beam="1">  1       21 0.64636691E-01 0.55573689E+03</pdfrwt>
<pdfrwt beam="2">  1       21 0.28273049E-01 0.55573689E+03</pdfrwt>
<totfact> 0.23373014E+04</totfact>
</mgrwt>
</event>
<event>
 5    0  0.2629946E-001  0.7426264E+03  0.7546771E-02  0.9646990E-01
         21   -1    0    0  502  501  0.00000000000E+00  0.00000000000E+00  0.76842022731E+02  0.76842022731E+02  0.00000000000E+00 0. -1.
         21   -1    0    0  504  502 -0.00000000000E+00 -0.00000000000E+00 -0.17942462186E+04  0.17942462186E+04  0.00000000000E+00 0. -1.
         25    1    1    2    0    0 -0.16595046733E+03 -0.30694530674E+03 -0.10447255521E+04  0.11085267061E+04  0.12500000000E+03 0.  0.
         21    1    1    2  503  501  0.17208248655E+03  0.27647820050E+03 -0.63568260206E+03  0.71424431961E+03  0.00000000000E+00 0. -1.
         21    1    1    2  504  503 -0.61320192200E+01  0.30467106246E+02 -0.36996041686E+02  0.48317215598E+02  0.00000000000E+00 0. -1.
<mgrwt>
<rscale>  4 0.74262644E+03</rscale>
<asrwt>0</asrwt>
<pdfrwt beam="1">  1       21 0.11821850E-01 0.74262644E+03</pdfrwt>
<pdfrwt beam="2">  1       21 0.27603786E+00 0.74262644E+03</pdfrwt>
<totfact> 0.21021342E+03</totfact>
</mgrwt>
</event>
<event>
 5    0  0.2629946E-001  0.6779641E+03  0.7546771E-02  0.9755677E-01
         21   -1    0    0  502  501  0.00000000000E+00  0.00000000000E+00  0.24837102302E+03  0.24837102302E+03  0.00000000000E+00 0. -1.
         21   -1    0    0  504  502 -0.00000000000E+00 -0.00000000000E+00 -0.46264988433E+03  0.46264988433E+03  0.00000000000E+00 0. -1.
         25    1    1    2    0    0  0.14594608582E+02 -0.27516348360E+03  0.55088038649E+02  0.30755103204E+03  0.12500000000E+03 0.  0.
         21    1    1    2  503  501  0.69992536072E+01  0.57424353717E+02 -0.18671626594E+01  0.57879463087E+02  0.00000000000E+00 0. -1.
         21    1    1    2  504  503 -0.21593862189E+02  0.21773912989E+03 -0.26749973730E+03  0.34559041223E+03  0.00000000000E+00 0. -1.
<mgrwt>
<rscale>  4 0.67796408E+03</rscale>
<asrwt>0</asrwt>
<pdfrwt beam="1">  1       21 0.38210927E-01 0.67796408E+03</pdfrwt>
<pdfrwt beam="2">  1       21 0.71176905E-01 0.67796408E+03</pdfrwt>
<totfact> 0.99858556E+03</totfact>
</mgrwt>
</event>
<event>
 5    0  0.2629946E-001  0.5516197E+03  0.7546771E-02  0.1001120E+00
         21   -1    0    0  502  501  0.00000000000E+00  0.00000000000E+00  0.11062745184E+03  0.11062745184E+03  0.00000000000E+00 0. -1.
         21   -1    0    0  504  502 -0.00000000000E+00 -0.00000000000E+00 -0.68763280342E+03  0.68763280342E+03  0.00000000000E+00 0. -1.
         25    1    1    2    0    0  0.79738086812E+02 -0.23428514037E+03 -0.29735816778E+03  0.40656434845E+03  0.12500000000E+03 0.  0.
         21    1    1    2  503  501 -0.12377401899E+01  0.17165800012E+03 -0.15203105488E+03  0.22930643832E+03  0.00000000000E+00 0. -1.
         21    1    1    2  504  503 -0.78500346622E+02  0.62627140253E+02 -0.12761612892E+03  0.16238946849E+03  0.00000000000E+00 0. -1.
<mgrwt>
<rscale>  4 0.55161967E+03</rscale>
<asrwt>0</asrwt>
<pdfrwt beam="1">  1       21 0.17019608E-01 0.55161967E+03</pdfrwt>
<pdfrwt beam="2">  1       21 0.10578966E+00 0.55161967E+03</pdfrwt>
<totfact> 0.19634364E+04</totfact>
</mgrwt>
</event>
<event>
 5    0  0.2629946E-001  0.5769725E+03  0.7546771E-02  0.9954367E-01
         21   -1    0    0  504  501  0.00000000000E+00  0.00000000000E+00  0.63308681045E+03  0.63308681045E+03  0.00000000000E+00 0. -1.
         21   -1    0    0  501  502 -0.00000000000E+00 -0.00000000000E+00 -0.13145798918E+03  0.13145798918E+03  0.00000000000E+00 0. -1.
         25    1    1    2    0    0  0.48728696018E+02  0.20602609840E+03  0.91540369296E+02  0.26234686628E+03  0.12500000000E+03 0.  0.
         21    1    1    2  503  502 -0.50078145226E+02 -0.44885460626E+02  0.64231389972E+01  0.67555768957E+02  0.00000000000E+00 0. -1.
         21    1    1    2  504  503  0.13494492080E+01 -0.16114063778E+03  0.40366531298E+03  0.43464216438E+03  0.00000000000E+00 0. -1.
<mgrwt>
<rscale>  4 0.57697251E+03</rscale>
<asrwt>0</asrwt>
<pdfrwt beam="1">  1       21 0.97397969E-01 0.57697251E+03</pdfrwt>
<pdfrwt beam="2">  1       21 0.20224306E-01 0.57697251E+03</pdfrwt>
<totfact> 0.17239262E+04</totfact>
</mgrwt>
</event>
<event>
 5    0  0.2629946E-001  0.5264910E+03  0.7546771E-02  0.1007087E+00
         21   -1    0    0  504  501  0.00000000000E+00  0.00000000000E+00  0.15271740117E+03  0.15271740117E+03  0.00000000000E+00 0. -1.
         21   -1    0    0  501  502 -0.00000000000E+00 -0.00000000000E+00 -0.45376753746E+03  0.45376753746E+03  0.00000000000E+00 0. -1.
         25    1    1    2    0    0 -0.28050791202E+01 -0.21940860643E+03 -0.52764635959E+02  0.25798665054E+03  0.12500000000E+03 0.  0.
         21    1    1    2  503  502 -0.20100473797E+02 -0.26477670681E+01 -0.12585539748E+02  0.23862848280E+02  0.00000000000E+00 0. -1.
         21    1    1    2  504  503  0.22905552917E+02  0.22205637350E+03 -0.23569996058E+03  0.32463543982E+03  0.00000000000E+00 0. -1.
<mgrwt>
<rscale>  4 0.52649102E+03</rscale>
<asrwt>0</asrwt>
<pdfrwt beam="1">  1       21 0.23494985E-01 0.52649102E+03</pdfrwt>
<pdfrwt beam="2">  1       21 0.69810390E-01 0.52649102E+03</pdfrwt>
<totfact> 0.28434452E+04</totfact>
</mgrwt>
</event>
<event>
 5    0  0.2629946E-001  0.5846531E+03  0.7546771E-02  0.9937768E-01
         21   -1    0    0  504  501  0.00000000000E+00  0.00000000000E+00  0.69442089002E+02  0.69442089002E+02  0.00000000000E+00 0. -1.
         21   -1    0    0  501  502 -0.00000000000E+00 -0.00000000000E+00 -0.12305911697E+04  0.12305911697E+04  0.00000000000E+00 0. -1.
         25    1    1    2    0    0 -0.13547319456E+03  0.22743764926E+03 -0.50173936158E+03  0.58090296754E+03  0.12500000000E+03 0.  0.
         21    1    1    2  503  502  0.81372325340E+02 -0.91456511634E+02 -0.42940361386E+03  0.44651227581E+03  0.00000000000E+00 0. -1.
         21    1    1    2  504  503  0.54100869222E+02 -0.13598113762E+03 -0.23000610529E+03  0.27261801538E+03  0.00000000000E+00 0. -1.
<mgrwt>
<rscale>  4 0.58465313E+03</rscale>
<asrwt>0</asrwt>
<pdfrwt beam="1">  1       21 0.10683399E-01 0.58465313E+03</pdfrwt>
<pdfrwt beam="2">  1       21 0.18932170E+00 0.58465313E+03</pdfrwt>
<totfact> 0.95407125E+03</totfact>
</mgrwt>
</event>
<event>
 5    0  0.2629946E-001  0.5865031E+03  0.7546771E-02  0.9933810E-01
         21   -1    0    0  504  501  0.00000000000E+00  0.00000000000E+00  0.24658013619E+03  0.24658013619E+03  0.00000000000E+00 0. -1.
         21   -1    0    0  501  502 -0.00000000000E+00 -0.00000000000E+00 -0.34875668678E+03  0.34875668678E+03  0.00000000000E+00 0. -1.
         25    1    1    2    0    0  0.92636596050E+01  0.26714277284E+03 -0.18363381631E+02  0.29565738661E+03  0.12500000000E+03 0.  0.
         21    1    1    2  503  502 -0.56179803831E+02 -0.14207828349E+03 -0.30153402857E+02  0.15572937007E+03  0.00000000000E+00 0. -1.
         21    1    1    2  504  503  0.46916144226E+02 -0.12506448935E+03 -0.53659766101E+02  0.14395006628E+03  0.00000000000E+00 0. -1.
<mgrwt>
<rscale>  4 0.58650310E+03</rscale>
<asrwt>0</asrwt>
<pdfrwt beam="1">  1       21 0.37935406E-01 0.58650310E+03</pdfrwt>
<pdfrwt beam="2">  1       21 0.53654875E-01 0.58650310E+03</pdfrwt>
<totfact> 0.19319374E+04</totfact>
</mgrwt>
</event>
<event>
 5    0  0.2629946E-001  0.4783441E+03  0.7546771E-02  0.1019591E+00
         21   -1    0    0  502  501  0.00000000000E+00  0.00000000000E+00  0.99257760829E+02  0.99257760829E+02  0.00000000000E+00 0.  1.
         21   -1    0    0  504  502 -0.00000000000E+00 -0.00000000000E+00 -0.57631020949E+03  0.57631020949E+03  0.00000000000E+00 0.  1.
         25    1    1    2    0    0 -0.13676944909E+03 -0.16239635940E+03 -0.28002007560E+03  0.37298083394E+03  0.12500000000E+03 0.  0.
         21    1    1    2  503  501  0.24608987777E+02 -0.72222969532E+01 -0.15290029749E+02  0.29858815490E+02  0.00000000000E+00 0.  1.
         21    1    1    2  504  503  0.11216046131E+03  0.16961865635E+03 -0.18174234331E+03  0.27272832089E+03  0.00000000000E+00 0.  1.
<mgrwt>
<rscale>  4 0.47834406E+03</rscale>
<asrwt>0</asrwt>
<pdfrwt beam="1">  1       21 0.15270425E-01 0.47834406E+03</pdfrwt>
<pdfrwt beam="2">  1       21 0.88663108E-01 0.47834406E+03</pdfrwt>
<totfact> 0.37476710E+04</totfact>
</mgrwt>
</event>
<event>
 5    0  0.2629946E-001  0.6278607E+03  0.7546771E-02  0.9849232E-01
         21   -1    0    0  502  501  0.00000000000E+00  0.00000000000E+00  0.29475601392E+03  0.29475601392E+03  0.00000000000E+00 0. -1.
         21   -1    0    0  504  502 -0.00000000000E+00 -0.00000000000E+00 -0.33435196871E+03  0.33435196871E+03  0.00000000000E+00 0. -1.
         25    1    1    2    0    0  0.26977592805E+03 -0.26502073440E+02 -0.37277104583E+02  0.30082552049E+03  0.12500000000E+03 0.  0.
         21    1    1    2  503  501 -0.18858884667E+03  0.99697446750E+02  0.27223058682E+02  0.21504982888E+03  0.00000000000E+00 0. -1.
         21    1    1    2  504  503 -0.81187081375E+02 -0.73195373310E+02 -0.29541908889E+02  0.11323263327E+03  0.00000000000E+00 0. -1.
<mgrwt>
<rscale>  4 0.62786066E+03</rscale>
<asrwt>0</asrwt>
<pdfrwt beam="1">  1       21 0.45347079E-01 0.62786066E+03</pdfrwt>
<pdfrwt beam="2">  1       21 0.51438764E-01 0.62786066E+03</pdfrwt>
<totfact> 0.14470757E+04</totfact>
</mgrwt>
</event>
<event>
 5    0  0.2629946E-001  0.5852668E+03  0.7546771E-02  0.9936453E-01
         21   -1    0    0  502  501  0.00000000000E+00  0.00000000000E+00  0.56006684358E+03  0.56006684358E+03  0.00000000000E+00 0.  1.
         21   -1    0    0  504  502 -0.00000000000E+00 -0.00000000000E+00 -0.15290017035E+03  0.15290017035E+03  0.00000000000E+00 0.  1.
         25    1    1    2    0    0 -0.13101049825E+03 -0.16649941305E+03  0.39501690504E+03  0.46534842910E+03  0.12500000000E+03 0.  0.
         21    1    1    2  503  501 -0.14611163219E+02  0.66753751496E+02  0.19168476878E+02  0.70971684039E+02  0.00000000000E+00 0.  1.
         21    1    1    2  504  503  0.14562166147E+03  0.99745661549E+02 -0.70187086943E+01  0.17664690079E+03  0.00000000000E+00 0.  1.
<mgrwt>
<rscale>  4 0.58526683E+03</rscale>
<asrwt>0</asrwt>
<pdfrwt beam="1">  1       21 0.86164129E-01 0.58526683E+03</pdfrwt>
<pdfrwt beam="2">  1       21 0.23523103E-01 0.58526683E+03</pdfrwt>
<totfact> 0.17239610E+04</totfact>
</mgrwt>
</event>
<event>
 5    0  0.2629946E-001  0.6995417E+03  0.7546771E-02  0.9718016E-01
         21   -1    0    0  504  501  0.00000000000E+00  0.00000000000E+00  0.51176555337E+03  0.51176555337E+03  0.00000000000E+00 0.  1.
         21   -1    0    0  501  502 -0.00000000000E+00 -0.00000000000E+00 -0.23905409114E+03  0.23905409114E+03  0.00000000000E+00 0.  1.
         25    1    1    2    0    0 -0.17950561333E+03  0.16689828560E+03  0.80177708269E+02  0.28658466089E+03  0.12500000000E+03 0.  0.
         21    1    1    2  503  502  0.14280704710E+03  0.77605199329E+02  0.22298599095E+02  0.16405379357E+03  0.00000000000E+00 0.  1.
         21    1    1    2  504  503  0.36698566232E+02 -0.24450348493E+03  0.17023515487E+03  0.30018119005E+03  0.00000000000E+00 0.  1.
<mgrwt>
<rscale>  4 0.69954170E+03</rscale>
<asrwt>0</asrwt>
<pdfrwt beam="1">  1       21 0.78733162E-01 0.69954170E+03</pdfrwt>
<pdfrwt beam="2">  1       21 0.36777553E-01 0.69954170E+03</pdfrwt>
<totfact> 0.85286707E+03</totfact>
</mgrwt>
</event>
<event>
 5    0  0.2629946E-001  0.5557892E+03  0.7546771E-02  0.1000163E+00
         21   -1    0    0  504  501  0.00000000000E+00  0.00000000000E+00  0.29674127385E+03  0.29674127385E+03  0.00000000000E+00 0.  1.
         21   -1    0    0  501  502 -0.00000000000E+00 -0.00000000000E+00 -0.26024492540E+03  0.26024492540E+03  0.00000000000E+00 0.  1.
         25    1    1    2    0    0  0.15112147059E+02 -0.22225385196E+03  0.12150058867E+03  0.28286488779E+03  0.12500000000E+03 0.  0.
         21    1    1    2  503  502 -0.97474255208E+01  0.36945382951E+02 -0.80012773842E+02  0.88668019058E+02  0.00000000000E+00 0. -1.
         21    1    1    2  504  503 -0.53647215378E+01  0.18530846901E+03 -0.49914663822E+01  0.18545329239E+03  0.00000000000E+00 0.  1.
<mgrwt>
<rscale>  4 0.55578921E+03</rscale>
<asrwt>0</asrwt>
<pdfrwt beam="1">  1       21 0.45652503E-01 0.55578921E+03</pdfrwt>
<pdfrwt beam="2">  1       21 0.40037681E-01 0.55578921E+03</pdfrwt>
<totfact> 0.24553588E+04</totfact>
</mgrwt>
</event>
<event>
 5    0  0.2629946E-001  0.4715322E+03  0.7546771E-02  0.1021489E+00
         21   -1    0    0  502  501  0.00000000000E+00  0.00000000000E+00  0.39107006855E+03  0.39107006855E+03  0.00000000000E+00 0. -1.
         21   -1    0    0  504  502 -0.00000000000E+00 -0.00000000000E+00 -0.14213735556E+03  0.14213735556E+03  0.00000000000E+00 0. -1.
         25    1    1    2    0    0 -0.19331422013E+03  0.57276507725E+02  0.22183736457E+03  0.32478885813E+03  0.12500000000E+03 0.  0.
         21    1    1    2  503  501  0.54366726272E+02 -0.12496532249E+02  0.28029608345E+02  0.62430466823E+02  0.00000000000E+00 0. -1.
         21    1    1    2  504  503  0.13894749386E+03 -0.44779975475E+02 -0.93425992368E+00  0.14598809916E+03  0.00000000000E+00 0. -1.
<mgrwt>
<rscale>  4 0.47153225E+03</rscale>
<asrwt>0</asrwt>
<pdfrwt beam="1">  1       21 0.60164625E-01 0.47153225E+03</pdfrwt>
<pdfrwt beam="2">  1       21 0.21867286E-01 0.47153225E+03</pdfrwt>
<totfact> 0.46008862E+04</totfact>
</mgrwt>
</event>
<event>
 5    0  0.2629946E-001  0.5652866E+03  0.7546771E-02  0.9980163E-01
         21   -1    0    0  504  501  0.00000000000E+00  0.00000000000E+00  0.15354443668E+03  0.15354443668E+03  0.00000000000E+00 0.  1.
         21   -1    0    0  501  502 -0.00000000000E+00 -0.00000000000E+00 -0.52028747496E+03  0.52028747496E+03  0.00000000000E+00 0.  1.
         25    1    1    2    0    0 -0.24672939486E+03  0.73197641330E+02 -0.11853663579E+03  0.30969214232E+03  0.12500000000E+03 0.  0.
         21    1    1    2  503  502  0.22722080647E+03 -0.44284714254E+02 -0.21290522929E+03  0.31451401792E+03  0.00000000000E+00 0.  1.
         21    1    1    2  504  503  0.19508588399E+02 -0.28912927075E+02 -0.35301173192E+02  0.49625751401E+02  0.00000000000E+00 0. -1.
<mgrwt>
<rscale>  4 0.56528664E+03</rscale>
<asrwt>0</asrwt>
<pdfrwt beam="1">  1       21 0.23622221E-01 0.56528664E+03</pdfrwt>
<pdfrwt beam="2">  1       21 0.80044227E-01 0.56528664E+03</pdfrwt>
<totfact> 0.20404388E+04</totfact>
</mgrwt>
</event>
<event>
 5    0  0.2629946E-001  0.6606013E+03  0.7546771E-02  0.9787087E-01
         21   -1    0    0  504  501  0.00000000000E+00  0.00000000000E+00  0.46619104838E+03  0.46619104838E+03  0.00000000000E+00 0.  1.
         21   -1    0    0  501  502 -0.00000000000E+00 -0.00000000000E+00 -0.23402107270E+03  0.23402107270E+03  0.00000000000E+00 0.  1.
         25    1    1    2    0    0 -0.21937725944E+03 -0.15677236306E+03  0.11915751232E+03  0.32019910762E+03  0.12500000000E+03 0.  0.
         21    1    1    2  503  502  0.23254704145E+03  0.77187287172E+02  0.48350761475E+01  0.24507015679E+03  0.00000000000E+00 0.  1.
         21    1    1    2  504  503 -0.13169782007E+02  0.79585075886E+02  0.10817738721E+03  0.13494285667E+03  0.00000000000E+00 0.  1.
<mgrwt>
<rscale>  4 0.66060133E+03</rscale>
<asrwt>0</asrwt>
<pdfrwt beam="1">  1       21 0.71721699E-01 0.66060133E+03</pdfrwt>
<pdfrwt beam="2">  1       21 0.36003242E-01 0.66060133E+03</pdfrwt>
<totfact> 0.11127533E+04</totfact>
</mgrwt>
</event>
<event>
 5    0  0.2629946E-001  0.5248861E+03  0.7546771E-02  0.1007480E+00
         21   -1    0    0  504  501  0.00000000000E+00  0.00000000000E+00  0.13146342487E+04  0.13146342487E+04  0.00000000000E+00 0. -1.
         21   -1    0    0  501  502 -0.00000000000E+00 -0.00000000000E+00 -0.52392027202E+02  0.52392027202E+02  0.00000000000E+00 0. -1.
         25    1    1    2    0    0 -0.12508355924E+03  0.16391890730E+03  0.34839830730E+03  0.42369999468E+03  0.12500000000E+03 0.  0.
         21    1    1    2  503  502  0.96259586209E+02 -0.14934584473E+03  0.54857435669E+03  0.57663152368E+03  0.00000000000E+00 0. -1.
         21    1    1    2  504  503  0.28823973031E+02 -0.14573062568E+02  0.36526955750E+03  0.36669475755E+03  0.00000000000E+00 0. -1.
<mgrwt>
<rscale>  4 0.52488610E+03</rscale>
<asrwt>0</asrwt>
<pdfrwt beam="1">  1       21 0.20225140E+00 0.52488610E+03</pdfrwt>
<pdfrwt beam="2">  1       21 0.80603129E-02 0.52488610E+03</pdfrwt>
<totfact> 0.13146483E+04</totfact>
</mgrwt>
</event>
<event>
 5    0  0.2629946E-001  0.6245216E+03  0.7546771E-02  0.9855798E-01
         21   -1    0    0  502  501  0.00000000000E+00  0.00000000000E+00  0.36935119284E+04  0.36935119284E+04  0.00000000000E+00 0. -1.
         21   -1    0    0  504  502 -0.00000000000E+00 -0.00000000000E+00 -0.26399482253E+02  0.26399482253E+02  0.00000000000E+00 0. -1.
         25    1    1    2    0    0  0.21578924365E+03  0.67552343187E+02  0.30110861300E+04  0.30221503932E+04  0.12500000000E+03 0.  0.
         21    1    1    2  503  501 -0.15907288398E+03 -0.55612499875E+02  0.37958661750E+03  0.41531064608E+03  0.00000000000E+00 0. -1.
         21    1    1    2  504  503 -0.56716359670E+02 -0.11939843312E+02  0.27643969867E+03  0.28245037142E+03  0.00000000000E+00 0. -1.
<mgrwt>
<rscale>  4 0.62452159E+03</rscale>
<asrwt>0</asrwt>
<pdfrwt beam="1">  1       21 0.56823219E+00 0.62452159E+03</pdfrwt>
<pdfrwt beam="2">  1       21 0.40614617E-02 0.62452159E+03</pdfrwt>
<totfact> 0.15970975E+02</totfact>
</mgrwt>
</event>
