<event>
 5    0  0.1200001E+000  0.3033554E+03  0.7546771E-02  0.1083575E+00
         21   -1    0    0  503  501  0.00000000000E+00  0.00000000000E+00  0.17214112572E+04  0.17214112572E+04  0.00000000000E+00 0.  1.
         21   -1    0    0  501  502 -0.00000000000E+00 -0.00000000000E+00 -0.64785687873E+02  0.64785687873E+02  0.00000000000E+00 0.  1.
         25    1    1    2    0    0  0.26839471635E+03 -0.33169197859E+02  0.10368590503E+04  0.10788130559E+04  0.12500000000E+03 0.  0.
         21    1    1    2  503  504  0.47578832663E+01 -0.24952905967E+02  0.20982514529E+03  0.21135722501E+03  0.00000000000E+00 0.  1.
         21    1    1    2  504  502 -0.27315259961E+03  0.58122103826E+02  0.40994137373E+03  0.49602666412E+03  0.00000000000E+00 0.  1.
<mgrwt>
<rscale>  4 0.30335543E+03</rscale>
<asrwt>0</asrwt>
<pdfrwt beam="1">  1       21 0.26483247E+00 0.30335543E+03</pdfrwt>
<pdfrwt beam="2">  1       21 0.99670302E-02 0.30335543E+03</pdfrwt>
<totfact> 0.40373499E+03</totfact>
</mgrwt>
</event>
<event>
 5    0  0.1200001E+000  0.2487031E+03  0.7546771E-02  0.1114127E+00
         21   -1    0    0  503  501  0.00000000000E+00  0.00000000000E+00  0.26473637506E+03  0.26473637506E+03  0.00000000000E+00 0. -1.
         21   -1    0    0  501  502 -0.00000000000E+00 -0.00000000000E+00 -0.54254817587E+03  0.54254817587E+03  0.00000000000E+00 0. -1.
         25    1    1    2    0    0 -0.19270072276E+03  0.12179255444E+03 -0.26317010154E+03  0.36993309830E+03  0.12500000000E+03 0.  0.
         21    1    1    2  503  504  0.47490600363E+02  0.24298727522E+02  0.15914698886E+03  0.16784978208E+03  0.00000000000E+00 0. -1.
         21    1    1    2  504  502  0.14521012239E+03 -0.14609128196E+03 -0.17378868812E+03  0.26950167055E+03  0.00000000000E+00 0. -1.
<mgrwt>
<rscale>  4 0.24870307E+03</rscale>
<asrwt>0</asrwt>
<pdfrwt beam="1">  1       21 0.40728673E-01 0.24870307E+03</pdfrwt>
<pdfrwt beam="2">  1       21 0.83468950E-01 0.24870307E+03</pdfrwt>
<totfact> 0.69863248E+03</totfact>
</mgrwt>
</event>
<event>
 5    0  0.1200001E+000  0.2765911E+03  0.7546771E-02  0.1097565E+00
         21   -1    0    0  502  501  0.00000000000E+00  0.00000000000E+00  0.50123259874E+03  0.50123259874E+03  0.00000000000E+00 0. -1.
         21   -1    0    0  503  502 -0.00000000000E+00 -0.00000000000E+00 -0.40039189097E+03  0.40039189097E+03  0.00000000000E+00 0. -1.
         25    1    1    2    0    0 -0.16903403708E+03 -0.23072085882E+03 -0.27216725430E+03  0.41413118054E+03  0.12500000000E+03 0.  0.
         21    1    1    2  503  504  0.26606140451E+02  0.34323692348E+02  0.10883195016E+01  0.43441765681E+02  0.00000000000E+00 0. -1.
         21    1    1    2  504  501  0.14242789663E+03  0.19639716648E+03  0.37191964257E+03  0.44405154348E+03  0.00000000000E+00 0. -1.
<mgrwt>
<rscale>  4 0.27659115E+03</rscale>
<asrwt>0</asrwt>
<pdfrwt beam="1">  1       21 0.77112707E-01 0.27659115E+03</pdfrwt>
<pdfrwt beam="2">  1       21 0.61598753E-01 0.27659115E+03</pdfrwt>
<totfact> 0.34481686E+03</totfact>
</mgrwt>
</event>
<event>
 5    0  0.1200001E+000  0.3042608E+03  0.7546771E-02  0.1083130E+00
         21   -1    0    0  503  501  0.00000000000E+00  0.00000000000E+00  0.50447253844E+03  0.50447253844E+03  0.00000000000E+00 0. -1.
         21   -1    0    0  504  502 -0.00000000000E+00 -0.00000000000E+00 -0.62006135742E+03  0.62006135742E+03  0.00000000000E+00 0.  1.
         25    1    1    2    0    0 -0.18746333246E+02 -0.27030099565E+03 -0.48149463865E+03  0.56645930155E+03  0.12500000000E+03 0.  0.
         21    1    1    2  503  502  0.73128086169E+02  0.31891211681E+03  0.21800450252E+03  0.39316487426E+03  0.00000000000E+00 0. -1.
         21    1    1    2  504  501 -0.54381752923E+02 -0.48611121154E+02  0.14790131715E+03  0.16490972005E+03  0.00000000000E+00 0.  1.
<mgrwt>
<rscale>  4 0.30426075E+03</rscale>
<asrwt>0</asrwt>
<pdfrwt beam="1">  1       21 0.77611160E-01 0.30426075E+03</pdfrwt>
<pdfrwt beam="2">  1       21 0.95394054E-01 0.30426075E+03</pdfrwt>
<totfact> 0.12387506E+03</totfact>
</mgrwt>
</event>
<event>
 5    0  0.1200001E+000  0.2827976E+03  0.7546771E-02  0.1094171E+00
         21   -1    0    0  503  501  0.00000000000E+00  0.00000000000E+00  0.21593467079E+04  0.21593467079E+04  0.00000000000E+00 0. -1.
         21   -1    0    0  504  502 -0.00000000000E+00 -0.00000000000E+00 -0.43908261160E+03  0.43908261160E+03  0.00000000000E+00 0. -1.
         25    1    1    2    0    0  0.24738044019E+03  0.51397726284E+02 -0.30496123780E+03  0.41528925464E+03  0.12500000000E+03 0.  0.
         21    1    1    2  503  502 -0.26013817373E+03 -0.10747201174E+02  0.13657078922E+03  0.29400502076E+03  0.00000000000E+00 0. -1.
         21    1    1    2  504  501  0.12757733538E+02 -0.40650525109E+02  0.18886545449E+04  0.18891350441E+04  0.00000000000E+00 0. -1.
<mgrwt>
<rscale>  4 0.28279757E+03</rscale>
<asrwt>0</asrwt>
<pdfrwt beam="1">  1       21 0.33220718E+00 0.28279757E+03</pdfrwt>
<pdfrwt beam="2">  1       21 0.67551172E-01 0.28279757E+03</pdfrwt>
<totfact> 0.38936199E+01</totfact>
</mgrwt>
</event>
<event>
 5    0  0.1200001E+000  0.2568051E+03  0.7546771E-02  0.1109078E+00
         21   -1    0    0  503  501  0.00000000000E+00  0.00000000000E+00  0.20521258681E+03  0.20521258681E+03  0.00000000000E+00 0. -1.
         21   -1    0    0  501  502 -0.00000000000E+00 -0.00000000000E+00 -0.80141064312E+03  0.80141064312E+03  0.00000000000E+00 0.  1.
         25    1    1    2    0    0 -0.18276970497E+03  0.11435701756E+03 -0.52804806744E+03  0.58390243538E+03  0.12500000000E+03 0.  0.
         21    1    1    2  503  504  0.13660175205E+03 -0.18168479811E+03  0.90211296559E+02  0.24455568396E+03  0.00000000000E+00 0. -1.
         21    1    1    2  504  502  0.46167952919E+02  0.67327780555E+02 -0.15836128543E+03  0.17816511060E+03  0.00000000000E+00 0. -1.
<mgrwt>
<rscale>  4 0.25680510E+03</rscale>
<asrwt>0</asrwt>
<pdfrwt beam="1">  1       21 0.31571168E-01 0.25680510E+03</pdfrwt>
<pdfrwt beam="2">  1       21 0.12329394E+00 0.25680510E+03</pdfrwt>
<totfact> 0.45437033E+03</totfact>
</mgrwt>
</event>
<event>
 5    0  0.1200001E+000  0.3648932E+03  0.7546771E-02  0.1056663E+00
         21   -1    0    0  503  501  0.00000000000E+00  0.00000000000E+00  0.43613728802E+03  0.43613728802E+03  0.00000000000E+00 0. -1.
         21   -1    0    0  504  502 -0.00000000000E+00 -0.00000000000E+00 -0.40309037725E+03  0.40309037725E+03  0.00000000000E+00 0. -1.
         25    1    1    2    0    0 -0.33849404380E+03 -0.67707908959E+02 -0.16624655806E+03  0.40302046684E+03  0.12500000000E+03 0.  0.
         21    1    1    2  503  502  0.33896739720E+03  0.19358610856E+02  0.17837098650E+03  0.38352296020E+03  0.00000000000E+00 0. -1.
         21    1    1    2  504  501 -0.47335339837E+00  0.48349298103E+02  0.20922482337E+02  0.52684238228E+02  0.00000000000E+00 0.  1.
<mgrwt>
<rscale>  4 0.36489320E+03</rscale>
<asrwt>0</asrwt>
<pdfrwt beam="1">  1       21 0.67098044E-01 0.36489320E+03</pdfrwt>
<pdfrwt beam="2">  1       21 0.62013904E-01 0.36489320E+03</pdfrwt>
<totfact> 0.44453886E+03</totfact>
</mgrwt>
</event>
<event>
 5    0  0.1200001E+000  0.2879179E+03  0.7546771E-02  0.1091441E+00
         21   -1    0    0  503  501  0.00000000000E+00  0.00000000000E+00  0.62847845149E+03  0.62847845149E+03  0.00000000000E+00 0.  1.
         21   -1    0    0  504  502 -0.00000000000E+00 -0.00000000000E+00 -0.30706362872E+03  0.30706362872E+03  0.00000000000E+00 0.  1.
         25    1    1    2    0    0 -0.27235402651E+03  0.12994717889E+03  0.11696507360E+03  0.34694208955E+03  0.12500000000E+03 0.  0.
         21    1    1    2  503  502  0.25310720343E+03  0.26105390685E+02 -0.77311466438E+02  0.26593572662E+03  0.00000000000E+00 0.  1.
         21    1    1    2  504  501  0.19246823086E+02 -0.15605256957E+03  0.28176121560E+03  0.32266426404E+03  0.00000000000E+00 0.  1.
<mgrwt>
<rscale>  4 0.28791793E+03</rscale>
<asrwt>0</asrwt>
<pdfrwt beam="1">  1       21 0.96688992E-01 0.28791793E+03</pdfrwt>
<pdfrwt beam="2">  1       21 0.47240558E-01 0.28791793E+03</pdfrwt>
<totfact> 0.35675442E+03</totfact>
</mgrwt>
</event>
<event>
 5    0  0.1200001E+000  0.3975452E+03  0.7546771E-02  0.1044633E+00
         21   -1    0    0  503  501  0.00000000000E+00  0.00000000000E+00  0.61801624689E+03  0.61801624689E+03  0.00000000000E+00 0.  1.
         21   -1    0    0  504  502 -0.00000000000E+00 -0.00000000000E+00 -0.32965489676E+03  0.32965489676E+03  0.00000000000E+00 0.  1.
         25    1    1    2    0    0 -0.60513020987E+02 -0.37249879412E+03 -0.91553384812E+02  0.40795122209E+03  0.12500000000E+03 0.  0.
         21    1    1    2  503  502  0.65253437950E+02  0.33495990944E+03  0.31410432098E+03  0.46380780131E+03  0.00000000000E+00 0.  1.
         21    1    1    2  504  501 -0.47404169633E+01  0.37538884681E+02  0.65810413963E+02  0.75912120259E+02  0.00000000000E+00 0.  1.
<mgrwt>
<rscale>  4 0.39754519E+03</rscale>
<asrwt>0</asrwt>
<pdfrwt beam="1">  1       21 0.95079422E-01 0.39754519E+03</pdfrwt>
<pdfrwt beam="2">  1       21 0.50716138E-01 0.39754519E+03</pdfrwt>
<totfact> 0.30342472E+03</totfact>
</mgrwt>
</event>
<event>
 5    0  0.1200001E+000  0.2938182E+03  0.7546771E-02  0.1088372E+00
         21   -1    0    0  503  501  0.00000000000E+00  0.00000000000E+00  0.40644882685E+03  0.40644882685E+03  0.00000000000E+00 0.  1.
         21   -1    0    0  504  502 -0.00000000000E+00 -0.00000000000E+00 -0.36717646411E+03  0.36717646411E+03  0.00000000000E+00 0.  1.
         25    1    1    2    0    0 -0.21598188425E+03  0.13844732646E+03 -0.17755243928E+03  0.33610371200E+03  0.12500000000E+03 0.  0.
         21    1    1    2  503  502  0.21193616621E+03 -0.21582676769E+03  0.17528462932E+03  0.34960382360E+03  0.00000000000E+00 0.  1.
         21    1    1    2  504  501  0.40457180361E+01  0.77379441229E+02  0.41540172702E+02  0.87917755360E+02  0.00000000000E+00 0.  1.
<mgrwt>
<rscale>  4 0.29381822E+03</rscale>
<asrwt>0</asrwt>
<pdfrwt beam="1">  1       21 0.62530589E-01 0.29381822E+03</pdfrwt>
<pdfrwt beam="2">  1       21 0.56488687E-01 0.29381822E+03</pdfrwt>
<totfact> 0.65675220E+03</totfact>
</mgrwt>
</event>
<event>
 5    0  0.1200001E+000  0.3766029E+03  0.7546771E-02  0.1052197E+00
         21   -1    0    0  502  501  0.00000000000E+00  0.00000000000E+00  0.84919706119E+03  0.84919706119E+03  0.00000000000E+00 0. -1.
         21   -1    0    0  503  502 -0.00000000000E+00 -0.00000000000E+00 -0.18164172027E+03  0.18164172027E+03  0.00000000000E+00 0. -1.
         25    1    1    2    0    0  0.35867765608E+03 -0.12275870583E+02  0.41634793838E+03  0.56371177367E+03  0.12500000000E+03 0.  0.
         21    1    1    2  503  504 -0.10769366106E+02 -0.40458615257E+02  0.23832021412E+02  0.48175139225E+02  0.00000000000E+00 0.  1.
         21    1    1    2  504  501 -0.34790828998E+03  0.52734485839E+02  0.22737538112E+03  0.41895186856E+03  0.00000000000E+00 0. -1.
<mgrwt>
<rscale>  4 0.37660287E+03</rscale>
<asrwt>0</asrwt>
<pdfrwt beam="1">  1       21 0.13064570E+00 0.37660287E+03</pdfrwt>
<pdfrwt beam="2">  1       21 0.27944881E-01 0.37660287E+03</pdfrwt>
<totfact> 0.46871233E+03</totfact>
</mgrwt>
</event>
<event>
 5    0  0.1200001E+000  0.2476578E+03  0.7546771E-02  0.1114794E+00
         21   -1    0    0  503  501  0.00000000000E+00  0.00000000000E+00  0.14693056248E+03  0.14693056248E+03  0.00000000000E+00 0. -1.
         21   -1    0    0  504  502 -0.00000000000E+00 -0.00000000000E+00 -0.69452487068E+03  0.69452487068E+03  0.00000000000E+00 0. -1.
         25    1    1    2    0    0 -0.20307890459E+03 -0.60008312932E+02 -0.50725720942E+03  0.56371705281E+03  0.12500000000E+03 0.  0.
         21    1    1    2  503  502  0.20018420675E+03  0.95236068377E+02 -0.69061609079E+02  0.23219201364E+03  0.00000000000E+00 0. -1.
         21    1    1    2  504  501  0.28946978485E+01 -0.35227755445E+02  0.28724510298E+02  0.45546366718E+02  0.00000000000E+00 0. -1.
<mgrwt>
<rscale>  4 0.24765783E+03</rscale>
<asrwt>0</asrwt>
<pdfrwt beam="1">  1       21 0.22604701E-01 0.24765783E+03</pdfrwt>
<pdfrwt beam="2">  1       21 0.10684998E+00 0.24765783E+03</pdfrwt>
<totfact> 0.12415775E+04</totfact>
</mgrwt>
</event>
<event>
 5    0  0.1200001E+000  0.3187597E+03  0.7546771E-02  0.1076222E+00
         21   -1    0    0  502  501  0.00000000000E+00  0.00000000000E+00  0.13676981827E+04  0.13676981827E+04  0.00000000000E+00 0.  1.
         21   -1    0    0  503  502 -0.00000000000E+00 -0.00000000000E+00 -0.11045744616E+03  0.11045744616E+03  0.00000000000E+00 0. -1.
         25    1    1    2    0    0 -0.28143935020E+03 -0.82308028423E+02  0.19325551627E+03  0.37276723831E+03  0.12500000000E+03 0.  0.
         21    1    1    2  503  504  0.12043530792E+02  0.19257548910E+02  0.94970764171E+02  0.97649095598E+02  0.00000000000E+00 0.  1.
         21    1    1    2  504  501  0.26939581941E+03  0.63050479513E+02  0.96901445605E+03  0.10077392949E+04  0.00000000000E+00 0.  1.
<mgrwt>
<rscale>  4 0.31875966E+03</rscale>
<asrwt>0</asrwt>
<pdfrwt beam="1">  1       21 0.21041509E+00 0.31875966E+03</pdfrwt>
<pdfrwt beam="2">  1       21 0.16993454E-01 0.31875966E+03</pdfrwt>
<totfact> 0.32659277E+03</totfact>
</mgrwt>
</event>
<event>
 5    0  0.1296755E+000  0.2493780E+03  0.7546771E-02  0.1113699E+00
         21   -1    0    0  502  501  0.00000000000E+00  0.00000000000E+00  0.21363218354E+03  0.21363218354E+03  0.00000000000E+00 0. -1.
         21   -1    0    0  504  502 -0.00000000000E+00 -0.00000000000E+00 -0.28820379942E+03  0.28820379942E+03  0.00000000000E+00 0. -1.
         25    1    1    2    0    0 -0.18155953103E+03 -0.95711080777E+02 -0.54676626661E+02  0.24645285106E+03  0.12500000000E+03 0.  0.
         21    1    1    2  503  501  0.18672834808E+03  0.12497423245E+03 -0.14305730380E+02  0.22514592751E+03  0.00000000000E+00 0. -1.
         21    1    1    2  504  503 -0.51688170520E+01 -0.29263151674E+02 -0.55892588412E+01  0.30237204401E+02  0.00000000000E+00 0.  1.
<mgrwt>
<rscale>  4 0.24937797E+03</rscale>
<asrwt>0</asrwt>
<pdfrwt beam="1">  1       21 0.32866490E-01 0.24937797E+03</pdfrwt>
<pdfrwt beam="2">  1       21 0.44339046E-01 0.24937797E+03</pdfrwt>
<totfact> 0.42402553E+04</totfact>
</mgrwt>
</event>
<event>
 5    0  0.1200001E+000  0.3018534E+03  0.7546771E-02  0.1084318E+00
         21   -1    0    0  503  501  0.00000000000E+00  0.00000000000E+00  0.93326046324E+02  0.93326046324E+02  0.00000000000E+00 0. -1.
         21   -1    0    0  501  502 -0.00000000000E+00 -0.00000000000E+00 -0.23382931085E+04  0.23382931085E+04  0.00000000000E+00 0.  1.
         25    1    1    2    0    0 -0.22316002327E+03  0.13287069345E+03 -0.75161459035E+03  0.80498727293E+03  0.12500000000E+03 0.  0.
         21    1    1    2  503  504 -0.13737761717E+02  0.20120588203E+02  0.51117912595E+02  0.56626894270E+02  0.00000000000E+00 0. -1.
         21    1    1    2  504  502  0.23689778498E+03 -0.15299128165E+03 -0.15444703844E+04  0.15700049876E+04  0.00000000000E+00 0. -1.
<mgrwt>
<rscale>  4 0.30185341E+03</rscale>
<asrwt>0</asrwt>
<pdfrwt beam="1">  1       21 0.14357852E-01 0.30185341E+03</pdfrwt>
<pdfrwt beam="2">  1       21 0.35973743E+00 0.30185341E+03</pdfrwt>
<totfact> 0.56985555E+02</totfact>
</mgrwt>
</event>
<event>
 5    0  0.1200001E+000  0.2909130E+03  0.7546771E-02  0.1089873E+00
         21   -1    0    0  503  501  0.00000000000E+00  0.00000000000E+00  0.78604447865E+02  0.78604447865E+02  0.00000000000E+00 0. -1.
         21   -1    0    0  501  502 -0.00000000000E+00 -0.00000000000E+00 -0.15240534054E+04  0.15240534054E+04  0.00000000000E+00 0. -1.
         25    1    1    2    0    0 -0.22803235914E+03  0.99326794740E+02 -0.90882704693E+03  0.95050311425E+03  0.12500000000E+03 0.  0.
         21    1    1    2  503  504 -0.21100793719E+02  0.46642409354E+02 -0.10876555287E+02  0.52336003868E+02  0.00000000000E+00 0. -1.
         21    1    1    2  504  502  0.24913315286E+03 -0.14596920409E+03 -0.52574535531E+03  0.59981873514E+03  0.00000000000E+00 0. -1.
<mgrwt>
<rscale>  4 0.29091302E+03</rscale>
<asrwt>0</asrwt>
<pdfrwt beam="1">  1       21 0.12092992E-01 0.29091302E+03</pdfrwt>
<pdfrwt beam="2">  1       21 0.23446975E+00 0.29091302E+03</pdfrwt>
<totfact> 0.43849669E+03</totfact>
</mgrwt>
</event>
<event>
 5    0  0.1200001E+000  0.2865074E+03  0.7546771E-02  0.1092187E+00
         21   -1    0    0  503  501  0.00000000000E+00  0.00000000000E+00  0.74930071701E+03  0.74930071701E+03  0.00000000000E+00 0. -1.
         21   -1    0    0  504  502 -0.00000000000E+00 -0.00000000000E+00 -0.67946900749E+03  0.67946900749E+03  0.00000000000E+00 0.  1.
         25    1    1    2    0    0  0.25541481266E+03 -0.32563126522E+02 -0.60719067273E+03  0.67126939211E+03  0.12500000000E+03 0.  0.
         21    1    1    2  503  502 -0.25491811763E+03  0.73148684699E+02  0.41603196521E+03  0.49337265109E+03  0.00000000000E+00 0. -1.
         21    1    1    2  504  501 -0.49669502335E+00 -0.40585558176E+02  0.26099041704E+03  0.26412768129E+03  0.00000000000E+00 0.  1.
<mgrwt>
<rscale>  4 0.28650743E+03</rscale>
<asrwt>0</asrwt>
<pdfrwt beam="1">  1       21 0.11527703E+00 0.28650743E+03</pdfrwt>
<pdfrwt beam="2">  1       21 0.10453369E+00 0.28650743E+03</pdfrwt>
<totfact> 0.39384295E+02</totfact>
</mgrwt>
</event>
<event>
 5    0  0.1200001E+000  0.2937892E+03  0.7546771E-02  0.1088387E+00
         21   -1    0    0  503  501  0.00000000000E+00  0.00000000000E+00  0.11995983083E+04  0.11995983083E+04  0.00000000000E+00 0.  1.
         21   -1    0    0  504  502 -0.00000000000E+00 -0.00000000000E+00 -0.64193155097E+03  0.64193155097E+03  0.00000000000E+00 0. -1.
         25    1    1    2    0    0 -0.21597504306E+03 -0.13948117755E+03 -0.25419589988E+03  0.38254512627E+03  0.12500000000E+03 0.  0.
         21    1    1    2  503  502  0.24205330469E+03  0.12895579711E+03 -0.26522611949E+03  0.38152889062E+03  0.00000000000E+00 0. -1.
         21    1    1    2  504  501 -0.26078261631E+02  0.10525380436E+02  0.10770887767E+04  0.10774558424E+04  0.00000000000E+00 0.  1.
<mgrwt>
<rscale>  4 0.29378918E+03</rscale>
<asrwt>0</asrwt>
<pdfrwt beam="1">  1       21 0.18455359E+00 0.29378918E+03</pdfrwt>
<pdfrwt beam="2">  1       21 0.98758700E-01 0.29378918E+03</pdfrwt>
<totfact> 0.12812727E+02</totfact>
</mgrwt>
</event>
<event>
 5    0  0.1200001E+000  0.4095888E+03  0.7546771E-02  0.1040509E+00
         21   -1    0    0  503  501  0.00000000000E+00  0.00000000000E+00  0.40079239550E+03  0.40079239550E+03  0.00000000000E+00 0. -1.
         21   -1    0    0  504  502 -0.00000000000E+00 -0.00000000000E+00 -0.73026511198E+03  0.73026511198E+03  0.00000000000E+00 0. -1.
         25    1    1    2    0    0 -0.32306149729E+03  0.22836644650E+03 -0.17177542878E+03  0.44905652523E+03  0.12500000000E+03 0.  0.
         21    1    1    2  503  502  0.30152245576E+03 -0.24219285553E+03 -0.32963679124E+03  0.50816688670E+03  0.00000000000E+00 0. -1.
         21    1    1    2  504  501  0.21539041536E+02  0.13826409034E+02  0.17193950355E+03  0.17383409555E+03  0.00000000000E+00 0. -1.
<mgrwt>
<rscale>  4 0.40958878E+03</rscale>
<asrwt>0</asrwt>
<pdfrwt beam="1">  1       21 0.61660369E-01 0.40958878E+03</pdfrwt>
<pdfrwt beam="2">  1       21 0.11234848E+00 0.40958878E+03</pdfrwt>
<totfact> 0.13167473E+03</totfact>
</mgrwt>
</event>
<event>
 5    0  0.1200001E+000  0.2467124E+03  0.7546771E-02  0.1115400E+00
         21   -1    0    0  503  501  0.00000000000E+00  0.00000000000E+00  0.42962375015E+03  0.42962375015E+03  0.00000000000E+00 0.  1.
         21   -1    0    0  504  502 -0.00000000000E+00 -0.00000000000E+00 -0.32534364116E+03  0.32534364116E+03  0.00000000000E+00 0. -1.
         25    1    1    2    0    0  0.22610441691E+03  0.34463237066E+02 -0.16737724452E+03  0.30975968756E+03  0.12500000000E+03 0.  0.
         21    1    1    2  503  502 -0.18222391201E+03  0.91087958701E+02  0.96888159442E+02  0.22558786707E+03  0.00000000000E+00 0.  1.
         21    1    1    2  504  501 -0.43880504894E+02 -0.12555119577E+03  0.17476919406E+03  0.21961983668E+03  0.00000000000E+00 0.  1.
<mgrwt>
<rscale>  4 0.24671235E+03</rscale>
<asrwt>0</asrwt>
<pdfrwt beam="1">  1       21 0.66095961E-01 0.24671235E+03</pdfrwt>
<pdfrwt beam="2">  1       21 0.50052868E-01 0.24671235E+03</pdfrwt>
<totfact> 0.77108884E+03</totfact>
</mgrwt>
</event>
<event>
 5    0  0.1200001E+000  0.4025172E+03  0.7546771E-02  0.1042912E+00
         21   -1    0    0  503  501  0.00000000000E+00  0.00000000000E+00  0.80937143503E+02  0.80937143503E+02  0.00000000000E+00 0. -1.
         21   -1    0    0  501  502 -0.00000000000E+00 -0.00000000000E+00 -0.20076296154E+04  0.20076296154E+04  0.00000000000E+00 0. -1.
         25    1    1    2    0    0 -0.34059773915E+02  0.38627306372E+03 -0.98395486886E+03  0.10649690756E+04  0.12500000000E+03 0.  0.
         21    1    1    2  503  504  0.18524342523E+02 -0.86048324643E+01 -0.39786213071E+02  0.44722892999E+02  0.00000000000E+00 0.  1.
         21    1    1    2  504  502  0.15535431392E+02 -0.37766823125E+03 -0.90295138999E+03  0.97887479036E+03  0.00000000000E+00 0. -1.
<mgrwt>
<rscale>  4 0.40251719E+03</rscale>
<asrwt>0</asrwt>
<pdfrwt beam="1">  1       21 0.12451869E-01 0.40251719E+03</pdfrwt>
<pdfrwt beam="2">  1       21 0.30886607E+00 0.40251719E+03</pdfrwt>
<totfact> 0.13858854E+03</totfact>
</mgrwt>
</event>
<event>
 5    0  0.1200001E+000  0.2269228E+03  0.7546771E-02  0.1128825E+00
         21   -1    0    0  503  501  0.00000000000E+00  0.00000000000E+00  0.79262056570E+03  0.79262056570E+03  0.00000000000E+00 0. -1.
         21   -1    0    0  504  502 -0.00000000000E+00 -0.00000000000E+00 -0.10102199623E+03  0.10102199623E+03  0.00000000000E+00 0. -1.
         25    1    1    2    0    0  0.88600836054E+02  0.18108417553E+03  0.11666629467E+03  0.26434373662E+03  0.12500000000E+03 0.  0.
         21    1    1    2  503  502 -0.45595730404E+02 -0.16650481668E+03  0.26641923960E+03  0.31746186517E+03  0.00000000000E+00 0. -1.
         21    1    1    2  504  501 -0.43005105650E+02 -0.14579358850E+02  0.30851303520E+03  0.31183696014E+03  0.00000000000E+00 0.  1.
<mgrwt>
<rscale>  4 0.22692275E+03</rscale>
<asrwt>0</asrwt>
<pdfrwt beam="1">  1       21 0.12194162E+00 0.22692275E+03</pdfrwt>
<pdfrwt beam="2">  1       21 0.15541846E-01 0.22692275E+03</pdfrwt>
<totfact> 0.18265560E+04</totfact>
</mgrwt>
</event>
<event>
 5    0  0.1200001E+000  0.3472571E+03  0.7546771E-02  0.1063746E+00
         21   -1    0    0  503  501  0.00000000000E+00  0.00000000000E+00  0.66786553341E+02  0.66786553341E+02  0.00000000000E+00 0. -1.
         21   -1    0    0  501  502 -0.00000000000E+00 -0.00000000000E+00 -0.20855840954E+04  0.20855840954E+04  0.00000000000E+00 0. -1.
         25    1    1    2    0    0  0.26553221112E+03  0.17803525069E+03 -0.12362312483E+04  0.12830029637E+04  0.12500000000E+03 0.  0.
         21    1    1    2  503  504  0.32910442354E+02 -0.31219571489E+02 -0.77739109835E+02  0.90006266769E+02  0.00000000000E+00 0.  1.
         21    1    1    2  504  502 -0.29844265347E+03 -0.14681567920E+03 -0.70482718395E+03  0.77936141828E+03  0.00000000000E+00 0. -1.
<mgrwt>
<rscale>  4 0.34725710E+03</rscale>
<asrwt>0</asrwt>
<pdfrwt beam="1">  1       21 0.10274853E-01 0.34725710E+03</pdfrwt>
<pdfrwt beam="2">  1       21 0.32085913E+00 0.34725710E+03</pdfrwt>
<totfact> 0.17242396E+03</totfact>
</mgrwt>
</event>
<event>
 5    0  0.1200001E+000  0.3107749E+03  0.7546771E-02  0.1079975E+00
         21   -1    0    0  503  501  0.00000000000E+00  0.00000000000E+00  0.27596441258E+03  0.27596441258E+03  0.00000000000E+00 0. -1.
         21   -1    0    0  504  502 -0.00000000000E+00 -0.00000000000E+00 -0.65823665273E+03  0.65823665273E+03  0.00000000000E+00 0. -1.
         25    1    1    2    0    0 -0.62799178825E+02  0.26304296385E+03 -0.18485157928E+03  0.35061438084E+03  0.12500000000E+03 0.  0.
         21    1    1    2  503  502  0.47498641520E+02 -0.29043345278E+03 -0.33301074441E+03  0.44441407193E+03  0.00000000000E+00 0. -1.
         21    1    1    2  504  501  0.15300537305E+02  0.27390488929E+02  0.13559008355E+03  0.13917261254E+03  0.00000000000E+00 0. -1.
<mgrwt>
<rscale>  4 0.31077491E+03</rscale>
<asrwt>0</asrwt>
<pdfrwt beam="1">  1       21 0.42456064E-01 0.31077491E+03</pdfrwt>
<pdfrwt beam="2">  1       21 0.10126718E+00 0.31077491E+03</pdfrwt>
<totfact> 0.39365112E+03</totfact>
</mgrwt>
</event>
<event>
 5    0  0.1200001E+000  0.2584786E+03  0.7546771E-02  0.1108061E+00
         21   -1    0    0  502  501  0.00000000000E+00  0.00000000000E+00  0.14098153862E+04  0.14098153862E+04  0.00000000000E+00 0.  1.
         21   -1    0    0  504  502 -0.00000000000E+00 -0.00000000000E+00 -0.76233176162E+02  0.76233176162E+02  0.00000000000E+00 0.  1.
         25    1    1    2    0    0 -0.22572799637E+03  0.15266016026E+02  0.20217137817E+03  0.32815308278E+03  0.12500000000E+03 0.  0.
         21    1    1    2  503  501  0.16796059202E+03  0.13359451362E+02  0.96176028323E+03  0.97640774157E+03  0.00000000000E+00 0.  1.
         21    1    1    2  504  503  0.57767404357E+02 -0.28625467389E+02  0.16965054863E+03  0.18148773798E+03  0.00000000000E+00 0.  1.
<mgrwt>
<rscale>  4 0.25847859E+03</rscale>
<asrwt>0</asrwt>
<pdfrwt beam="1">  1       21 0.21689465E+00 0.25847859E+03</pdfrwt>
<pdfrwt beam="2">  1       21 0.11728182E-01 0.25847859E+03</pdfrwt>
<totfact> 0.60883718E+03</totfact>
</mgrwt>
</event>
<event>
 5    0  0.1200001E+000  0.3309682E+03  0.7546771E-02  0.1070709E+00
         21   -1    0    0  503  501  0.00000000000E+00  0.00000000000E+00  0.89628615520E+02  0.89628615520E+02  0.00000000000E+00 0. -1.
         21   -1    0    0  501  502 -0.00000000000E+00 -0.00000000000E+00 -0.14585382337E+04  0.14585382337E+04  0.00000000000E+00 0.  1.
         25    1    1    2    0    0 -0.26034073676E+03  0.18473909732E+03 -0.80596175036E+03  0.87584540665E+03  0.12500000000E+03 0.  0.
         21    1    1    2  503  504  0.26270181433E+01 -0.42988182660E+02 -0.73750176976E+01  0.43695262429E+02  0.00000000000E+00 0.  1.
         21    1    1    2  504  502  0.25771371861E+03 -0.14175091466E+03 -0.55557285008E+03  0.62862618011E+03  0.00000000000E+00 0. -1.
<mgrwt>
<rscale>  4 0.33096823E+03</rscale>
<asrwt>0</asrwt>
<pdfrwt beam="1">  1       21 0.13789020E-01 0.33096823E+03</pdfrwt>
<pdfrwt beam="2">  1       21 0.22439046E+00 0.33096823E+03</pdfrwt>
<totfact> 0.38886940E+03</totfact>
</mgrwt>
</event>
<event>
 5    0  0.1200001E+000  0.5949566E+03  0.7546771E-02  0.9915925E-01
         21   -1    0    0  503  501  0.00000000000E+00  0.00000000000E+00  0.32340130492E+03  0.32340130492E+03  0.00000000000E+00 0.  1.
         21   -1    0    0  504  502 -0.00000000000E+00 -0.00000000000E+00 -0.15264449458E+04  0.15264449458E+04  0.00000000000E+00 0. -1.
         25    1    1    2    0    0 -0.41515735115E+03  0.42249650049E+03 -0.37904650462E+03  0.71425497675E+03  0.12500000000E+03 0.  0.
         21    1    1    2  503  502  0.41900055637E+03 -0.39583641413E+03 -0.89223512666E+03  0.10622294734E+04  0.00000000000E+00 0. -1.
         21    1    1    2  504  501 -0.38432052224E+01 -0.26660086361E+02  0.68237990448E+02  0.73361800492E+02  0.00000000000E+00 0.  1.
<mgrwt>
<rscale>  4 0.59495656E+03</rscale>
<asrwt>0</asrwt>
<pdfrwt beam="1">  1       21 0.49754047E-01 0.59495656E+03</pdfrwt>
<pdfrwt beam="2">  1       21 0.23483768E+00 0.59495656E+03</pdfrwt>
<totfact> 0.23634813E+02</totfact>
</mgrwt>
</event>
<event>
 5    0  0.1200001E+000  0.2455751E+03  0.7546771E-02  0.1116134E+00
         21   -1    0    0  502  501  0.00000000000E+00  0.00000000000E+00  0.41659962577E+03  0.41659962577E+03  0.00000000000E+00 0. -1.
         21   -1    0    0  504  502 -0.00000000000E+00 -0.00000000000E+00 -0.46229888991E+03  0.46229888991E+03  0.00000000000E+00 0. -1.
         25    1    1    2    0    0 -0.14628573095E+03 -0.15258643270E+03 -0.39527847603E+03  0.46535170370E+03  0.12500000000E+03 0.  0.
         21    1    1    2  503  501  0.11948116042E+03  0.13109814473E+03  0.23818716355E+03  0.29697743370E+03  0.00000000000E+00 0. -1.
         21    1    1    2  504  503  0.26804570524E+02  0.21488287972E+02  0.11139204833E+03  0.11656937828E+03  0.00000000000E+00 0. -1.
<mgrwt>
<rscale>  4 0.24557511E+03</rscale>
<asrwt>0</asrwt>
<pdfrwt beam="1">  1       21 0.64092250E-01 0.24557511E+03</pdfrwt>
<pdfrwt beam="2">  1       21 0.71122906E-01 0.24557511E+03</pdfrwt>
<totfact> 0.38657017E+03</totfact>
</mgrwt>
</event>
<event>
 5    0  0.1200001E+000  0.2662954E+03  0.7546771E-02  0.1103419E+00
         21   -1    0    0  503  501  0.00000000000E+00  0.00000000000E+00  0.71569362264E+03  0.71569362264E+03  0.00000000000E+00 0. -1.
         21   -1    0    0  501  502 -0.00000000000E+00 -0.00000000000E+00 -0.26515749083E+03  0.26515749083E+03  0.00000000000E+00 0. -1.
         25    1    1    2    0    0 -0.20162384928E+03 -0.16875330019E+03  0.33812158477E+03  0.44618500536E+03  0.12500000000E+03 0.  0.
         21    1    1    2  503  504  0.11180921021E+02  0.38370123964E+02  0.25846580227E+03  0.26153747409E+03  0.00000000000E+00 0. -1.
         21    1    1    2  504  502  0.19044292826E+03  0.13038317623E+03 -0.14605125522E+03  0.27312863402E+03  0.00000000000E+00 0. -1.
<mgrwt>
<rscale>  4 0.26629543E+03</rscale>
<asrwt>0</asrwt>
<pdfrwt beam="1">  1       21 0.11010671E+00 0.26629543E+03</pdfrwt>
<pdfrwt beam="2">  1       21 0.40793461E-01 0.26629543E+03</pdfrwt>
<totfact> 0.35743160E+03</totfact>
</mgrwt>
</event>
<event>
 5    0  0.1200001E+000  0.5342561E+03  0.7546771E-02  0.1005205E+00
         21   -1    0    0  503  501  0.00000000000E+00  0.00000000000E+00  0.23097990046E+04  0.23097990046E+04  0.00000000000E+00 0.  1.
         21   -1    0    0  501  502 -0.00000000000E+00 -0.00000000000E+00 -0.24350877531E+03  0.24350877531E+03  0.00000000000E+00 0.  1.
         25    1    1    2    0    0 -0.81203489716E+02  0.51631738894E+03  0.14675457902E+03  0.55708128610E+03  0.12500000000E+03 0.  0.
         21    1    1    2  503  504 -0.29542021862E+02 -0.25548547594E+02  0.78422931194E+02  0.87610589981E+02  0.00000000000E+00 0. -1.
         21    1    1    2  504  502  0.11074551158E+03 -0.49076884135E+03  0.18411127191E+04  0.19086159038E+04  0.00000000000E+00 0.  1.
<mgrwt>
<rscale>  4 0.53425609E+03</rscale>
<asrwt>0</asrwt>
<pdfrwt beam="1">  1       21 0.35535368E+00 0.53425609E+03</pdfrwt>
<pdfrwt beam="2">  1       21 0.37462890E-01 0.53425609E+03</pdfrwt>
<totfact> 0.80319004E+01</totfact>
</mgrwt>
</event>
<event>
 5    0  0.1200001E+000  0.4807096E+03  0.7546771E-02  0.1018940E+00
         21   -1    0    0  503  501  0.00000000000E+00  0.00000000000E+00  0.22367413860E+04  0.22367413860E+04  0.00000000000E+00 0. -1.
         21   -1    0    0  501  502 -0.00000000000E+00 -0.00000000000E+00 -0.31854399991E+03  0.31854399991E+03  0.00000000000E+00 0. -1.
         25    1    1    2    0    0 -0.35204137993E+03  0.29802767521E+03 -0.80523858184E+02  0.48462637167E+03  0.12500000000E+03 0.  0.
         21    1    1    2  503  504 -0.34173771122E+02  0.22431743932E+01  0.32812201332E+03  0.32990443175E+03  0.00000000000E+00 0.  1.
         21    1    1    2  504  502  0.38621515105E+03 -0.30027084961E+03  0.16705992310E+04  0.17407545825E+04  0.00000000000E+00 0. -1.
<mgrwt>
<rscale>  4 0.48070964E+03</rscale>
<asrwt>0</asrwt>
<pdfrwt beam="1">  1       21 0.34411405E+00 0.48070964E+03</pdfrwt>
<pdfrwt beam="2">  1       21 0.49006771E-01 0.48070964E+03</pdfrwt>
<totfact> 0.55577086E+01</totfact>
</mgrwt>
</event>
<event>
 5    0  0.1200001E+000  0.1721112E+03  0.7546771E-02  0.1175664E+00
         21   -1    0    0  503  501  0.00000000000E+00  0.00000000000E+00  0.92650919476E+02  0.92650919476E+02  0.00000000000E+00 0. -1.
         21   -1    0    0  504  502 -0.00000000000E+00 -0.00000000000E+00 -0.31191278072E+04  0.31191278072E+04  0.00000000000E+00 0.  1.
         25    1    1    2    0    0  0.18061986361E+03 -0.10612365910E+03 -0.21646121571E+04  0.21783150729E+04  0.12500000000E+03 0.  0.
         21    1    1    2  503  502 -0.88755302326E+02  0.34267447840E+02 -0.90434720618E+03  0.90933801801E+03  0.00000000000E+00 0.  1.
         21    1    1    2  504  501 -0.91864561283E+02  0.71856211260E+02  0.42482475582E+02  0.12412563574E+03  0.00000000000E+00 0. -1.
<mgrwt>
<rscale>  4 0.17211120E+03</rscale>
<asrwt>0</asrwt>
<pdfrwt beam="1">  1       21 0.14253991E-01 0.17211120E+03</pdfrwt>
<pdfrwt beam="2">  1       21 0.47986570E+00 0.17211120E+03</pdfrwt>
<totfact> 0.11723928E+02</totfact>
</mgrwt>
</event>
<event>
 5    0  0.1200001E+000  0.2514910E+03  0.7546771E-02  0.1112366E+00
         21   -1    0    0  503  501  0.00000000000E+00  0.00000000000E+00  0.76067696473E+03  0.76067696473E+03  0.00000000000E+00 0.  1.
         21   -1    0    0  501  502 -0.00000000000E+00 -0.00000000000E+00 -0.16681888713E+03  0.16681888713E+03  0.00000000000E+00 0.  1.
         25    1    1    2    0    0 -0.22780927780E+01 -0.21626233370E+03 -0.30399502716E+02  0.25164204031E+03  0.12500000000E+03 0.  0.
         21    1    1    2  503  504 -0.21202511440E+02 -0.10898971523E+02  0.11925499552E+03  0.12161450583E+03  0.00000000000E+00 0.  1.
         21    1    1    2  504  502  0.23480604218E+02  0.22716130522E+03  0.50500258479E+03  0.55423930573E+03  0.00000000000E+00 0.  1.
<mgrwt>
<rscale>  4 0.25149104E+03</rscale>
<asrwt>0</asrwt>
<pdfrwt beam="1">  1       21 0.11702722E+00 0.25149104E+03</pdfrwt>
<pdfrwt beam="2">  1       21 0.25664445E-01 0.25149104E+03</pdfrwt>
<totfact> 0.77778658E+03</totfact>
</mgrwt>
</event>
<event>
 5    0  0.1200001E+000  0.2494919E+03  0.7546771E-02  0.1113626E+00
         21   -1    0    0  502  501  0.00000000000E+00  0.00000000000E+00  0.11088379740E+03  0.11088379740E+03  0.00000000000E+00 0. -1.
         21   -1    0    0  504  502 -0.00000000000E+00 -0.00000000000E+00 -0.11379678137E+04  0.11379678137E+04  0.00000000000E+00 0.  1.
         25    1    1    2    0    0 -0.11797348774E+03 -0.19551764439E+03 -0.83181566195E+03  0.87160036056E+03  0.12500000000E+03 0.  0.
         21    1    1    2  503  501  0.16310654935E+03  0.95984832425E+02 -0.50522298225E+02  0.19588092586E+03  0.00000000000E+00 0. -1.
         21    1    1    2  504  503 -0.45133061612E+02  0.99532811961E+02 -0.14474605613E+03  0.18137032467E+03  0.00000000000E+00 0.  1.
<mgrwt>
<rscale>  4 0.24949186E+03</rscale>
<asrwt>0</asrwt>
<pdfrwt beam="1">  1       21 0.17059047E-01 0.24949186E+03</pdfrwt>
<pdfrwt beam="2">  1       21 0.17507196E+00 0.24949186E+03</pdfrwt>
<totfact> 0.58348090E+03</totfact>
</mgrwt>
</event>
<event>
 5    0  0.1200001E+000  0.2518341E+03  0.7546771E-02  0.1112151E+00
         21   -1    0    0  502  501  0.00000000000E+00  0.00000000000E+00  0.40388704154E+03  0.40388704154E+03  0.00000000000E+00 0. -1.
         21   -1    0    0  503  502 -0.00000000000E+00 -0.00000000000E+00 -0.28699038512E+03  0.28699038512E+03  0.00000000000E+00 0.  1.
         25    1    1    2    0    0  0.12788659449E+03  0.21982865202E+03 -0.12527754138E+03  0.30983718252E+03  0.12500000000E+03 0.  0.
         21    1    1    2  503  504 -0.60114323059E+02 -0.18191191776E+02  0.58502032708E+01  0.63078333628E+02  0.00000000000E+00 0.  1.
         21    1    1    2  504  501 -0.67772271435E+02 -0.20163746024E+03  0.23632399452E+03  0.31796191051E+03  0.00000000000E+00 0. -1.
<mgrwt>
<rscale>  4 0.25183414E+03</rscale>
<asrwt>0</asrwt>
<pdfrwt beam="1">  1       21 0.62136468E-01 0.25183414E+03</pdfrwt>
<pdfrwt beam="2">  1       21 0.44152367E-01 0.25183414E+03</pdfrwt>
<totfact> 0.11423517E+04</totfact>
</mgrwt>
</event>
<event>
 5    0  0.1200001E+000  0.2435214E+03  0.7546771E-02  0.1117469E+00
         21   -1    0    0  503  501  0.00000000000E+00  0.00000000000E+00  0.18999199865E+04  0.18999199865E+04  0.00000000000E+00 0.  1.
         21   -1    0    0  501  502 -0.00000000000E+00 -0.00000000000E+00 -0.91857232863E+02  0.91857232863E+02  0.00000000000E+00 0.  1.
         25    1    1    2    0    0  0.18975814683E+03 -0.69554938448E+02  0.10803727998E+03  0.26104232917E+03  0.12500000000E+03 0.  0.
         21    1    1    2  503  504 -0.23638050289E+03  0.78466692496E+02  0.10564795500E+04  0.10854408338E+04  0.00000000000E+00 0.  1.
         21    1    1    2  504  502  0.46622356057E+02 -0.89117540474E+01  0.64354592367E+03  0.64529405647E+03  0.00000000000E+00 0.  1.
<mgrwt>
<rscale>  4 0.24352143E+03</rscale>
<asrwt>0</asrwt>
<pdfrwt beam="1">  1       21 0.29229535E+00 0.24352143E+03</pdfrwt>
<pdfrwt beam="2">  1       21 0.14131883E-01 0.24352143E+03</pdfrwt>
<totfact> 0.15591511E+03</totfact>
</mgrwt>
</event>
<event>
 5    0  0.1200001E+000  0.3298991E+03  0.7546771E-02  0.1071182E+00
         21   -1    0    0  503  501  0.00000000000E+00  0.00000000000E+00  0.25813382361E+03  0.25813382361E+03  0.00000000000E+00 0.  1.
         21   -1    0    0  501  502 -0.00000000000E+00 -0.00000000000E+00 -0.10136201615E+04  0.10136201615E+04  0.00000000000E+00 0. -1.
         25    1    1    2    0    0 -0.27378338036E+03  0.13778090700E+03 -0.86089075597E+03  0.92233335157E+03  0.12500000000E+03 0.  0.
         21    1    1    2  503  504 -0.10694574060E+01 -0.21186021804E+02  0.37732717226E+02  0.43286824881E+02  0.00000000000E+00 0.  1.
         21    1    1    2  504  502  0.27485283777E+03 -0.11659488520E+03  0.67671700889E+02  0.30613380863E+03  0.00000000000E+00 0.  1.
<mgrwt>
<rscale>  4 0.32989909E+03</rscale>
<asrwt>0</asrwt>
<pdfrwt beam="1">  1       21 0.39712895E-01 0.32989909E+03</pdfrwt>
<pdfrwt beam="2">  1       21 0.15594157E+00 0.32989909E+03</pdfrwt>
<totfact> 0.14844145E+03</totfact>
</mgrwt>
</event>
<event>
 5    0  0.1200001E+000  0.2233165E+03  0.7546771E-02  0.1131434E+00
         21   -1    0    0  503  501  0.00000000000E+00  0.00000000000E+00  0.47513879525E+03  0.47513879525E+03  0.00000000000E+00 0.  1.
         21   -1    0    0  501  502 -0.00000000000E+00 -0.00000000000E+00 -0.24445172132E+03  0.24445172132E+03  0.00000000000E+00 0.  1.
         25    1    1    2    0    0  0.78070859754E+02 -0.19016673698E+03  0.11679934180E+03  0.26744257934E+03  0.12500000000E+03 0.  0.
         21    1    1    2  503  504 -0.20582887629E+02  0.19595654679E+02  0.23402236839E+03  0.23574162520E+03  0.00000000000E+00 0.  1.
         21    1    1    2  504  502 -0.57487972125E+02  0.17057108230E+03 -0.12013463627E+03  0.21640631203E+03  0.00000000000E+00 0.  1.
<mgrwt>
<rscale>  4 0.22331648E+03</rscale>
<asrwt>0</asrwt>
<pdfrwt beam="1">  1       21 0.73098276E-01 0.22331648E+03</pdfrwt>
<pdfrwt beam="2">  1       21 0.37607957E-01 0.22331648E+03</pdfrwt>
<totfact> 0.11253022E+04</totfact>
</mgrwt>
</event>
<event>
 5    0  0.1200001E+000  0.2495904E+03  0.7546771E-02  0.1113564E+00
         21   -1    0    0  503  501  0.00000000000E+00  0.00000000000E+00  0.17760135513E+04  0.17760135513E+04  0.00000000000E+00 0.  1.
         21   -1    0    0  501  502 -0.00000000000E+00 -0.00000000000E+00 -0.65747453486E+03  0.65747453486E+03  0.00000000000E+00 0.  1.
         25    1    1    2    0    0  0.15521005222E+03  0.15222955203E+03 -0.60666676504E+03  0.65645529980E+03  0.12500000000E+03 0.  0.
         21    1    1    2  503  504 -0.19668991554E+03  0.38434829856E+01  0.14019235976E+04  0.14156593760E+04  0.00000000000E+00 0.  1.
         21    1    1    2  504  502  0.41479863318E+02 -0.15607303502E+03  0.32328218386E+03  0.36137341037E+03  0.00000000000E+00 0. -1.
<mgrwt>
<rscale>  4 0.24959036E+03</rscale>
<asrwt>0</asrwt>
<pdfrwt beam="1">  1       21 0.27323285E+00 0.24959036E+03</pdfrwt>
<pdfrwt beam="2">  1       21 0.10114993E+00 0.24959036E+03</pdfrwt>
<totfact> 0.35677364E+01</totfact>
</mgrwt>
</event>
<event>
 5    0  0.1200001E+000  0.2375412E+03  0.7546771E-02  0.1121442E+00
         21   -1    0    0  502  501  0.00000000000E+00  0.00000000000E+00  0.99721742076E+03  0.99721742076E+03  0.00000000000E+00 0.  1.
         21   -1    0    0  503  502 -0.00000000000E+00 -0.00000000000E+00 -0.65663887184E+02  0.65663887184E+02  0.00000000000E+00 0.  1.
         25    1    1    2    0    0  0.11968964149E+03  0.16271212333E+03  0.22875142755E+03  0.32977728995E+03  0.12500000000E+03 0.  0.
         21    1    1    2  503  504  0.14510652368E+01 -0.25556132051E+02  0.85578382508E+02  0.89324582442E+02  0.00000000000E+00 0.  1.
         21    1    1    2  504  501 -0.12114070673E+03 -0.13715599128E+03  0.61722372352E+03  0.64377943555E+03  0.00000000000E+00 0.  1.
<mgrwt>
<rscale>  4 0.23754125E+03</rscale>
<asrwt>0</asrwt>
<pdfrwt beam="1">  1       21 0.15341805E+00 0.23754125E+03</pdfrwt>
<pdfrwt beam="2">  1       21 0.10102137E-01 0.23754125E+03</pdfrwt>
<totfact> 0.21826395E+04</totfact>
</mgrwt>
</event>
<event>
 5    0  0.1200001E+000  0.2540977E+03  0.7546771E-02  0.1110742E+00
         21   -1    0    0  503  501  0.00000000000E+00  0.00000000000E+00  0.10974752012E+04  0.10974752012E+04  0.00000000000E+00 0.  1.
         21   -1    0    0  501  502 -0.00000000000E+00 -0.00000000000E+00 -0.94828472628E+02  0.94828472628E+02  0.00000000000E+00 0.  1.
         25    1    1    2    0    0 -0.11818440081E+03 -0.17375532826E+03  0.21586788471E+03  0.32616316522E+03  0.12500000000E+03 0.  0.
         21    1    1    2  503  504 -0.28986767671E+02 -0.10923203545E+02  0.47003943800E+03  0.47105904338E+03  0.00000000000E+00 0.  1.
         21    1    1    2  504  502  0.14717116848E+03  0.18467853180E+03  0.31673940582E+03  0.39508146520E+03  0.00000000000E+00 0.  1.
<mgrwt>
<rscale>  4 0.25409766E+03</rscale>
<asrwt>0</asrwt>
<pdfrwt beam="1">  1       21 0.16884233E+00 0.25409766E+03</pdfrwt>
<pdfrwt beam="2">  1       21 0.14588997E-01 0.25409766E+03</pdfrwt>
<totfact> 0.85843560E+03</totfact>
</mgrwt>
</event>
<event>
 5    0  0.1200001E+000  0.2996866E+03  0.7546771E-02  0.1085397E+00
         21   -1    0    0  502  501  0.00000000000E+00  0.00000000000E+00  0.85326318536E+03  0.85326318536E+03  0.00000000000E+00 0. -1.
         21   -1    0    0  503  502 -0.00000000000E+00 -0.00000000000E+00 -0.17168134859E+03  0.17168134859E+03  0.00000000000E+00 0. -1.
         25    1    1    2    0    0  0.51267784071E+02 -0.24664844623E+03  0.87949486443E+02  0.29465904683E+03  0.12500000000E+03 0.  0.
         21    1    1    2  503  504  0.51374260983E+02 -0.70682875126E+02  0.83910602623E+02  0.12114608025E+03  0.00000000000E+00 0. -1.
         21    1    1    2  504  501 -0.10264204505E+03  0.31733132136E+03  0.50972174770E+03  0.60913940687E+03  0.00000000000E+00 0. -1.
<mgrwt>
<rscale>  4 0.29968656E+03</rscale>
<asrwt>0</asrwt>
<pdfrwt beam="1">  1       21 0.13127126E+00 0.29968656E+03</pdfrwt>
<pdfrwt beam="2">  1       21 0.26412516E-01 0.29968656E+03</pdfrwt>
<totfact> 0.53589068E+03</totfact>
</mgrwt>
</event>
<event>
 5    0  0.1200001E+000  0.2030990E+03  0.7546771E-02  0.1147150E+00
         21   -1    0    0  502  501  0.00000000000E+00  0.00000000000E+00  0.58455575808E+03  0.58455575808E+03  0.00000000000E+00 0.  1.
         21   -1    0    0  503  502 -0.00000000000E+00 -0.00000000000E+00 -0.11925850393E+03  0.11925850393E+03  0.00000000000E+00 0. -1.
         25    1    1    2    0    0 -0.11401597067E+03  0.18870206072E+03  0.19994865344E+03  0.32281972260E+03  0.12500000000E+03 0.  0.
         21    1    1    2  503  504 -0.98726289722E+01 -0.11534661592E+03  0.60538364604E+02  0.13064151023E+03  0.00000000000E+00 0.  1.
         21    1    1    2  504  501  0.12388859964E+03 -0.73355444795E+02  0.20481023611E+03  0.25035302917E+03  0.00000000000E+00 0.  1.
<mgrwt>
<rscale>  4 0.20309905E+03</rscale>
<asrwt>0</asrwt>
<pdfrwt beam="1">  1       21 0.89931653E-01 0.20309905E+03</pdfrwt>
<pdfrwt beam="2">  1       21 0.18347463E-01 0.20309905E+03</pdfrwt>
<totfact> 0.28350470E+04</totfact>
</mgrwt>
</event>
<event>
 5    0  0.1200001E+000  0.2652883E+03  0.7546771E-02  0.1104007E+00
         21   -1    0    0  503  501  0.00000000000E+00  0.00000000000E+00  0.65116266545E+03  0.65116266545E+03  0.00000000000E+00 0.  1.
         21   -1    0    0  501  502 -0.00000000000E+00 -0.00000000000E+00 -0.22959382956E+03  0.22959382956E+03  0.00000000000E+00 0.  1.
         25    1    1    2    0    0  0.22708005695E+03  0.63203142027E+02 -0.61076071659E+02  0.27370655081E+03  0.12500000000E+03 0.  0.
         21    1    1    2  503  504 -0.13116660858E+02  0.25521858466E+02  0.32637710013E+03  0.32763611452E+03  0.00000000000E+00 0. -1.
         21    1    1    2  504  502 -0.21396339609E+03 -0.88725000493E+02  0.15626780742E+03  0.27941382968E+03  0.00000000000E+00 0.  1.
<mgrwt>
<rscale>  4 0.26528830E+03</rscale>
<asrwt>0</asrwt>
<pdfrwt beam="1">  1       21 0.10017887E+00 0.26528830E+03</pdfrwt>
<pdfrwt beam="2">  1       21 0.35322128E-01 0.26528830E+03</pdfrwt>
<totfact> 0.60167711E+03</totfact>
</mgrwt>
</event>
<event>
 5    0  0.1200001E+000  0.2469045E+03  0.7546771E-02  0.1115277E+00
         21   -1    0    0  503  501  0.00000000000E+00  0.00000000000E+00  0.61509638494E+03  0.61509638494E+03  0.00000000000E+00 0.  1.
         21   -1    0    0  504  502 -0.00000000000E+00 -0.00000000000E+00 -0.58487358829E+03  0.58487358829E+03  0.00000000000E+00 0.  1.
         25    1    1    2    0    0  0.14708611411E+03  0.13755057008E+03 -0.19236889249E+03  0.30526263297E+03  0.12500000000E+03 0.  0.
         21    1    1    2  503  502 -0.14930475961E+03 -0.16234531578E+03 -0.29953917730E+03  0.37198337534E+03  0.00000000000E+00 0.  1.
         21    1    1    2  504  501  0.22186455026E+01  0.24794745699E+02  0.52213086644E+03  0.52272396491E+03  0.00000000000E+00 0.  1.
<mgrwt>
<rscale>  4 0.24690451E+03</rscale>
<asrwt>0</asrwt>
<pdfrwt beam="1">  1       21 0.94630213E-01 0.24690451E+03</pdfrwt>
<pdfrwt beam="2">  1       21 0.89980552E-01 0.24690451E+03</pdfrwt>
<totfact> 0.93514867E+02</totfact>
</mgrwt>
</event>
<event>
 5    0  0.1200001E+000  0.3827423E+03  0.7546771E-02  0.1049925E+00
         21   -1    0    0  503  501  0.00000000000E+00  0.00000000000E+00  0.90694708116E+03  0.90694708116E+03  0.00000000000E+00 0.  1.
         21   -1    0    0  501  502 -0.00000000000E+00 -0.00000000000E+00 -0.18268986486E+03  0.18268986486E+03  0.00000000000E+00 0. -1.
         25    1    1    2    0    0  0.34105184003E+03  0.33601742259E+02  0.40757341975E+03  0.54697945771E+03  0.12500000000E+03 0.  0.
         21    1    1    2  503  504  0.32519283550E+02 -0.75720431189E+01  0.10994470781E+03  0.11490290864E+03  0.00000000000E+00 0.  1.
         21    1    1    2  504  502 -0.37357112358E+03 -0.26029699140E+02  0.20673908874E+03  0.42775457967E+03  0.00000000000E+00 0. -1.
<mgrwt>
<rscale>  4 0.38274229E+03</rscale>
<asrwt>0</asrwt>
<pdfrwt beam="1">  1       21 0.13953032E+00 0.38274229E+03</pdfrwt>
<pdfrwt beam="2">  1       21 0.28106134E-01 0.38274229E+03</pdfrwt>
<totfact> 0.38930828E+03</totfact>
</mgrwt>
</event>
<event>
 5    0  0.1200001E+000  0.2992469E+03  0.7546771E-02  0.1085618E+00
         21   -1    0    0  503  501  0.00000000000E+00  0.00000000000E+00  0.10095813931E+04  0.10095813931E+04  0.00000000000E+00 0. -1.
         21   -1    0    0  504  502 -0.00000000000E+00 -0.00000000000E+00 -0.49968912221E+03  0.49968912221E+03  0.00000000000E+00 0.  1.
         25    1    1    2    0    0  0.21501687744E+03 -0.13001245417E+01 -0.31753716099E+03  0.40334699270E+03  0.12500000000E+03 0.  0.
         21    1    1    2  503  502  0.74004589417E+01 -0.16481395492E+03 -0.60413296709E+02  0.17569340611E+03  0.00000000000E+00 0.  1.
         21    1    1    2  504  501 -0.22241733638E+03  0.16611407947E+03  0.88784272862E+03  0.93023011652E+03  0.00000000000E+00 0. -1.
<mgrwt>
<rscale>  4 0.29924686E+03</rscale>
<asrwt>0</asrwt>
<pdfrwt beam="1">  1       21 0.15532021E+00 0.29924686E+03</pdfrwt>
<pdfrwt beam="2">  1       21 0.76875250E-01 0.29924686E+03</pdfrwt>
<totfact> 0.37061775E+02</totfact>
</mgrwt>
</event>
<event>
 5    0  0.1709960E+000  0.2826401E+03  0.7546771E-02  0.1094256E+00
         21   -1    0    0  503  501  0.00000000000E+00  0.00000000000E+00  0.15045155663E+03  0.15045155663E+03  0.00000000000E+00 0.  1.
         21   -1    0    0  504  502 -0.00000000000E+00 -0.00000000000E+00 -0.52017248222E+03  0.52017248222E+03  0.00000000000E+00 0.  1.
         25    1    1    2    0    0  0.25917460892E+03  0.13520512062E+02 -0.18417822478E+03  0.34190773702E+03  0.12500000000E+03 0.  0.
         21    1    1    2  503  502 -0.24705210043E+03 -0.30405649693E+02 -0.18007386073E+03  0.30722278428E+03  0.00000000000E+00 0.  1.
         21    1    1    2  504  501 -0.12122508488E+02  0.16885137632E+02 -0.54688400757E+01  0.21493517549E+02  0.00000000000E+00 0. -1.
<mgrwt>
<rscale>  4 0.28264010E+03</rscale>
<asrwt>0</asrwt>
<pdfrwt beam="1">  1       21 0.23146393E-01 0.28264010E+03</pdfrwt>
<pdfrwt beam="2">  1       21 0.80026536E-01 0.28264010E+03</pdfrwt>
<totfact> 0.23034046E+04</totfact>
</mgrwt>
</event>
<event>
 5    0  0.1200001E+000  0.2601093E+03  0.7546771E-02  0.1107078E+00
         21   -1    0    0  503  501  0.00000000000E+00  0.00000000000E+00  0.25453410502E+03  0.25453410502E+03  0.00000000000E+00 0. -1.
         21   -1    0    0  501  502 -0.00000000000E+00 -0.00000000000E+00 -0.55580789304E+03  0.55580789304E+03  0.00000000000E+00 0. -1.
         25    1    1    2    0    0 -0.12077803012E+03 -0.19782169272E+03 -0.32670501512E+03  0.41962116435E+03  0.12500000000E+03 0.  0.
         21    1    1    2  503  504  0.73661790979E+02 -0.27706907977E+02  0.11848543961E+03  0.14224110377E+03  0.00000000000E+00 0. -1.
         21    1    1    2  504  502  0.47116239136E+02  0.22552860070E+03 -0.93054212516E+02  0.24847972994E+03  0.00000000000E+00 0. -1.
<mgrwt>
<rscale>  4 0.26010929E+03</rscale>
<asrwt>0</asrwt>
<pdfrwt beam="1">  1       21 0.39159093E-01 0.26010929E+03</pdfrwt>
<pdfrwt beam="2">  1       21 0.85508906E-01 0.26010929E+03</pdfrwt>
<totfact> 0.71114768E+03</totfact>
</mgrwt>
</event>
<event>
 5    0  0.1200001E+000  0.6103468E+03  0.7546771E-02  0.9884169E-01
         21   -1    0    0  503  501  0.00000000000E+00  0.00000000000E+00  0.62366076608E+03  0.62366076608E+03  0.00000000000E+00 0. -1.
         21   -1    0    0  501  502 -0.00000000000E+00 -0.00000000000E+00 -0.71818820619E+03  0.71818820619E+03  0.00000000000E+00 0. -1.
         25    1    1    2    0    0  0.65884491076E+02 -0.60196736225E+03 -0.20478147038E+03  0.65135698507E+03  0.12500000000E+03 0.  0.
         21    1    1    2  503  504 -0.19835927134E+02  0.17102216738E+02  0.10037290718E+03  0.10373365085E+03  0.00000000000E+00 0.  1.
         21    1    1    2  504  502 -0.46048563942E+02  0.58486514552E+03  0.98811230945E+01  0.58675833635E+03  0.00000000000E+00 0. -1.
<mgrwt>
<rscale>  4 0.61034680E+03</rscale>
<asrwt>0</asrwt>
<pdfrwt beam="1">  1       21 0.95947811E-01 0.61034680E+03</pdfrwt>
<pdfrwt beam="2">  1       21 0.11049049E+00 0.61034680E+03</pdfrwt>
<totfact> 0.45971803E+02</totfact>
</mgrwt>
</event>
<event>
 5    0  0.1200001E+000  0.2723197E+03  0.7546771E-02  0.1099959E+00
         21   -1    0    0  503  501  0.00000000000E+00  0.00000000000E+00  0.31978033484E+03  0.31978033484E+03  0.00000000000E+00 0.  1.
         21   -1    0    0  504  502 -0.00000000000E+00 -0.00000000000E+00 -0.24597099290E+03  0.24597099290E+03  0.00000000000E+00 0.  1.
         25    1    1    2    0    0 -0.23890432884E+03 -0.33108868436E+00 -0.25296129692E+01  0.26964196057E+03  0.12500000000E+03 0.  0.
         21    1    1    2  503  502  0.24433768734E+03  0.29516447582E+02  0.40257419171E+02  0.24938481496E+03  0.00000000000E+00 0.  1.
         21    1    1    2  504  501 -0.54333584996E+01 -0.29185358898E+02  0.36081535735E+02  0.46724552214E+02  0.00000000000E+00 0.  1.
<mgrwt>
<rscale>  4 0.27231974E+03</rscale>
<asrwt>0</asrwt>
<pdfrwt beam="1">  1       21 0.49196975E-01 0.27231974E+03</pdfrwt>
<pdfrwt beam="2">  1       21 0.37841691E-01 0.27231974E+03</pdfrwt>
<totfact> 0.25516690E+04</totfact>
</mgrwt>
</event>
<event>
 5    0  0.1200001E+000  0.2052868E+03  0.7546771E-02  0.1145354E+00
         21   -1    0    0  503  501  0.00000000000E+00  0.00000000000E+00  0.24923217481E+03  0.24923217481E+03  0.00000000000E+00 0.  1.
         21   -1    0    0  501  502 -0.00000000000E+00 -0.00000000000E+00 -0.10070707964E+04  0.10070707964E+04  0.00000000000E+00 0.  1.
         25    1    1    2    0    0 -0.20484244187E+03  0.45148293109E+02 -0.10430686653E+03  0.26552535993E+03  0.12500000000E+03 0.  0.
         21    1    1    2  503  504  0.51450404438E+02 -0.56705362147E+01  0.15679394858E+03  0.16511705366E+03  0.00000000000E+00 0.  1.
         21    1    1    2  504  502  0.15339203743E+03 -0.39477756894E+02 -0.81032570365E+03  0.82566055763E+03  0.00000000000E+00 0.  1.
<mgrwt>
<rscale>  4 0.20528681E+03</rscale>
<asrwt>0</asrwt>
<pdfrwt beam="1">  1       21 0.38343411E-01 0.20528681E+03</pdfrwt>
<pdfrwt beam="2">  1       21 0.15493397E+00 0.20528681E+03</pdfrwt>
<totfact> 0.17778959E+03</totfact>
</mgrwt>
</event>
<event>
 5    0  0.1200001E+000  0.2566592E+03  0.7546771E-02  0.1109167E+00
         21   -1    0    0  502  501  0.00000000000E+00  0.00000000000E+00  0.11067369593E+03  0.11067369593E+03  0.00000000000E+00 0.  1.
         21   -1    0    0  503  502 -0.00000000000E+00 -0.00000000000E+00 -0.85803853241E+03  0.85803853241E+03  0.00000000000E+00 0.  1.
         25    1    1    2    0    0  0.13698838673E+02  0.23022836615E+03 -0.53797820889E+03  0.59853012623E+03  0.12500000000E+03 0.  0.
         21    1    1    2  503  504  0.78480071201E+02 -0.28716463096E+02 -0.61818394918E+02  0.10394840441E+03  0.00000000000E+00 0.  1.
         21    1    1    2  504  501 -0.92178909875E+02 -0.20151190305E+03 -0.14756823267E+03  0.26623369770E+03  0.00000000000E+00 0.  1.
<mgrwt>
<rscale>  4 0.25665918E+03</rscale>
<asrwt>0</asrwt>
<pdfrwt beam="1">  1       21 0.17026722E-01 0.25665918E+03</pdfrwt>
<pdfrwt beam="2">  1       21 0.13200593E+00 0.25665918E+03</pdfrwt>
<totfact> 0.12423321E+04</totfact>
</mgrwt>
</event>
<event>
 5    0  0.1200001E+000  0.2974196E+03  0.7546771E-02  0.1086538E+00
         21   -1    0    0  502  501  0.00000000000E+00  0.00000000000E+00  0.76898533314E+03  0.76898533314E+03  0.00000000000E+00 0. -1.
         21   -1    0    0  503  502 -0.00000000000E+00 -0.00000000000E+00 -0.13903518606E+03  0.13903518606E+03  0.00000000000E+00 0. -1.
         25    1    1    2    0    0 -0.21314766315E+03 -0.17008786288E+03  0.13484309401E+03  0.32889126989E+03  0.12500000000E+03 0.  0.
         21    1    1    2  503  504  0.26956092835E+02 -0.19335961798E+02  0.76272521964E+02  0.83174563217E+02  0.00000000000E+00 0.  1.
         21    1    1    2  504  501  0.18619157032E+03  0.18942382467E+03  0.41883453110E+03  0.49595468609E+03  0.00000000000E+00 0. -1.
<mgrwt>
<rscale>  4 0.29741958E+03</rscale>
<asrwt>0</asrwt>
<pdfrwt beam="1">  1       21 0.11830543E+00 0.29741958E+03</pdfrwt>
<pdfrwt beam="2">  1       21 0.21390029E-01 0.29741958E+03</pdfrwt>
<totfact> 0.10469790E+04</totfact>
</mgrwt>
</event>
<event>
 5    0  0.1200001E+000  0.2436344E+03  0.7546771E-02  0.1117395E+00
         21   -1    0    0  503  501  0.00000000000E+00  0.00000000000E+00  0.65804469918E+03  0.65804469918E+03  0.00000000000E+00 0. -1.
         21   -1    0    0  504  502 -0.00000000000E+00 -0.00000000000E+00 -0.16347190457E+03  0.16347190457E+03  0.00000000000E+00 0. -1.
         25    1    1    2    0    0  0.14150200277E+03  0.14318390555E+03  0.77299111997E+02  0.24924806982E+03  0.12500000000E+03 0.  0.
         21    1    1    2  503  502 -0.16992037559E+03 -0.13526352916E+03  0.76565581792E+02  0.23028557201E+03  0.00000000000E+00 0. -1.
         21    1    1    2  504  501  0.28418372822E+02 -0.79203763863E+01  0.34070810082E+03  0.34198296192E+03  0.00000000000E+00 0. -1.
<mgrwt>
<rscale>  4 0.24363444E+03</rscale>
<asrwt>0</asrwt>
<pdfrwt beam="1">  1       21 0.10123764E+00 0.24363444E+03</pdfrwt>
<pdfrwt beam="2">  1       21 0.25149524E-01 0.24363444E+03</pdfrwt>
<totfact> 0.11560699E+04</totfact>
</mgrwt>
</event>
<event>
 5    0  0.1200001E+000  0.2564052E+03  0.7546771E-02  0.1109322E+00
         21   -1    0    0  503  501  0.00000000000E+00  0.00000000000E+00  0.36592427828E+03  0.36592427828E+03  0.00000000000E+00 0.  1.
         21   -1    0    0  501  502 -0.00000000000E+00 -0.00000000000E+00 -0.22516854419E+03  0.22516854419E+03  0.00000000000E+00 0.  1.
         25    1    1    2    0    0 -0.15918140055E+03  0.14342937910E+03  0.55050107249E+02  0.25409883781E+03  0.12500000000E+03 0.  0.
         21    1    1    2  503  504  0.36324908586E+02  0.57699580827E+02  0.74578899747E+02  0.10104827014E+03  0.00000000000E+00 0.  1.
         21    1    1    2  504  502  0.12285649197E+03 -0.20112895992E+03  0.11126727096E+02  0.23594571451E+03  0.00000000000E+00 0.  1.
<mgrwt>
<rscale>  4 0.25640521E+03</rscale>
<asrwt>0</asrwt>
<pdfrwt beam="1">  1       21 0.56296043E-01 0.25640521E+03</pdfrwt>
<pdfrwt beam="2">  1       21 0.34641315E-01 0.25640521E+03</pdfrwt>
<totfact> 0.23064459E+04</totfact>
</mgrwt>
</event>
<event>
 5    0  0.1200001E+000  0.3919246E+03  0.7546771E-02  0.1046612E+00
         21   -1    0    0  503  501  0.00000000000E+00  0.00000000000E+00  0.97148515826E+03  0.97148515826E+03  0.00000000000E+00 0. -1.
         21   -1    0    0  501  502 -0.00000000000E+00 -0.00000000000E+00 -0.21417913928E+03  0.21417913928E+03  0.00000000000E+00 0. -1.
         25    1    1    2    0    0 -0.21867488038E+03  0.27064653388E+03  0.24439758587E+03  0.44319682940E+03  0.12500000000E+03 0.  0.
         21    1    1    2  503  504 -0.68467478630E+02  0.41648627057E+01  0.26568157522E+03  0.27439358797E+03  0.00000000000E+00 0. -1.
         21    1    1    2  504  502  0.28714235901E+03 -0.27481139658E+03  0.24722685790E+03  0.46807388017E+03  0.00000000000E+00 0. -1.
<mgrwt>
<rscale>  4 0.39192461E+03</rscale>
<asrwt>0</asrwt>
<pdfrwt beam="1">  1       21 0.14945925E+00 0.39192461E+03</pdfrwt>
<pdfrwt beam="2">  1       21 0.32950637E-01 0.39192461E+03</pdfrwt>
<totfact> 0.23535681E+03</totfact>
</mgrwt>
</event>
<event>
 5    0  0.1200001E+000  0.2767540E+03  0.7546771E-02  0.1097475E+00
         21   -1    0    0  502  501  0.00000000000E+00  0.00000000000E+00  0.41588963714E+03  0.41588963714E+03  0.00000000000E+00 0. -1.
         21   -1    0    0  504  502 -0.00000000000E+00 -0.00000000000E+00 -0.35755299003E+03  0.35755299003E+03  0.00000000000E+00 0. -1.
         25    1    1    2    0    0  0.20815942570E+03  0.13280597534E+03 -0.24824922102E+03  0.37178010884E+03  0.12500000000E+03 0.  0.
         21    1    1    2  503  501 -0.38530970790E+02 -0.61945505748E+02  0.62301796493E+02  0.95934327739E+02  0.00000000000E+00 0. -1.
         21    1    1    2  504  503 -0.16962845491E+03 -0.70860469588E+02  0.24428407164E+03  0.30572819059E+03  0.00000000000E+00 0. -1.
<mgrwt>
<rscale>  4 0.27675399E+03</rscale>
<asrwt>0</asrwt>
<pdfrwt beam="1">  1       21 0.63983021E-01 0.27675399E+03</pdfrwt>
<pdfrwt beam="2">  1       21 0.55008152E-01 0.27675399E+03</pdfrwt>
<totfact> 0.66688352E+03</totfact>
</mgrwt>
</event>
<event>
 5    0  0.1347799E+000  0.2253345E+03  0.7546771E-02  0.1129967E+00
         21   -1    0    0  503  501  0.00000000000E+00  0.00000000000E+00  0.81442531867E+03  0.81442531867E+03  0.00000000000E+00 0. -1.
         21   -1    0    0  504  502 -0.00000000000E+00 -0.00000000000E+00 -0.50501175416E+03  0.50501175416E+03  0.00000000000E+00 0.  1.
         25    1    1    2    0    0  0.17374038901E+03  0.10732119643E+03 -0.37576595900E+03  0.44556550352E+03  0.12500000000E+03 0.  0.
         21    1    1    2  503  502 -0.13513037593E+03 -0.78440462610E+02 -0.28279136836E+02  0.15878549761E+03  0.00000000000E+00 0.  1.
         21    1    1    2  504  501 -0.38610013086E+02 -0.28880733817E+02  0.71345866036E+03  0.71508607170E+03  0.00000000000E+00 0. -1.
<mgrwt>
<rscale>  4 0.22533449E+03</rscale>
<asrwt>0</asrwt>
<pdfrwt beam="1">  1       21 0.12529620E+00 0.22533449E+03</pdfrwt>
<pdfrwt beam="2">  1       21 0.77694116E-01 0.22533449E+03</pdfrwt>
<totfact> 0.67389246E+02</totfact>
</mgrwt>
</event>
<event>
 5    0  0.1200001E+000  0.2983154E+03  0.7546771E-02  0.1086086E+00
         21   -1    0    0  503  501  0.00000000000E+00  0.00000000000E+00  0.53728002734E+03  0.53728002734E+03  0.00000000000E+00 0.  1.
         21   -1    0    0  501  502 -0.00000000000E+00 -0.00000000000E+00 -0.30158058426E+03  0.30158058426E+03  0.00000000000E+00 0. -1.
         25    1    1    2    0    0 -0.14134883862E+03 -0.28906526933E+03  0.22782145353E+02  0.34595122526E+03  0.12500000000E+03 0.  0.
         21    1    1    2  503  504  0.33806949806E+02  0.73583590014E+02  0.23740967524E+03  0.25084020505E+03  0.00000000000E+00 0.  1.
         21    1    1    2  504  502  0.10754188881E+03  0.21548167932E+03 -0.24492377503E+02  0.24206918128E+03  0.00000000000E+00 0. -1.
<mgrwt>
<rscale>  4 0.29831545E+03</rscale>
<asrwt>0</asrwt>
<pdfrwt beam="1">  1       21 0.82658465E-01 0.29831545E+03</pdfrwt>
<pdfrwt beam="2">  1       21 0.46397013E-01 0.29831545E+03</pdfrwt>
<totfact> 0.53156988E+03</totfact>
</mgrwt>
</event>
<event>
 5    0  0.1200001E+000  0.4647753E+03  0.7546771E-02  0.1023405E+00
         21   -1    0    0  503  501  0.00000000000E+00  0.00000000000E+00  0.83407579677E+03  0.83407579677E+03  0.00000000000E+00 0.  1.
         21   -1    0    0  504  502 -0.00000000000E+00 -0.00000000000E+00 -0.30876983844E+03  0.30876983844E+03  0.00000000000E+00 0. -1.
         25    1    1    2    0    0  0.26606496983E+03  0.36384379917E+03  0.55657903223E+02  0.47105804372E+03  0.12500000000E+03 0.  0.
         21    1    1    2  503  502 -0.23288810355E+03 -0.37627941302E+03  0.41507005592E+03  0.60671757578E+03  0.00000000000E+00 0.  1.
         21    1    1    2  504  501 -0.33176866275E+02  0.12435613849E+02  0.54577999183E+02  0.65070015694E+02  0.00000000000E+00 0. -1.
<mgrwt>
<rscale>  4 0.46477534E+03</rscale>
<asrwt>0</asrwt>
<pdfrwt beam="1">  1       21 0.12831935E+00 0.46477534E+03</pdfrwt>
<pdfrwt beam="2">  1       21 0.47503052E-01 0.46477534E+03</pdfrwt>
<totfact> 0.16110855E+03</totfact>
</mgrwt>
</event>
<event>
 5    0  0.1200001E+000  0.2509993E+03  0.7546771E-02  0.1112675E+00
         21   -1    0    0  503  501  0.00000000000E+00  0.00000000000E+00  0.96599211173E+03  0.96599211173E+03  0.00000000000E+00 0. -1.
         21   -1    0    0  504  502 -0.00000000000E+00 -0.00000000000E+00 -0.66481514400E+02  0.66481514400E+02  0.00000000000E+00 0. -1.
         25    1    1    2    0    0 -0.11585971847E+03  0.18648351819E+03  0.45528642197E+03  0.52068253567E+03  0.12500000000E+03 0.  0.
         21    1    1    2  503  502  0.90735243056E+02 -0.19702444732E+03  0.42864842111E+03  0.48040710454E+03  0.00000000000E+00 0. -1.
         21    1    1    2  504  501  0.25124475412E+02  0.10540929137E+02  0.15575754250E+02  0.31383985921E+02  0.00000000000E+00 0. -1.
<mgrwt>
<rscale>  4 0.25099931E+03</rscale>
<asrwt>0</asrwt>
<pdfrwt beam="1">  1       21 0.14861416E+00 0.25099931E+03</pdfrwt>
<pdfrwt beam="2">  1       21 0.10227926E-01 0.25099931E+03</pdfrwt>
<totfact> 0.23069787E+04</totfact>
</mgrwt>
</event>
<event>
 5    0  0.1200001E+000  0.2793508E+03  0.7546771E-02  0.1096044E+00
         21   -1    0    0  503  501  0.00000000000E+00  0.00000000000E+00  0.41893191081E+02  0.41893191081E+02  0.00000000000E+00 0.  1.
         21   -1    0    0  504  502 -0.00000000000E+00 -0.00000000000E+00 -0.26336972355E+04  0.26336972355E+04  0.00000000000E+00 0.  1.
         25    1    1    2    0    0 -0.11846027849E+03  0.21995227872E+03 -0.20968128235E+04  0.21153394195E+04  0.12500000000E+03 0.  0.
         21    1    1    2  503  502  0.90408982409E+02 -0.19407940356E+03 -0.46427006957E+03  0.51126049767E+03  0.00000000000E+00 0.  1.
         21    1    1    2  504  501  0.28051296078E+02 -0.25872875164E+02 -0.30721151351E+02  0.48990509502E+02  0.00000000000E+00 0. -1.
<mgrwt>
<rscale>  4 0.27935075E+03</rscale>
<asrwt>0</asrwt>
<pdfrwt beam="1">  1       21 0.64451065E-02 0.27935075E+03</pdfrwt>
<pdfrwt beam="2">  1       21 0.40518418E+00 0.27935075E+03</pdfrwt>
<totfact> 0.12652467E+03</totfact>
</mgrwt>
</event>
<event>
 5    0  0.1200001E+000  0.3179749E+03  0.7546771E-02  0.1076585E+00
         21   -1    0    0  503  501  0.00000000000E+00  0.00000000000E+00  0.80806849740E+03  0.80806849740E+03  0.00000000000E+00 0. -1.
         21   -1    0    0  501  502 -0.00000000000E+00 -0.00000000000E+00 -0.12450304175E+03  0.12450304175E+03  0.00000000000E+00 0. -1.
         25    1    1    2    0    0 -0.26379226431E+03  0.10060464492E+03  0.36436728341E+03  0.47759414832E+03  0.12500000000E+03 0.  0.
         21    1    1    2  503  504 -0.20566388025E+02 -0.27661703359E+01  0.37850773325E+02  0.43166063708E+02  0.00000000000E+00 0.  1.
         21    1    1    2  504  502  0.28435865234E+03 -0.97838474581E+02  0.28134739892E+03  0.41181132712E+03  0.00000000000E+00 0. -1.
<mgrwt>
<rscale>  4 0.31797494E+03</rscale>
<asrwt>0</asrwt>
<pdfrwt beam="1">  1       21 0.12431823E+00 0.31797494E+03</pdfrwt>
<pdfrwt beam="2">  1       21 0.19154315E-01 0.31797494E+03</pdfrwt>
<totfact> 0.11276006E+04</totfact>
</mgrwt>
</event>
<event>
 5    0  0.1200001E+000  0.2831507E+03  0.7546771E-02  0.1093980E+00
         21   -1    0    0  502  501  0.00000000000E+00  0.00000000000E+00  0.25605977617E+04  0.25605977617E+04  0.00000000000E+00 0. -1.
         21   -1    0    0  503  502 -0.00000000000E+00 -0.00000000000E+00 -0.69459954922E+02  0.69459954922E+02  0.00000000000E+00 0.  1.
         25    1    1    2    0    0 -0.12967199717E+03 -0.22240585828E+03  0.28244030390E+03  0.40209043499E+03  0.12500000000E+03 0.  0.
         21    1    1    2  503  504 -0.29082513195E+02  0.43195814713E+02  0.33173342775E+03  0.33579567905E+03  0.00000000000E+00 0. -1.
         21    1    1    2  504  501  0.15875451036E+03  0.17921004357E+03  0.18769640752E+04  0.18921716026E+04  0.00000000000E+00 0. -1.
<mgrwt>
<rscale>  4 0.28315070E+03</rscale>
<asrwt>0</asrwt>
<pdfrwt beam="1">  1       21 0.39393804E+00 0.28315070E+03</pdfrwt>
<pdfrwt beam="2">  1       21 0.10686149E-01 0.28315070E+03</pdfrwt>
<totfact> 0.60938569E+02</totfact>
</mgrwt>
</event>
<event>
 5    0  0.1200001E+000  0.3690172E+03  0.7546771E-02  0.1055069E+00
         21   -1    0    0  503  501  0.00000000000E+00  0.00000000000E+00  0.61599007176E+03  0.61599007176E+03  0.00000000000E+00 0.  1.
         21   -1    0    0  504  502 -0.00000000000E+00 -0.00000000000E+00 -0.88461780567E+03  0.88461780567E+03  0.00000000000E+00 0. -1.
         25    1    1    2    0    0  0.25435132212E+02 -0.39626456253E+03 -0.45031557543E+03  0.61325497710E+03  0.12500000000E+03 0.  0.
         21    1    1    2  503  502 -0.42064197369E+02  0.30345797217E+03 -0.28066386034E+03  0.41548566771E+03  0.00000000000E+00 0. -1.
         21    1    1    2  504  501  0.16629065158E+02  0.92806590362E+02  0.46235170185E+03  0.47186723263E+03  0.00000000000E+00 0.  1.
<mgrwt>
<rscale>  4 0.36901717E+03</rscale>
<asrwt>0</asrwt>
<pdfrwt beam="1">  1       21 0.94767703E-01 0.36901717E+03</pdfrwt>
<pdfrwt beam="2">  1       21 0.13609505E+00 0.36901717E+03</pdfrwt>
<totfact> 0.30909528E+02</totfact>
</mgrwt>
</event>
<event>
 5    0  0.1200001E+000  0.2485413E+03  0.7546771E-02  0.1114230E+00
         21   -1    0    0  502  501  0.00000000000E+00  0.00000000000E+00  0.30245979722E+03  0.30245979722E+03  0.00000000000E+00 0.  1.
         21   -1    0    0  503  502 -0.00000000000E+00 -0.00000000000E+00 -0.76517774101E+03  0.76517774101E+03  0.00000000000E+00 0. -1.
         25    1    1    2    0    0 -0.73297721033E+02  0.21114235562E+03 -0.66898738434E+03  0.71632588300E+03  0.12500000000E+03 0.  0.
         21    1    1    2  503  504 -0.40656228973E+02 -0.10446256014E+03  0.30367170381E+02  0.11613578459E+03  0.00000000000E+00 0.  1.
         21    1    1    2  504  501  0.11395395001E+03 -0.10667979548E+03  0.17590227017E+03  0.23517587065E+03  0.00000000000E+00 0.  1.
<mgrwt>
<rscale>  4 0.24854129E+03</rscale>
<asrwt>0</asrwt>
<pdfrwt beam="1">  1       21 0.46532276E-01 0.24854129E+03</pdfrwt>
<pdfrwt beam="2">  1       21 0.11771965E+00 0.24854129E+03</pdfrwt>
<totfact> 0.23405344E+03</totfact>
</mgrwt>
</event>
<event>
 5    0  0.1200001E+000  0.2291053E+03  0.7546771E-02  0.1127271E+00
         21   -1    0    0  503  501  0.00000000000E+00  0.00000000000E+00  0.56789859031E+03  0.56789859031E+03  0.00000000000E+00 0. -1.
         21   -1    0    0  501  502 -0.00000000000E+00 -0.00000000000E+00 -0.92079401525E+02  0.92079401525E+02  0.00000000000E+00 0. -1.
         25    1    1    2    0    0 -0.78749957731E+02 -0.18821994888E+03  0.25267463108E+03  0.34799105475E+03  0.12500000000E+03 0.  0.
         21    1    1    2  503  504 -0.10370599647E+02  0.27038610480E+02  0.57036710698E+02  0.63967352305E+02  0.00000000000E+00 0.  1.
         21    1    1    2  504  502  0.89120557378E+02  0.16118133840E+03  0.16610784701E+03  0.24801958478E+03  0.00000000000E+00 0. -1.
<mgrwt>
<rscale>  4 0.22910529E+03</rscale>
<asrwt>0</asrwt>
<pdfrwt beam="1">  1       21 0.87369012E-01 0.22910529E+03</pdfrwt>
<pdfrwt beam="2">  1       21 0.14166062E-01 0.22910529E+03</pdfrwt>
<totfact> 0.48107871E+04</totfact>
</mgrwt>
</event>
<event>
 5    0  0.1200001E+000  0.2557868E+03  0.7546771E-02  0.1109701E+00
         21   -1    0    0  502  501  0.00000000000E+00  0.00000000000E+00  0.36222879510E+03  0.36222879510E+03  0.00000000000E+00 0.  1.
         21   -1    0    0  503  502 -0.00000000000E+00 -0.00000000000E+00 -0.41839091644E+03  0.41839091644E+03  0.00000000000E+00 0.  1.
         25    1    1    2    0    0  0.52724809067E+02 -0.20220541744E+03 -0.22567157333E+03  0.33199336641E+03  0.12500000000E+03 0.  0.
         21    1    1    2  503  504 -0.79330601817E+02 -0.91131668791E+02  0.50324715152E+02  0.13088507324E+03  0.00000000000E+00 0.  1.
         21    1    1    2  504  501  0.26605792750E+02  0.29333708623E+03  0.11918473684E+03  0.31774127189E+03  0.00000000000E+00 0.  1.
<mgrwt>
<rscale>  4 0.25578681E+03</rscale>
<asrwt>0</asrwt>
<pdfrwt beam="1">  1       21 0.55727507E-01 0.25578681E+03</pdfrwt>
<pdfrwt beam="2">  1       21 0.64367833E-01 0.25578681E+03</pdfrwt>
<totfact> 0.64765567E+03</totfact>
</mgrwt>
</event>
<event>
 5    0  0.1200001E+000  0.2550098E+03  0.7546771E-02  0.1110179E+00
         21   -1    0    0  503  501  0.00000000000E+00  0.00000000000E+00  0.84237893360E+03  0.84237893360E+03  0.00000000000E+00 0. -1.
         21   -1    0    0  504  502 -0.00000000000E+00 -0.00000000000E+00 -0.17362981672E+03  0.17362981672E+03  0.00000000000E+00 0. -1.
         25    1    1    2    0    0  0.13718924215E+03  0.25862804012E+03  0.40895585935E+03  0.51824631807E+03  0.12500000000E+03 0.  0.
         21    1    1    2  503  502  0.27633311921E+02 -0.15495596353E+03 -0.18103344366E+02  0.15843825812E+03  0.00000000000E+00 0. -1.
         21    1    1    2  504  501 -0.16482255407E+03 -0.10367207660E+03  0.27789660190E+03  0.33932417412E+03  0.00000000000E+00 0. -1.
<mgrwt>
<rscale>  4 0.25500984E+03</rscale>
<asrwt>0</asrwt>
<pdfrwt beam="1">  1       21 0.12959676E+00 0.25500984E+03</pdfrwt>
<pdfrwt beam="2">  1       21 0.26712280E-01 0.25500984E+03</pdfrwt>
<totfact> 0.55584488E+03</totfact>
</mgrwt>
</event>
<event>
 5    0  0.1200001E+000  0.4117607E+03  0.7546771E-02  0.1039782E+00
         21   -1    0    0  503  501  0.00000000000E+00  0.00000000000E+00  0.50118471093E+03  0.50118471093E+03  0.00000000000E+00 0. -1.
         21   -1    0    0  504  502 -0.00000000000E+00 -0.00000000000E+00 -0.36728981876E+03  0.36728981876E+03  0.00000000000E+00 0. -1.
         25    1    1    2    0    0 -0.37961449652E+03 -0.13825172680E+03 -0.19165998257E+01  0.42290587521E+03  0.12500000000E+03 0.  0.
         21    1    1    2  503  502  0.36247999303E+03  0.11166103517E+03  0.89870938863E+02  0.38979060760E+03  0.00000000000E+00 0. -1.
         21    1    1    2  504  501  0.17134503496E+02  0.26590691629E+02  0.45940553131E+02  0.55778046876E+02  0.00000000000E+00 0.  1.
<mgrwt>
<rscale>  4 0.41176066E+03</rscale>
<asrwt>0</asrwt>
<pdfrwt beam="1">  1       21 0.77105340E-01 0.41176066E+03</pdfrwt>
<pdfrwt beam="2">  1       21 0.56506126E-01 0.41176066E+03</pdfrwt>
<totfact> 0.39054496E+03</totfact>
</mgrwt>
</event>
<event>
 5    0  0.1200001E+000  0.2750496E+03  0.7546771E-02  0.1098424E+00
         21   -1    0    0  502  501  0.00000000000E+00  0.00000000000E+00  0.17368766031E+04  0.17368766031E+04  0.00000000000E+00 0. -1.
         21   -1    0    0  504  502 -0.00000000000E+00 -0.00000000000E+00 -0.10121098007E+03  0.10121098007E+03  0.00000000000E+00 0.  1.
         25    1    1    2    0    0  0.24422474591E+03  0.60342285107E+02  0.13555774980E+03  0.31190995723E+03  0.12500000000E+03 0.  0.
         21    1    1    2  503  501 -0.19096262538E+03 -0.98371868242E+02  0.11911228350E+04  0.12103377036E+04  0.00000000000E+00 0. -1.
         21    1    1    2  504  503 -0.53262120529E+02  0.38029583135E+02  0.30898503830E+03  0.31583992238E+03  0.00000000000E+00 0. -1.
<mgrwt>
<rscale>  4 0.27504955E+03</rscale>
<asrwt>0</asrwt>
<pdfrwt beam="1">  1       21 0.26721176E+00 0.27504955E+03</pdfrwt>
<pdfrwt beam="2">  1       21 0.15570921E-01 0.27504955E+03</pdfrwt>
<totfact> 0.17793761E+03</totfact>
</mgrwt>
</event>
<event>
 5    0  0.1200001E+000  0.3145668E+03  0.7546771E-02  0.1078177E+00
         21   -1    0    0  503  501  0.00000000000E+00  0.00000000000E+00  0.35848460805E+03  0.35848460805E+03  0.00000000000E+00 0.  1.
         21   -1    0    0  504  502 -0.00000000000E+00 -0.00000000000E+00 -0.42965759700E+03  0.42965759700E+03  0.00000000000E+00 0.  1.
         25    1    1    2    0    0 -0.23389977072E+03 -0.13650237324E+03  0.90045602063E+02  0.31156895079E+03  0.12500000000E+03 0.  0.
         21    1    1    2  503  502  0.22287366176E+03  0.19526061409E+03 -0.23743755990E+03  0.37970511107E+03  0.00000000000E+00 0.  1.
         21    1    1    2  504  501  0.11026108966E+02 -0.58758240843E+02  0.76218968888E+02  0.96868143186E+02  0.00000000000E+00 0.  1.
<mgrwt>
<rscale>  4 0.31456683E+03</rscale>
<asrwt>0</asrwt>
<pdfrwt beam="1">  1       21 0.55151478E-01 0.31456683E+03</pdfrwt>
<pdfrwt beam="2">  1       21 0.66101169E-01 0.31456683E+03</pdfrwt>
<totfact> 0.60588036E+03</totfact>
</mgrwt>
</event>
<event>
 5    0  0.1200001E+000  0.2298398E+03  0.7546771E-02  0.1126753E+00
         21   -1    0    0  502  501  0.00000000000E+00  0.00000000000E+00  0.23572793132E+03  0.23572793132E+03  0.00000000000E+00 0. -1.
         21   -1    0    0  503  502 -0.00000000000E+00 -0.00000000000E+00 -0.35882741141E+03  0.35882741141E+03  0.00000000000E+00 0.  1.
         25    1    1    2    0    0  0.21010131048E+03 -0.99215818567E+02 -0.11791182405E+03  0.28898881911E+03  0.12500000000E+03 0.  0.
         21    1    1    2  503  504 -0.85954478807E+02  0.14879782970E+03 -0.32613961967E+01  0.17187089124E+03  0.00000000000E+00 0. -1.
         21    1    1    2  504  501 -0.12414683168E+03 -0.49582011128E+02 -0.19262598401E+01  0.13369563239E+03  0.00000000000E+00 0. -1.
<mgrwt>
<rscale>  4 0.22983985E+03</rscale>
<asrwt>0</asrwt>
<pdfrwt beam="1">  1       21 0.36265836E-01 0.22983985E+03</pdfrwt>
<pdfrwt beam="2">  1       21 0.55204217E-01 0.22983985E+03</pdfrwt>
<totfact> 0.22225915E+04</totfact>
</mgrwt>
</event>
<event>
 5    0  0.1200001E+000  0.3791273E+03  0.7546771E-02  0.1052434E+00
         21   -1    0    0  502  501  0.00000000000E+00  0.00000000000E+00  0.36233183621E+03  0.36233183621E+03  0.00000000000E+00 0. -1.
         21   -1    0    0  504  502 -0.00000000000E+00 -0.00000000000E+00 -0.11222013793E+04  0.11222013793E+04  0.00000000000E+00 0. -1.
         25    1    1    2    0    0 -0.25156112423E+03 -0.23563329347E+03 -0.97985474783E+03  0.10462057040E+04  0.12500000000E+03 0.  0.
         21    1    1    2  503  501  0.11972494634E+03  0.21069986545E+03  0.16578358879E+03  0.29361998296E+03  0.00000000000E+00 0. -1.
         21    1    1    2  504  503  0.13183617789E+03  0.24933428024E+02  0.54201615985E+02  0.14470752851E+03  0.00000000000E+00 0. -1.
<mgrwt>
<rscale>  4 0.37596832E+03</rscale>
<asrwt>0</asrwt>
<pdfrwt beam="1">  1       21 0.55743360E-01 0.37912731E+03</pdfrwt>
<pdfrwt beam="2">  1       21 0.17264636E+00 0.37912731E+03</pdfrwt>
<totfact> 0.53354758E+02</totfact>
</mgrwt>
</event>
<event>
 5    0  0.1200001E+000  0.2826254E+03  0.7546771E-02  0.1094264E+00
         21   -1    0    0  502  501  0.00000000000E+00  0.00000000000E+00  0.79798176549E+03  0.79798176549E+03  0.00000000000E+00 0. -1.
         21   -1    0    0  503  502 -0.00000000000E+00 -0.00000000000E+00 -0.94736955634E+03  0.94736955634E+03  0.00000000000E+00 0.  1.
         25    1    1    2    0    0  0.23635354112E+03  0.91592100809E+02 -0.90224421101E+03  0.94547433896E+03  0.12500000000E+03 0.  0.
         21    1    1    2  503  504 -0.43626209390E+02 -0.31934018047E+02  0.73804836045E+02  0.91488695903E+02  0.00000000000E+00 0.  1.
         21    1    1    2  504  501 -0.19272733173E+03 -0.59658082762E+02  0.67905158411E+03  0.70838828697E+03  0.00000000000E+00 0. -1.
<mgrwt>
<rscale>  4 0.28262539E+03</rscale>
<asrwt>0</asrwt>
<pdfrwt beam="1">  1       21 0.12276643E+00 0.28262539E+03</pdfrwt>
<pdfrwt beam="2">  1       21 0.14574916E+00 0.28262539E+03</pdfrwt>
<totfact> 0.14576482E+02</totfact>
</mgrwt>
</event>
<event>
 5    0  0.1200001E+000  0.2944887E+03  0.7546771E-02  0.1088029E+00
         21   -1    0    0  503  501  0.00000000000E+00  0.00000000000E+00  0.12210653114E+04  0.12210653114E+04  0.00000000000E+00 0. -1.
         21   -1    0    0  504  502 -0.00000000000E+00 -0.00000000000E+00 -0.19870993116E+03  0.19870993116E+03  0.00000000000E+00 0. -1.
         25    1    1    2    0    0 -0.20297241981E+03 -0.18994936826E+03 -0.31025297639E+02  0.30637580649E+03  0.12500000000E+03 0.  0.
         21    1    1    2  503  502  0.17294388767E+03  0.15073948730E+03  0.42402638461E+03  0.48211031534E+03  0.00000000000E+00 0. -1.
         21    1    1    2  504  501  0.30028532146E+02  0.39209880956E+02  0.62935429328E+03  0.63128912075E+03  0.00000000000E+00 0. -1.
<mgrwt>
<rscale>  4 0.29448872E+03</rscale>
<asrwt>0</asrwt>
<pdfrwt beam="1">  1       21 0.18785620E+00 0.29448872E+03</pdfrwt>
<pdfrwt beam="2">  1       21 0.30570759E-01 0.29448872E+03</pdfrwt>
<totfact> 0.15175281E+03</totfact>
</mgrwt>
</event>
<event>
 5    0  0.1200001E+000  0.2616626E+03  0.7546771E-02  0.1106148E+00
         21   -1    0    0  503  501  0.00000000000E+00  0.00000000000E+00  0.36400234471E+03  0.36400234471E+03  0.00000000000E+00 0.  1.
         21   -1    0    0  504  502 -0.00000000000E+00 -0.00000000000E+00 -0.77801807177E+03  0.77801807177E+03  0.00000000000E+00 0.  1.
         25    1    1    2    0    0  0.15970026232E+03  0.15133831792E+03 -0.16268516343E+03  0.30083038852E+03  0.12500000000E+03 0.  0.
         21    1    1    2  503  502 -0.19118376182E+03 -0.13505441267E+03 -0.51996710537E+03  0.57022514486E+03  0.00000000000E+00 0.  1.
         21    1    1    2  504  501  0.31483499502E+02 -0.16283905250E+02  0.26863654175E+03  0.27096488310E+03  0.00000000000E+00 0.  1.
<mgrwt>
<rscale>  4 0.26166265E+03</rscale>
<asrwt>0</asrwt>
<pdfrwt beam="1">  1       21 0.56000361E-01 0.26166265E+03</pdfrwt>
<pdfrwt beam="2">  1       21 0.11969509E+00 0.26166265E+03</pdfrwt>
<totfact> 0.15059388E+03</totfact>
</mgrwt>
</event>
<event>
 5    0  0.1200001E+000  0.3785114E+03  0.7546771E-02  0.1051485E+00
         21   -1    0    0  503  501  0.00000000000E+00  0.00000000000E+00  0.45205715543E+03  0.45205715543E+03  0.00000000000E+00 0. -1.
         21   -1    0    0  504  502 -0.00000000000E+00 -0.00000000000E+00 -0.73896539961E+03  0.73896539961E+03  0.00000000000E+00 0. -1.
         25    1    1    2    0    0 -0.65143189112E+02 -0.34225414407E+03 -0.43593001201E+03  0.57187543188E+03  0.12500000000E+03 0.  0.
         21    1    1    2  503  502 -0.61652799806E+02  0.39356357618E+03 -0.23409683541E+02  0.39905058514E+03  0.00000000000E+00 0. -1.
         21    1    1    2  504  501  0.12679598892E+03 -0.51309432114E+02  0.17243145136E+03  0.22009653802E+03  0.00000000000E+00 0. -1.
<mgrwt>
<rscale>  4 0.37851138E+03</rscale>
<asrwt>0</asrwt>
<pdfrwt beam="1">  1       21 0.69547256E-01 0.37851138E+03</pdfrwt>
<pdfrwt beam="2">  1       21 0.11368698E+00 0.37851138E+03</pdfrwt>
<totfact> 0.99358203E+02</totfact>
</mgrwt>
</event>
<event>
 5    0  0.1200001E+000  0.2503346E+03  0.7546771E-02  0.1113094E+00
         21   -1    0    0  503  501  0.00000000000E+00  0.00000000000E+00  0.89302325459E+03  0.89302325459E+03  0.00000000000E+00 0. -1.
         21   -1    0    0  501  502 -0.00000000000E+00 -0.00000000000E+00 -0.12935010945E+03  0.12935010945E+03  0.00000000000E+00 0. -1.
         25    1    1    2    0    0  0.12454793335E+03 -0.17630081238E+03  0.34851169274E+02  0.25186061254E+03  0.12500000000E+03 0.  0.
         21    1    1    2  503  504  0.24305776829E+02  0.10487361409E+02  0.97109934399E+02  0.10065334021E+03  0.00000000000E+00 0.  1.
         21    1    1    2  504  502 -0.14885371018E+03  0.16581345097E+03  0.63171204147E+03  0.66985941129E+03  0.00000000000E+00 0. -1.
<mgrwt>
<rscale>  4 0.25033459E+03</rscale>
<asrwt>0</asrwt>
<pdfrwt beam="1">  1       21 0.13738819E+00 0.25033459E+03</pdfrwt>
<pdfrwt beam="2">  1       21 0.19900017E-01 0.25033459E+03</pdfrwt>
<totfact> 0.84123202E+03</totfact>
</mgrwt>
</event>
<event>
 5    0  0.1200001E+000  0.2917433E+03  0.7546771E-02  0.1089442E+00
         21   -1    0    0  502  501  0.00000000000E+00  0.00000000000E+00  0.82197566051E+03  0.82197566051E+03  0.00000000000E+00 0. -1.
         21   -1    0    0  503  502 -0.00000000000E+00 -0.00000000000E+00 -0.53444098685E+03  0.53444098685E+03  0.00000000000E+00 0. -1.
         25    1    1    2    0    0 -0.58792011645E+02 -0.25696818237E+03 -0.46870246862E+03  0.55208346423E+03  0.12500000000E+03 0.  0.
         21    1    1    2  503  504 -0.11678607289E+02  0.22052328749E+02  0.38788418227E+02  0.46121973722E+02  0.00000000000E+00 0.  1.
         21    1    1    2  504  501  0.70470618934E+02  0.23491585362E+03  0.71744872405E+03  0.75821120940E+03  0.00000000000E+00 0. -1.
<mgrwt>
<rscale>  4 0.29174329E+03</rscale>
<asrwt>0</asrwt>
<pdfrwt beam="1">  1       21 0.12645779E+00 0.29174329E+03</pdfrwt>
<pdfrwt beam="2">  1       21 0.82221690E-01 0.29174329E+03</pdfrwt>
<totfact> 0.54785935E+02</totfact>
</mgrwt>
</event>
<event>
 5    0  0.1200001E+000  0.2957326E+03  0.7546771E-02  0.1087394E+00
         21   -1    0    0  503  501  0.00000000000E+00  0.00000000000E+00  0.86089286054E+02  0.86089286054E+02  0.00000000000E+00 0. -1.
         21   -1    0    0  501  502 -0.00000000000E+00 -0.00000000000E+00 -0.18240886591E+04  0.18240886591E+04  0.00000000000E+00 0.  1.
         25    1    1    2    0    0  0.57631430196E+01 -0.26093995985E+03 -0.13008315500E+04  0.13326329570E+04  0.12500000000E+03 0.  0.
         21    1    1    2  503  504 -0.82206240387E+01 -0.25161440236E+02  0.23408476176E+02  0.35336008422E+02  0.00000000000E+00 0.  1.
         21    1    1    2  504  502  0.24574810191E+01  0.28610140009E+03 -0.46057629915E+03  0.54220897972E+03  0.00000000000E+00 0. -1.
<mgrwt>
<rscale>  4 0.29573256E+03</rscale>
<asrwt>0</asrwt>
<pdfrwt beam="1">  1       21 0.13244506E-01 0.29573256E+03</pdfrwt>
<pdfrwt beam="2">  1       21 0.28062902E+00 0.29573256E+03</pdfrwt>
<totfact> 0.19608664E+03</totfact>
</mgrwt>
</event>
<event>
 5    0  0.1200001E+000  0.2449926E+03  0.7546771E-02  0.1116511E+00
         21   -1    0    0  502  501  0.00000000000E+00  0.00000000000E+00  0.63219656841E+02  0.63219656841E+02  0.00000000000E+00 0.  1.
         21   -1    0    0  504  502 -0.00000000000E+00 -0.00000000000E+00 -0.23383432419E+04  0.23383432419E+04  0.00000000000E+00 0. -1.
         25    1    1    2    0    0  0.17529614428E+03  0.11061695052E+03 -0.19484541588E+04  0.19634315513E+04  0.12500000000E+03 0.  0.
         21    1    1    2  503  501 -0.22186749390E+03 -0.79320461801E+02 -0.27066258755E+03  0.35885255580E+03  0.00000000000E+00 0.  1.
         21    1    1    2  504  503  0.46571349616E+02 -0.31296488722E+02 -0.56006838726E+02  0.79278791587E+02  0.00000000000E+00 0. -1.
<mgrwt>
<rscale>  4 0.24499264E+03</rscale>
<asrwt>0</asrwt>
<pdfrwt beam="1">  1       21 0.97261011E-02 0.24499264E+03</pdfrwt>
<pdfrwt beam="2">  1       21 0.35974511E+00 0.24499264E+03</pdfrwt>
<totfact> 0.12194160E+03</totfact>
</mgrwt>
</event>
<event>
 5    0  0.1200001E+000  0.2485148E+03  0.7546771E-02  0.1114247E+00
         21   -1    0    0  502  501  0.00000000000E+00  0.00000000000E+00  0.12629937391E+04  0.12629937391E+04  0.00000000000E+00 0.  1.
         21   -1    0    0  503  502 -0.00000000000E+00 -0.00000000000E+00 -0.16042097586E+03  0.16042097586E+03  0.00000000000E+00 0. -1.
         25    1    1    2    0    0 -0.36924702425E+01  0.21475795478E+03 -0.46466867085E+02  0.25282164309E+03  0.12500000000E+03 0.  0.
         21    1    1    2  503  504 -0.12775497678E+02 -0.18804065324E+02  0.64965823444E+02  0.68828514654E+02  0.00000000000E+00 0.  1.
         21    1    1    2  504  501  0.16467967920E+02 -0.19595388946E+03  0.10840738069E+04  0.11017645572E+04  0.00000000000E+00 0.  1.
<mgrwt>
<rscale>  4 0.24851482E+03</rscale>
<asrwt>0</asrwt>
<pdfrwt beam="1">  1       21 0.19430672E+00 0.24851482E+03</pdfrwt>
<pdfrwt beam="2">  1       21 0.24680151E-01 0.24851482E+03</pdfrwt>
<totfact> 0.21561653E+03</totfact>
</mgrwt>
</event>
<event>
 5    0  0.1200001E+000  0.3019262E+03  0.7546771E-02  0.1084282E+00
         21   -1    0    0  503  501  0.00000000000E+00  0.00000000000E+00  0.50924451085E+03  0.50924451085E+03  0.00000000000E+00 0.  1.
         21   -1    0    0  501  502 -0.00000000000E+00 -0.00000000000E+00 -0.20966430194E+03  0.20966430194E+03  0.00000000000E+00 0.  1.
         25    1    1    2    0    0  0.20715966805E+03  0.16721316305E+03  0.59430136057E+02  0.30005384689E+03  0.12500000000E+03 0.  0.
         21    1    1    2  503  504  0.69849700571E+01  0.22599800926E+02  0.95169046784E+02  0.98064714726E+02  0.00000000000E+00 0.  1.
         21    1    1    2  504  502 -0.21414463810E+03 -0.18981296398E+03  0.14498102607E+03  0.32079025117E+03  0.00000000000E+00 0.  1.
<mgrwt>
<rscale>  4 0.30192625E+03</rscale>
<asrwt>0</asrwt>
<pdfrwt beam="1">  1       21 0.78345309E-01 0.30192625E+03</pdfrwt>
<pdfrwt beam="2">  1       21 0.32256047E-01 0.30192625E+03</pdfrwt>
<totfact> 0.12564443E+04</totfact>
</mgrwt>
</event>
<event>
 5    0  0.1200001E+000  0.2639571E+03  0.7546771E-02  0.1104789E+00
         21   -1    0    0  503  501  0.00000000000E+00  0.00000000000E+00  0.19352388796E+04  0.19352388796E+04  0.00000000000E+00 0. -1.
         21   -1    0    0  504  502 -0.00000000000E+00 -0.00000000000E+00 -0.46260519686E+02  0.46260519686E+02  0.00000000000E+00 0.  1.
         25    1    1    2    0    0 -0.35079523637E+02  0.22601263706E+03  0.46198093377E+03  0.53043724253E+03  0.12500000000E+03 0.  0.
         21    1    1    2  503  502  0.22358807843E+02 -0.24175740010E+03  0.13038165283E+04  0.13262292774E+04  0.00000000000E+00 0. -1.
         21    1    1    2  504  501  0.12720715794E+02  0.15744763031E+02  0.12318089785E+03  0.12483287935E+03  0.00000000000E+00 0.  1.
<mgrwt>
<rscale>  4 0.26395706E+03</rscale>
<asrwt>0</asrwt>
<pdfrwt beam="1">  1       21 0.29772900E+00 0.26395706E+03</pdfrwt>
<pdfrwt beam="2">  1       21 0.71170045E-02 0.26395706E+03</pdfrwt>
<totfact> 0.48184968E+03</totfact>
</mgrwt>
</event>
<event>
 5    0  0.1200001E+000  0.3316302E+03  0.7546771E-02  0.1070418E+00
         21   -1    0    0  503  501  0.00000000000E+00  0.00000000000E+00  0.80233539070E+03  0.80233539070E+03  0.00000000000E+00 0. -1.
         21   -1    0    0  501  502 -0.00000000000E+00 -0.00000000000E+00 -0.96000759803E+03  0.96000759803E+03  0.00000000000E+00 0. -1.
         25    1    1    2    0    0  0.72591127918E+02 -0.22295277161E+03 -0.12245331054E+03  0.29257003176E+03  0.12500000000E+03 0.  0.
         21    1    1    2  503  504  0.51146393732E+02 -0.94149402298E+02  0.67433643171E+03  0.68279549404E+03  0.00000000000E+00 0. -1.
         21    1    1    2  504  502 -0.12373752165E+03  0.31710217391E+03 -0.70955532849E+03  0.78697746293E+03  0.00000000000E+00 0. -1.
<mgrwt>
<rscale>  4 0.33163022E+03</rscale>
<asrwt>0</asrwt>
<pdfrwt beam="1">  1       21 0.12343621E+00 0.33163022E+03</pdfrwt>
<pdfrwt beam="2">  1       21 0.14769348E+00 0.33163022E+03</pdfrwt>
<totfact> 0.13331865E+02</totfact>
</mgrwt>
</event>
<event>
 5    0  0.1200001E+000  0.3168965E+03  0.7546771E-02  0.1077087E+00
         21   -1    0    0  503  501  0.00000000000E+00  0.00000000000E+00  0.69216122565E+03  0.69216122565E+03  0.00000000000E+00 0. -1.
         21   -1    0    0  504  502 -0.00000000000E+00 -0.00000000000E+00 -0.18819171769E+03  0.18819171769E+03  0.00000000000E+00 0. -1.
         25    1    1    2    0    0  0.19056782531E+03  0.21246630721E+03  0.63049667510E+02  0.31789666295E+03  0.12500000000E+03 0.  0.
         21    1    1    2  503  502 -0.18716761660E+03 -0.23888030145E+03  0.32975124137E+03  0.44814216083E+03  0.00000000000E+00 0. -1.
         21    1    1    2  504  501 -0.34002087034E+01  0.26413994239E+02  0.11116859908E+03  0.11431411957E+03  0.00000000000E+00 0. -1.
<mgrwt>
<rscale>  4 0.31689649E+03</rscale>
<asrwt>0</asrwt>
<pdfrwt beam="1">  1       21 0.10648634E+00 0.31689649E+03</pdfrwt>
<pdfrwt beam="2">  1       21 0.28952572E-01 0.31689649E+03</pdfrwt>
<totfact> 0.74966187E+03</totfact>
</mgrwt>
</event>
<event>
 5    0  0.1200001E+000  0.2742899E+03  0.7546771E-02  0.1098849E+00
         21   -1    0    0  503  501  0.00000000000E+00  0.00000000000E+00  0.33572256518E+03  0.33572256518E+03  0.00000000000E+00 0. -1.
         21   -1    0    0  501  502 -0.00000000000E+00 -0.00000000000E+00 -0.52907291961E+03  0.52907291961E+03  0.00000000000E+00 0. -1.
         25    1    1    2    0    0 -0.23068426001E+03 -0.97164813344E+02 -0.34185105345E+03  0.44175034976E+03  0.12500000000E+03 0.  0.
         21    1    1    2  503  504  0.14588999339E+01  0.48291983964E+02  0.18017205440E+03  0.18653743134E+03  0.00000000000E+00 0. -1.
         21    1    1    2  504  502  0.22922536008E+03  0.48872829380E+02 -0.31671355382E+02  0.23650770369E+03  0.00000000000E+00 0. -1.
<mgrwt>
<rscale>  4 0.27428991E+03</rscale>
<asrwt>0</asrwt>
<pdfrwt beam="1">  1       21 0.51649625E-01 0.27428991E+03</pdfrwt>
<pdfrwt beam="2">  1       21 0.81395834E-01 0.27428991E+03</pdfrwt>
<totfact> 0.44539249E+03</totfact>
</mgrwt>
</event>
<event>
 5    0  0.1200001E+000  0.2482345E+03  0.7546771E-02  0.1114426E+00
         21   -1    0    0  503  501  0.00000000000E+00  0.00000000000E+00  0.25482868299E+03  0.25482868299E+03  0.00000000000E+00 0. -1.
         21   -1    0    0  504  502 -0.00000000000E+00 -0.00000000000E+00 -0.11222654774E+04  0.11222654774E+04  0.00000000000E+00 0. -1.
         25    1    1    2    0    0 -0.67656835609E+02 -0.20351392166E+03 -0.10573433614E+04  0.10860917768E+04  0.12500000000E+03 0.  0.
         21    1    1    2  503  502  0.70587095905E+02  0.14372732593E+03  0.14684974423E+03  0.21726695493E+03  0.00000000000E+00 0. -1.
         21    1    1    2  504  501 -0.29302602960E+01  0.59786595731E+02  0.43056822759E+02  0.73735428667E+02  0.00000000000E+00 0. -1.
<mgrwt>
<rscale>  4 0.24823449E+03</rscale>
<asrwt>0</asrwt>
<pdfrwt beam="1">  1       21 0.39204413E-01 0.24823449E+03</pdfrwt>
<pdfrwt beam="2">  1       21 0.17265623E+00 0.24823449E+03</pdfrwt>
<totfact> 0.12169590E+03</totfact>
</mgrwt>
</event>
<event>
 5    0  0.1200001E+000  0.3929167E+03  0.7546771E-02  0.1046260E+00
         21   -1    0    0  503  501  0.00000000000E+00  0.00000000000E+00  0.45428657877E+03  0.45428657877E+03  0.00000000000E+00 0.  1.
         21   -1    0    0  504  502 -0.00000000000E+00 -0.00000000000E+00 -0.41223372324E+03  0.41223372324E+03  0.00000000000E+00 0.  1.
         25    1    1    2    0    0  0.36312198265E+03 -0.10145325791E+03  0.40482258028E+02  0.39926701722E+03  0.12500000000E+03 0.  0.
         21    1    1    2  503  502 -0.36954754538E+03  0.38168047841E+02 -0.62767575770E+02  0.37677839209E+03  0.00000000000E+00 0.  1.
         21    1    1    2  504  501  0.64255627291E+01  0.63285210066E+02  0.64338173269E+02  0.90474892700E+02  0.00000000000E+00 0.  1.
<mgrwt>
<rscale>  4 0.39291668E+03</rscale>
<asrwt>0</asrwt>
<pdfrwt beam="1">  1       21 0.69890243E-01 0.39291668E+03</pdfrwt>
<pdfrwt beam="2">  1       21 0.63420573E-01 0.39291668E+03</pdfrwt>
<totfact> 0.38191754E+03</totfact>
</mgrwt>
</event>
<event>
 5    0  0.1200001E+000  0.2878885E+03  0.7546771E-02  0.1091457E+00
         21   -1    0    0  503  501  0.00000000000E+00  0.00000000000E+00  0.47138701711E+03  0.47138701711E+03  0.00000000000E+00 0.  1.
         21   -1    0    0  501  502 -0.00000000000E+00 -0.00000000000E+00 -0.62224361076E+03  0.62224361076E+03  0.00000000000E+00 0.  1.
         25    1    1    2    0    0 -0.19623566175E+03 -0.17169509442E+03 -0.53091552409E+03  0.60455267274E+03  0.12500000000E+03 0.  0.
         21    1    1    2  503  504  0.37052339316E+02 -0.21753360970E+02  0.12231898915E+03  0.12964574682E+03  0.00000000000E+00 0.  1.
         21    1    1    2  504  502  0.15918332244E+03  0.19344845539E+03  0.25773994128E+03  0.35943220831E+03  0.00000000000E+00 0.  1.
<mgrwt>
<rscale>  4 0.28788846E+03</rscale>
<asrwt>0</asrwt>
<pdfrwt beam="1">  1       21 0.72521080E-01 0.28788846E+03</pdfrwt>
<pdfrwt beam="2">  1       21 0.95729786E-01 0.28788846E+03</pdfrwt>
<totfact> 0.14465107E+03</totfact>
</mgrwt>
</event>
<event>
 5    0  0.1200001E+000  0.2329189E+03  0.7546771E-02  0.1124602E+00
         21   -1    0    0  503  501  0.00000000000E+00  0.00000000000E+00  0.36122909970E+02  0.36122909970E+02  0.00000000000E+00 0. -1.
         21   -1    0    0  501  502 -0.00000000000E+00 -0.00000000000E+00 -0.15282685009E+04  0.15282685009E+04  0.00000000000E+00 0. -1.
         25    1    1    2    0    0  0.10091217435E+02 -0.20258962816E+03 -0.71553796064E+03  0.75416441392E+03  0.12500000000E+03 0.  0.
         21    1    1    2  503  504 -0.21283495285E+02  0.99134788739E+01 -0.25258919987E+02  0.34485899638E+02  0.00000000000E+00 0.  1.
         21    1    1    2  504  502  0.11192277850E+02  0.19267614928E+03 -0.75134871033E+03  0.77574109734E+03  0.00000000000E+00 0. -1.
<mgrwt>
<rscale>  4 0.23291889E+03</rscale>
<asrwt>0</asrwt>
<pdfrwt beam="1">  1       21 0.55573724E-02 0.23291889E+03</pdfrwt>
<pdfrwt beam="2">  1       21 0.23511816E+00 0.23291889E+03</pdfrwt>
<totfact> 0.17732171E+04</totfact>
</mgrwt>
</event>
<event>
 5    0  0.1200001E+000  0.2203119E+03  0.7546771E-02  0.1133651E+00
         21   -1    0    0  502  501  0.00000000000E+00  0.00000000000E+00  0.39533354097E+03  0.39533354097E+03  0.00000000000E+00 0. -1.
         21   -1    0    0  504  502 -0.00000000000E+00 -0.00000000000E+00 -0.27458395143E+03  0.27458395143E+03  0.00000000000E+00 0. -1.
         25    1    1    2    0    0 -0.19579989681E+03  0.95062869985E+02 -0.10934141417E+03  0.27377927915E+03  0.12500000000E+03 0.  0.
         21    1    1    2  503  501  0.11172715475E+03  0.36216304570E+02  0.20775187161E+03  0.23865334270E+03  0.00000000000E+00 0. -1.
         21    1    1    2  504  503  0.84072742066E+02 -0.13127917455E+03  0.22339132101E+02  0.15748487055E+03  0.00000000000E+00 0. -1.
<mgrwt>
<rscale>  4 0.22031188E+03</rscale>
<asrwt>0</asrwt>
<pdfrwt beam="1">  1       21 0.60820545E-01 0.22031188E+03</pdfrwt>
<pdfrwt beam="2">  1       21 0.42243685E-01 0.22031188E+03</pdfrwt>
<totfact> 0.13335652E+04</totfact>
</mgrwt>
</event>
<event>
 5    0  0.1337039E+000  0.2498374E+03  0.7546771E-02  0.1113408E+00
         21   -1    0    0  503  501  0.00000000000E+00  0.00000000000E+00  0.23844904364E+04  0.23844904364E+04  0.00000000000E+00 0.  1.
         21   -1    0    0  501  502 -0.00000000000E+00 -0.00000000000E+00 -0.27928789804E+03  0.27928789804E+03  0.00000000000E+00 0. -1.
         25    1    1    2    0    0 -0.30958862046E+03 -0.21795025410E+02 -0.84734382314E+02  0.34514497331E+03  0.12500000000E+03 0.  0.
         21    1    1    2  503  504  0.19483751961E+03 -0.90678008386E+02  0.21394386978E+04  0.21502051301E+04  0.00000000000E+00 0.  1.
         21    1    1    2  504  502  0.11475110085E+03  0.11247303380E+03  0.50498222920E+02  0.16842823099E+03  0.00000000000E+00 0. -1.
<mgrwt>
<rscale>  4 0.24983743E+03</rscale>
<asrwt>0</asrwt>
<pdfrwt beam="1">  1       21 0.36684467E+00 0.24983743E+03</pdfrwt>
<pdfrwt beam="2">  1       21 0.42967370E-01 0.24983743E+03</pdfrwt>
<totfact> 0.66012106E+01</totfact>
</mgrwt>
</event>
<event>
 5    0  0.1200001E+000  0.5841425E+03  0.7546771E-02  0.9938863E-01
         21   -1    0    0  503  501  0.00000000000E+00  0.00000000000E+00  0.10879527742E+04  0.10879527742E+04  0.00000000000E+00 0.  1.
         21   -1    0    0  504  502 -0.00000000000E+00 -0.00000000000E+00 -0.40807424033E+03  0.40807424033E+03  0.00000000000E+00 0.  1.
         25    1    1    2    0    0 -0.12611513229E+03 -0.52734743364E+03  0.14198566809E+03  0.57426933777E+03  0.12500000000E+03 0.  0.
         21    1    1    2  503  502 -0.46189503008E+01  0.59622198076E+03  0.46964324721E+03  0.75899062227E+03  0.00000000000E+00 0.  1.
         21    1    1    2  504  501  0.13073408259E+03 -0.68874547114E+02  0.68249618578E+02  0.16276705449E+03  0.00000000000E+00 0. -1.
<mgrwt>
<rscale>  4 0.58414252E+03</rscale>
<asrwt>0</asrwt>
<pdfrwt beam="1">  1       21 0.16737735E+00 0.58414252E+03</pdfrwt>
<pdfrwt beam="2">  1       21 0.62780653E-01 0.58414252E+03</pdfrwt>
<totfact> 0.40958660E+02</totfact>
</mgrwt>
</event>
<event>
 5    0  0.1200001E+000  0.2222473E+03  0.7546771E-02  0.1132219E+00
         21   -1    0    0  503  501  0.00000000000E+00  0.00000000000E+00  0.42100783659E+03  0.42100783659E+03  0.00000000000E+00 0.  1.
         21   -1    0    0  504  502 -0.00000000000E+00 -0.00000000000E+00 -0.19793483076E+03  0.19793483076E+03  0.00000000000E+00 0.  1.
         25    1    1    2    0    0  0.20026255001E+03 -0.21095230288E+02  0.12952585399E+03  0.27009636156E+03  0.12500000000E+03 0.  0.
         21    1    1    2  503  502 -0.17816411846E+03  0.74928159602E+01 -0.63786806187E+02  0.18938677895E+03  0.00000000000E+00 0.  1.
         21    1    1    2  504  501 -0.22098431555E+02  0.13602414327E+02  0.15733395803E+03  0.15945952685E+03  0.00000000000E+00 0.  1.
<mgrwt>
<rscale>  4 0.22224735E+03</rscale>
<asrwt>0</asrwt>
<pdfrwt beam="1">  1       21 0.64770436E-01 0.22224735E+03</pdfrwt>
<pdfrwt beam="2">  1       21 0.30451512E-01 0.22224735E+03</pdfrwt>
<totfact> 0.22352687E+04</totfact>
</mgrwt>
</event>
<event>
 5    0  0.1200001E+000  0.2827586E+03  0.7546771E-02  0.1094192E+00
         21   -1    0    0  503  501  0.00000000000E+00  0.00000000000E+00  0.33276890404E+03  0.33276890404E+03  0.00000000000E+00 0. -1.
         21   -1    0    0  504  502 -0.00000000000E+00 -0.00000000000E+00 -0.68304619069E+03  0.68304619069E+03  0.00000000000E+00 0. -1.
         25    1    1    2    0    0 -0.20870314341E+03 -0.87665800568E+02 -0.55857967599E+03  0.61553111139E+03  0.12500000000E+03 0.  0.
         21    1    1    2  503  502 -0.71000791995E+01 -0.51157983324E+02 -0.21385824815E+02  0.55900839756E+02  0.00000000000E+00 0.  1.
         21    1    1    2  504  501  0.21580322261E+03  0.13882378389E+03  0.22968821415E+03  0.34438314358E+03  0.00000000000E+00 0. -1.
<mgrwt>
<rscale>  4 0.28275862E+03</rscale>
<asrwt>0</asrwt>
<pdfrwt beam="1">  1       21 0.51195216E-01 0.28275862E+03</pdfrwt>
<pdfrwt beam="2">  1       21 0.10508403E+00 0.28275862E+03</pdfrwt>
<totfact> 0.24738083E+03</totfact>
</mgrwt>
</event>
<event>
 5    0  0.1200001E+000  0.3087143E+03  0.7546771E-02  0.1080964E+00
         21   -1    0    0  502  501  0.00000000000E+00  0.00000000000E+00  0.18343932521E+04  0.18343932521E+04  0.00000000000E+00 0.  1.
         21   -1    0    0  503  502 -0.00000000000E+00 -0.00000000000E+00 -0.82282729491E+02  0.82282729491E+02  0.00000000000E+00 0. -1.
         25    1    1    2    0    0 -0.22312889583E+03 -0.17622440755E+03  0.29363136695E+03  0.42741774135E+03  0.12500000000E+03 0.  0.
         21    1    1    2  503  504 -0.63193140189E+01  0.23669921326E+02  0.16021966345E+03  0.16208189122E+03  0.00000000000E+00 0.  1.
         21    1    1    2  504  501  0.22944820985E+03  0.15255448622E+03  0.12982594922E+04  0.13271763490E+04  0.00000000000E+00 0.  1.
<mgrwt>
<rscale>  4 0.30871432E+03</rscale>
<asrwt>0</asrwt>
<pdfrwt beam="1">  1       21 0.28221432E+00 0.30871432E+03</pdfrwt>
<pdfrwt beam="2">  1       21 0.12658883E-01 0.30871432E+03</pdfrwt>
<totfact> 0.20630514E+03</totfact>
</mgrwt>
</event>
<event>
 5    0  0.1200001E+000  0.4175565E+03  0.7546771E-02  0.1037865E+00
         21   -1    0    0  503  501  0.00000000000E+00  0.00000000000E+00  0.90711467321E+03  0.90711467321E+03  0.00000000000E+00 0. -1.
         21   -1    0    0  501  502 -0.00000000000E+00 -0.00000000000E+00 -0.30074891738E+03  0.30074891738E+03  0.00000000000E+00 0. -1.
         25    1    1    2    0    0 -0.17774321242E+03 -0.30011757271E+03  0.30529110873E+03  0.48009464492E+03  0.12500000000E+03 0.  0.
         21    1    1    2  503  504 -0.55863372067E+02 -0.56245536938E+02  0.29093509191E+03  0.30154187847E+03  0.00000000000E+00 0. -1.
         21    1    1    2  504  502  0.23360658449E+03  0.35636310965E+03  0.10139555192E+02  0.42622706720E+03  0.00000000000E+00 0. -1.
<mgrwt>
<rscale>  4 0.41755651E+03</rscale>
<asrwt>0</asrwt>
<pdfrwt beam="1">  1       21 0.13955610E+00 0.41755651E+03</pdfrwt>
<pdfrwt beam="2">  1       21 0.46269065E-01 0.41755651E+03</pdfrwt>
<totfact> 0.13940121E+03</totfact>
</mgrwt>
</event>
<event>
 5    0  0.1200001E+000  0.4044668E+03  0.7546771E-02  0.1042244E+00
         21   -1    0    0  503  501  0.00000000000E+00  0.00000000000E+00  0.57535752176E+03  0.57535752176E+03  0.00000000000E+00 0. -1.
         21   -1    0    0  501  502 -0.00000000000E+00 -0.00000000000E+00 -0.38322743368E+03  0.38322743368E+03  0.00000000000E+00 0. -1.
         25    1    1    2    0    0 -0.17998575176E+03  0.28023282546E+03  0.66275707050E+02  0.36186016173E+03  0.12500000000E+03 0.  0.
         21    1    1    2  503  504 -0.10596705398E+03  0.60289243298E+02  0.88190574704E+02  0.15047055145E+03  0.00000000000E+00 0. -1.
         21    1    1    2  504  502  0.28595280574E+03 -0.34052206876E+03  0.37663806328E+02  0.44625424226E+03  0.00000000000E+00 0. -1.
<mgrwt>
<rscale>  4 0.40446679E+03</rscale>
<asrwt>0</asrwt>
<pdfrwt beam="1">  1       21 0.88516541E-01 0.40446679E+03</pdfrwt>
<pdfrwt beam="2">  1       21 0.58958067E-01 0.40446679E+03</pdfrwt>
<totfact> 0.25926819E+03</totfact>
</mgrwt>
</event>
<event>
 5    0  0.1200001E+000  0.2480682E+03  0.7546771E-02  0.1114532E+00
         21   -1    0    0  503  501  0.00000000000E+00  0.00000000000E+00  0.20097866834E+03  0.20097866834E+03  0.00000000000E+00 0.  1.
         21   -1    0    0  504  502 -0.00000000000E+00 -0.00000000000E+00 -0.11867752788E+04  0.11867752788E+04  0.00000000000E+00 0.  1.
         25    1    1    2    0    0  0.14227348707E+03  0.16828258776E+03 -0.99562875941E+03  0.10273569978E+04  0.12500000000E+03 0.  0.
         21    1    1    2  503  502 -0.14371539538E+03 -0.13109464830E+03 -0.11782465566E+03  0.22742596854E+03  0.00000000000E+00 0.  1.
         21    1    1    2  504  501  0.14419083110E+01 -0.37187939458E+02  0.12765680464E+03  0.13297098071E+03  0.00000000000E+00 0.  1.
<mgrwt>
<rscale>  4 0.24806820E+03</rscale>
<asrwt>0</asrwt>
<pdfrwt beam="1">  1       21 0.30919795E-01 0.24806820E+03</pdfrwt>
<pdfrwt beam="2">  1       21 0.18258081E+00 0.24806820E+03</pdfrwt>
<totfact> 0.16683403E+03</totfact>
</mgrwt>
</event>
<event>
 5    0  0.1200001E+000  0.3299771E+03  0.7546771E-02  0.1071147E+00
         21   -1    0    0  503  501  0.00000000000E+00  0.00000000000E+00  0.39980779702E+03  0.39980779702E+03  0.00000000000E+00 0.  1.
         21   -1    0    0  504  502 -0.00000000000E+00 -0.00000000000E+00 -0.62083064263E+03  0.62083064263E+03  0.00000000000E+00 0.  1.
         25    1    1    2    0    0 -0.11816989994E+03 -0.30687573661E+03 -0.45314788841E+03  0.57367660902E+03  0.12500000000E+03 0.  0.
         21    1    1    2  503  502  0.15581666334E+03  0.18954286623E+03  0.96351101838E+02  0.26360740797E+03  0.00000000000E+00 0.  1.
         21    1    1    2  504  501 -0.37646763393E+02  0.11733287037E+03  0.13577394096E+03  0.18335442265E+03  0.00000000000E+00 0. -1.
<mgrwt>
<rscale>  4 0.32997712E+03</rscale>
<asrwt>0</asrwt>
<pdfrwt beam="1">  1       21 0.61508892E-01 0.32997712E+03</pdfrwt>
<pdfrwt beam="2">  1       21 0.95512406E-01 0.32997712E+03</pdfrwt>
<totfact> 0.20434961E+03</totfact>
</mgrwt>
</event>
<event>
 5    0  0.1200001E+000  0.3424672E+03  0.7546771E-02  0.1065750E+00
         21   -1    0    0  503  501  0.00000000000E+00  0.00000000000E+00  0.59273421612E+03  0.59273421612E+03  0.00000000000E+00 0. -1.
         21   -1    0    0  501  502 -0.00000000000E+00 -0.00000000000E+00 -0.31399008935E+04  0.31399008935E+04  0.00000000000E+00 0. -1.
         25    1    1    2    0    0 -0.38136681135E+03 -0.14660474382E+03 -0.84313370097E+03  0.94521586605E+03  0.12500000000E+03 0.  0.
         21    1    1    2  503  504  0.83192635478E+02  0.97286984093E+02  0.52378243212E+03  0.53919737395E+03  0.00000000000E+00 0. -1.
         21    1    1    2  504  502  0.29817417587E+03  0.49317759730E+02 -0.22278154085E+04  0.22482218696E+04  0.00000000000E+00 0. -1.
<mgrwt>
<rscale>  4 0.34246724E+03</rscale>
<asrwt>0</asrwt>
<pdfrwt beam="1">  1       21 0.91189880E-01 0.34246724E+03</pdfrwt>
<pdfrwt beam="2">  1       21 0.48306167E+00 0.34246724E+03</pdfrwt>
<totfact> 0.19630043E+00</totfact>
</mgrwt>
</event>
<event>
 5    0  0.1200001E+000  0.5551840E+03  0.7546771E-02  0.1000301E+00
         21   -1    0    0  503  501  0.00000000000E+00  0.00000000000E+00  0.15844213551E+04  0.15844213551E+04  0.00000000000E+00 0. -1.
         21   -1    0    0  501  502 -0.00000000000E+00 -0.00000000000E+00 -0.88990463797E+03  0.88990463797E+03  0.00000000000E+00 0.  1.
         25    1    1    2    0    0  0.44932006309E+03 -0.25020803248E+03  0.10028400910E+03  0.53867843941E+03  0.12500000000E+03 0.  0.
         21    1    1    2  503  504  0.42382545212E+02  0.27238855982E+01  0.11515348637E+04  0.11523177696E+04  0.00000000000E+00 0. -1.
         21    1    1    2  504  502 -0.49170260830E+03  0.24748414688E+03 -0.55730215567E+03  0.78332978411E+03  0.00000000000E+00 0.  1.
<mgrwt>
<rscale>  4 0.55518399E+03</rscale>
<asrwt>0</asrwt>
<pdfrwt beam="1">  1       21 0.24375713E+00 0.55518399E+03</pdfrwt>
<pdfrwt beam="2">  1       21 0.13690841E+00 0.55518399E+03</pdfrwt>
<totfact> 0.19466994E+01</totfact>
</mgrwt>
</event>
<event>
 5    0  0.1200001E+000  0.2455892E+03  0.7546771E-02  0.1116125E+00
         21   -1    0    0  503  501  0.00000000000E+00  0.00000000000E+00  0.31269398811E+03  0.31269398811E+03  0.00000000000E+00 0.  1.
         21   -1    0    0  501  502 -0.00000000000E+00 -0.00000000000E+00 -0.51960153871E+03  0.51960153871E+03  0.00000000000E+00 0.  1.
         25    1    1    2    0    0  0.68121795757E+02 -0.19485645037E+03 -0.37452763865E+03  0.44553963619E+03  0.12500000000E+03 0.  0.
         21    1    1    2  503  504 -0.35932317826E+02 -0.35842781743E+02  0.14393484913E+03  0.15262069735E+03  0.00000000000E+00 0.  1.
         21    1    1    2  504  502 -0.32189477930E+02  0.23069923211E+03  0.23685238923E+02  0.23413519327E+03  0.00000000000E+00 0.  1.
<mgrwt>
<rscale>  4 0.24558917E+03</rscale>
<asrwt>0</asrwt>
<pdfrwt beam="1">  1       21 0.48106768E-01 0.24558917E+03</pdfrwt>
<pdfrwt beam="2">  1       21 0.79938698E-01 0.24558917E+03</pdfrwt>
<totfact> 0.54812099E+03</totfact>
</mgrwt>
</event>
<event>
 5    0  0.1200001E+000  0.3556617E+03  0.7546771E-02  0.1060315E+00
         21   -1    0    0  503  501  0.00000000000E+00  0.00000000000E+00  0.24952344310E+03  0.24952344310E+03  0.00000000000E+00 0.  1.
         21   -1    0    0  501  502 -0.00000000000E+00 -0.00000000000E+00 -0.98234870893E+03  0.98234870893E+03  0.00000000000E+00 0.  1.
         25    1    1    2    0    0  0.13196293416E+03  0.30911106874E+03 -0.79410468078E+03  0.87131573660E+03  0.12500000000E+03 0.  0.
         21    1    1    2  503  504 -0.26621527477E+02 -0.77663718010E+01  0.28314629497E+02  0.39632568674E+02  0.00000000000E+00 0.  1.
         21    1    1    2  504  502 -0.10534140668E+03 -0.30134469694E+03  0.32964785462E+02  0.32092384676E+03  0.00000000000E+00 0.  1.
<mgrwt>
<rscale>  4 0.35566165E+03</rscale>
<asrwt>0</asrwt>
<pdfrwt beam="1">  1       21 0.38388221E-01 0.35566165E+03</pdfrwt>
<pdfrwt beam="2">  1       21 0.15113057E+00 0.35566165E+03</pdfrwt>
<totfact> 0.17074969E+03</totfact>
</mgrwt>
</event>
<event>
 5    0  0.1200001E+000  0.2661943E+03  0.7546771E-02  0.1103478E+00
         21   -1    0    0  503  501  0.00000000000E+00  0.00000000000E+00  0.98742896686E+02  0.98742896686E+02  0.00000000000E+00 0.  1.
         21   -1    0    0  504  502 -0.00000000000E+00 -0.00000000000E+00 -0.95674543160E+03  0.95674543160E+03  0.00000000000E+00 0.  1.
         25    1    1    2    0    0 -0.12853690469E+03 -0.19675532963E+03 -0.71443013935E+03  0.76241053220E+03  0.12500000000E+03 0.  0.
         21    1    1    2  503  502  0.18666979629E+02  0.11372802729E+03 -0.86067138627E+02  0.14384044171E+03  0.00000000000E+00 0.  1.
         21    1    1    2  504  501  0.10986992506E+03  0.83027302341E+02 -0.57505256946E+02  0.14923735438E+03  0.00000000000E+00 0.  1.
<mgrwt>
<rscale>  4 0.26619428E+03</rscale>
<asrwt>0</asrwt>
<pdfrwt beam="1">  1       21 0.15191215E-01 0.26619428E+03</pdfrwt>
<pdfrwt beam="2">  1       21 0.14719160E+00 0.26619428E+03</pdfrwt>
<totfact> 0.11484550E+04</totfact>
</mgrwt>
</event>
<event>
 5    0  0.1200001E+000  0.2463080E+03  0.7546771E-02  0.1115661E+00
         21   -1    0    0  503  501  0.00000000000E+00  0.00000000000E+00  0.65817190404E+02  0.65817190404E+02  0.00000000000E+00 0. -1.
         21   -1    0    0  504  502 -0.00000000000E+00 -0.00000000000E+00 -0.98076938395E+03  0.98076938395E+03  0.00000000000E+00 0. -1.
         25    1    1    2    0    0  0.18664890589E+03  0.12574619454E+03 -0.58154707684E+03  0.63598107054E+03  0.12500000000E+03 0.  0.
         21    1    1    2  503  502 -0.16906194234E+03 -0.10523808414E+03 -0.32695944037E+03  0.38283086390E+03  0.00000000000E+00 0. -1.
         21    1    1    2  504  501 -0.17586963546E+02 -0.20508110401E+02 -0.64456763348E+01  0.27774639915E+02  0.00000000000E+00 0. -1.
<mgrwt>
<rscale>  4 0.24630803E+03</rscale>
<asrwt>0</asrwt>
<pdfrwt beam="1">  1       21 0.10125723E-01 0.24630803E+03</pdfrwt>
<pdfrwt beam="2">  1       21 0.15088758E+00 0.24630803E+03</pdfrwt>
<totfact> 0.22613157E+04</totfact>
</mgrwt>
</event>
<event>
 5    0  0.1200001E+000  0.3308557E+03  0.7546771E-02  0.1070759E+00
         21   -1    0    0  503  501  0.00000000000E+00  0.00000000000E+00  0.47570925699E+03  0.47570925699E+03  0.00000000000E+00 0. -1.
         21   -1    0    0  501  502 -0.00000000000E+00 -0.00000000000E+00 -0.11122650260E+04  0.11122650260E+04  0.00000000000E+00 0. -1.
         25    1    1    2    0    0  0.28755079603E+03 -0.86556258175E+02 -0.51505749520E+03  0.60916883496E+03  0.12500000000E+03 0.  0.
         21    1    1    2  503  504  0.25462364154E+02  0.53415327764E+02  0.38116112188E+03  0.38572701495E+03  0.00000000000E+00 0. -1.
         21    1    1    2  504  502 -0.31301316018E+03  0.33140930411E+02 -0.50265939571E+03  0.59307843310E+03  0.00000000000E+00 0. -1.
<mgrwt>
<rscale>  4 0.33085570E+03</rscale>
<asrwt>0</asrwt>
<pdfrwt beam="1">  1       21 0.73186041E-01 0.33085570E+03</pdfrwt>
<pdfrwt beam="2">  1       21 0.17111769E+00 0.33085570E+03</pdfrwt>
<totfact> 0.30956989E+02</totfact>
</mgrwt>
</event>
<event>
 5    0  0.1200001E+000  0.2958461E+03  0.7546771E-02  0.1087336E+00
         21   -1    0    0  503  501  0.00000000000E+00  0.00000000000E+00  0.43692134337E+03  0.43692134337E+03  0.00000000000E+00 0.  1.
         21   -1    0    0  501  502 -0.00000000000E+00 -0.00000000000E+00 -0.15257065554E+04  0.15257065554E+04  0.00000000000E+00 0. -1.
         25    1    1    2    0    0  0.12662416997E+03 -0.16708300420E+03 -0.12038162254E+04  0.12283114081E+04  0.12500000000E+03 0.  0.
         21    1    1    2  503  504 -0.26818439937E+03  0.48413696922E+02  0.34480607381E+03  0.43949742508E+03  0.00000000000E+00 0.  1.
         21    1    1    2  504  502  0.14156022941E+03  0.11866930727E+03 -0.22977506043E+03  0.29481906559E+03  0.00000000000E+00 0.  1.
<mgrwt>
<rscale>  4 0.29584606E+03</rscale>
<asrwt>0</asrwt>
<pdfrwt beam="1">  1       21 0.67218668E-01 0.29584606E+03</pdfrwt>
<pdfrwt beam="2">  1       21 0.23472408E+00 0.29584606E+03</pdfrwt>
<totfact> 0.14728342E+02</totfact>
</mgrwt>
</event>
<event>
 5    0  0.1200001E+000  0.3171427E+03  0.7546771E-02  0.1076972E+00
         21   -1    0    0  503  501  0.00000000000E+00  0.00000000000E+00  0.79045565341E+03  0.79045565341E+03  0.00000000000E+00 0. -1.
         21   -1    0    0  501  502 -0.00000000000E+00 -0.00000000000E+00 -0.12700550281E+03  0.12700550281E+03  0.00000000000E+00 0. -1.
         25    1    1    2    0    0 -0.25865208615E+03 -0.14577125564E+03  0.29753364022E+03  0.43852186685E+03  0.12500000000E+03 0.  0.
         21    1    1    2  503  504  0.55071998718E+00  0.22261854001E+02  0.34878966042E+02  0.41381586584E+02  0.00000000000E+00 0.  1.
         21    1    1    2  504  502  0.25810136616E+03  0.12350940163E+03  0.33103754434E+03  0.43755770279E+03  0.00000000000E+00 0. -1.
<mgrwt>
<rscale>  4 0.31714272E+03</rscale>
<asrwt>0</asrwt>
<pdfrwt beam="1">  1       21 0.12160856E+00 0.31714272E+03</pdfrwt>
<pdfrwt beam="2">  1       21 0.19539309E-01 0.31714272E+03</pdfrwt>
<totfact> 0.11489367E+04</totfact>
</mgrwt>
</event>
<event>
 5    0  0.1200001E+000  0.3463693E+03  0.7546771E-02  0.1064115E+00
         21   -1    0    0  502  501  0.00000000000E+00  0.00000000000E+00  0.38573183944E+03  0.38573183944E+03  0.00000000000E+00 0. -1.
         21   -1    0    0  504  502 -0.00000000000E+00 -0.00000000000E+00 -0.54109452908E+03  0.54109452908E+03  0.00000000000E+00 0. -1.
         25    1    1    2    0    0 -0.31415471893E+03 -0.86069038368E+02 -0.37322690866E+03  0.51090546301E+03  0.12500000000E+03 0.  0.
         21    1    1    2  503  501  0.30668679783E+03  0.65043434403E+02  0.15604107009E+03  0.35019459715E+03  0.00000000000E+00 0. -1.
         21    1    1    2  504  503  0.74679210994E+01  0.21025603965E+02  0.61823148919E+02  0.65726308354E+02  0.00000000000E+00 0. -1.
<mgrwt>
<rscale>  4 0.34636932E+03</rscale>
<asrwt>0</asrwt>
<pdfrwt beam="1">  1       21 0.59343360E-01 0.34636932E+03</pdfrwt>
<pdfrwt beam="2">  1       21 0.83245312E-01 0.34636932E+03</pdfrwt>
<totfact> 0.30259157E+03</totfact>
</mgrwt>
</event>
<event>
 5    0  0.1200001E+000  0.3497029E+03  0.7546771E-02  0.1062737E+00
         21   -1    0    0  503  501  0.00000000000E+00  0.00000000000E+00  0.22355748768E+04  0.22355748768E+04  0.00000000000E+00 0.  1.
         21   -1    0    0  504  502 -0.00000000000E+00 -0.00000000000E+00 -0.91840361185E+02  0.91840361185E+02  0.00000000000E+00 0.  1.
         25    1    1    2    0    0 -0.15854743708E+03 -0.25842822092E+03  0.41128660153E+03  0.52602671394E+03  0.12500000000E+03 0.  0.
         21    1    1    2  503  502  0.23331913364E+03  0.31949864875E+03  0.13353017785E+04  0.13926765756E+04  0.00000000000E+00 0.  1.
         21    1    1    2  504  501 -0.74771696555E+02 -0.61070427833E+02  0.39714613558E+03  0.40871194840E+03  0.00000000000E+00 0.  1.
<mgrwt>
<rscale>  4 0.34970286E+03</rscale>
<asrwt>0</asrwt>
<pdfrwt beam="1">  1       21 0.34393455E+00 0.34970286E+03</pdfrwt>
<pdfrwt beam="2">  1       21 0.14129288E-01 0.34970286E+03</pdfrwt>
<totfact> 0.70202815E+02</totfact>
</mgrwt>
</event>
<event>
 5    0  0.1200001E+000  0.2974288E+03  0.7546771E-02  0.1086533E+00
         21   -1    0    0  503  501  0.00000000000E+00  0.00000000000E+00  0.95852653688E+03  0.95852653688E+03  0.00000000000E+00 0. -1.
         21   -1    0    0  501  502 -0.00000000000E+00 -0.00000000000E+00 -0.16531695586E+03  0.16531695586E+03  0.00000000000E+00 0. -1.
         25    1    1    2    0    0  0.17009755851E+02 -0.28489823522E+03  0.12093514664E+03  0.33422544176E+03  0.12500000000E+03 0.  0.
         21    1    1    2  503  504  0.78897555886E+02  0.46516705080E+02  0.41874929727E+03  0.42864857651E+03  0.00000000000E+00 0. -1.
         21    1    1    2  504  502 -0.95907311737E+02  0.23838153014E+03  0.25352513711E+03  0.36096947448E+03  0.00000000000E+00 0. -1.
<mgrwt>
<rscale>  4 0.29742884E+03</rscale>
<asrwt>0</asrwt>
<pdfrwt beam="1">  1       21 0.14746562E+00 0.29742884E+03</pdfrwt>
<pdfrwt beam="2">  1       21 0.25433378E-01 0.29742884E+03</pdfrwt>
<totfact> 0.42580773E+03</totfact>
</mgrwt>
</event>
<event>
 5    0  0.1200001E+000  0.2950039E+03  0.7546771E-02  0.1087765E+00
         21   -1    0    0  503  501  0.00000000000E+00  0.00000000000E+00  0.11800334084E+04  0.11800334084E+04  0.00000000000E+00 0.  1.
         21   -1    0    0  501  502 -0.00000000000E+00 -0.00000000000E+00 -0.26194637712E+03  0.26194637712E+03  0.00000000000E+00 0.  1.
         25    1    1    2    0    0  0.26316718090E+03 -0.47429335143E+02 -0.12611232302E+03  0.32099193908E+03  0.12500000000E+03 0.  0.
         21    1    1    2  503  504 -0.49109972189E+01 -0.20114297802E+02  0.61631786750E+03  0.61666556306E+03  0.00000000000E+00 0.  1.
         21    1    1    2  504  502 -0.25825618368E+03  0.67543632945E+02  0.42788148682E+03  0.50432228339E+03  0.00000000000E+00 0.  1.
<mgrwt>
<rscale>  4 0.29500390E+03</rscale>
<asrwt>0</asrwt>
<pdfrwt beam="1">  1       21 0.18154360E+00 0.29500390E+03</pdfrwt>
<pdfrwt beam="2">  1       21 0.40299443E-01 0.29500390E+03</pdfrwt>
<totfact> 0.96233350E+02</totfact>
</mgrwt>
</event>
<event>
 5    0  0.1200001E+000  0.2586682E+03  0.7546771E-02  0.1107946E+00
         21   -1    0    0  502  501  0.00000000000E+00  0.00000000000E+00  0.18938693352E+03  0.18938693352E+03  0.00000000000E+00 0. -1.
         21   -1    0    0  503  502 -0.00000000000E+00 -0.00000000000E+00 -0.16545056724E+04  0.16545056724E+04  0.00000000000E+00 0. -1.
         25    1    1    2    0    0 -0.12268976837E+03 -0.18323411325E+03 -0.11218586341E+04  0.11501388240E+04  0.12500000000E+03 0.  0.
         21    1    1    2  503  504  0.18529069216E+03 -0.14329358784E+03 -0.28576314828E+02  0.23597097001E+03  0.00000000000E+00 0. -1.
         21    1    1    2  504  501 -0.62600923797E+02  0.32652770109E+03 -0.31468378994E+03  0.45778281192E+03  0.00000000000E+00 0. -1.
<mgrwt>
<rscale>  4 0.25866815E+03</rscale>
<asrwt>0</asrwt>
<pdfrwt beam="1">  1       21 0.29136451E-01 0.25866815E+03</pdfrwt>
<pdfrwt beam="2">  1       21 0.25453933E+00 0.25866815E+03</pdfrwt>
<totfact> 0.65500137E+02</totfact>
</mgrwt>
</event>
<event>
 5    0  0.1200001E+000  0.2546043E+03  0.7546771E-02  0.1110429E+00
         21   -1    0    0  502  501  0.00000000000E+00  0.00000000000E+00  0.25528904952E+03  0.25528904952E+03  0.00000000000E+00 0.  1.
         21   -1    0    0  504  502 -0.00000000000E+00 -0.00000000000E+00 -0.50038704160E+03  0.50038704160E+03  0.00000000000E+00 0.  1.
         25    1    1    2    0    0 -0.23334113604E+03  0.12665282903E+02 -0.22423793054E+03  0.34715435278E+03  0.12500000000E+03 0.  0.
         21    1    1    2  503  501  0.45827410457E+02 -0.16165189547E+03 -0.18258866157E+02  0.16901145834E+03  0.00000000000E+00 0.  1.
         21    1    1    2  504  503  0.18751372558E+03  0.14898661257E+03 -0.26011953794E+01  0.23951028000E+03  0.00000000000E+00 0.  1.
<mgrwt>
<rscale>  4 0.25460428E+03</rscale>
<asrwt>0</asrwt>
<pdfrwt beam="1">  1       21 0.39275238E-01 0.25460428E+03</pdfrwt>
<pdfrwt beam="2">  1       21 0.76982622E-01 0.25460428E+03</pdfrwt>
<totfact> 0.90136105E+03</totfact>
</mgrwt>
</event>
<event>
 5    0  0.1200001E+000  0.3636366E+03  0.7546771E-02  0.1057153E+00
         21   -1    0    0  503  501  0.00000000000E+00  0.00000000000E+00  0.95083845400E+03  0.95083845400E+03  0.00000000000E+00 0.  1.
         21   -1    0    0  504  502 -0.00000000000E+00 -0.00000000000E+00 -0.29058630195E+03  0.29058630195E+03  0.00000000000E+00 0. -1.
         25    1    1    2    0    0  0.23073382287E+03  0.25368158351E+03 -0.10657290916E+03  0.38023049299E+03  0.12500000000E+03 0.  0.
         21    1    1    2  503  502 -0.19731064391E+03 -0.27271823340E+03  0.58132311519E+03  0.67174644717E+03  0.00000000000E+00 0.  1.
         21    1    1    2  504  501 -0.33423178957E+02  0.19036649889E+02  0.18550194602E+03  0.18944781579E+03  0.00000000000E+00 0.  1.
<mgrwt>
<rscale>  4 0.36363662E+03</rscale>
<asrwt>0</asrwt>
<pdfrwt beam="1">  1       21 0.14628284E+00 0.36363662E+03</pdfrwt>
<pdfrwt beam="2">  1       21 0.44705585E-01 0.36363662E+03</pdfrwt>
<totfact> 0.13561001E+03</totfact>
</mgrwt>
</event>
<event>
 5    0  0.1200001E+000  0.2648371E+03  0.7546771E-02  0.1104271E+00
         21   -1    0    0  503  501  0.00000000000E+00  0.00000000000E+00  0.28402935581E+03  0.28402935581E+03  0.00000000000E+00 0.  1.
         21   -1    0    0  501  502 -0.00000000000E+00 -0.00000000000E+00 -0.60271891494E+03  0.60271891494E+03  0.00000000000E+00 0.  1.
         25    1    1    2    0    0  0.20669359128E+03  0.11273533439E+03 -0.46793650214E+03  0.53853603996E+03  0.12500000000E+03 0.  0.
         21    1    1    2  503  504  0.10570899405E+02 -0.40881008899E+02  0.10763518909E+03  0.11562151501E+03  0.00000000000E+00 0.  1.
         21    1    1    2  504  502 -0.21726449069E+03 -0.71854325494E+02  0.41611753926E+02  0.23259071579E+03  0.00000000000E+00 0.  1.
<mgrwt>
<rscale>  4 0.26483709E+03</rscale>
<asrwt>0</asrwt>
<pdfrwt beam="1">  1       21 0.43696824E-01 0.26483709E+03</pdfrwt>
<pdfrwt beam="2">  1       21 0.92725986E-01 0.26483709E+03</pdfrwt>
<totfact> 0.46924839E+03</totfact>
</mgrwt>
</event>
<event>
 5    0  0.1200001E+000  0.2577907E+03  0.7546771E-02  0.1108478E+00
         21   -1    0    0  503  501  0.00000000000E+00  0.00000000000E+00  0.89073459695E+03  0.89073459695E+03  0.00000000000E+00 0.  1.
         21   -1    0    0  504  502 -0.00000000000E+00 -0.00000000000E+00 -0.24640654187E+03  0.24640654187E+03  0.00000000000E+00 0.  1.
         25    1    1    2    0    0 -0.20595249747E+03  0.71261773196E+02 -0.10705689798E+03  0.27309494858E+03  0.12500000000E+03 0.  0.
         21    1    1    2  503  502  0.29838101767E+03 -0.66444548959E+01  0.63681017320E+03  0.70327987116E+03  0.00000000000E+00 0.  1.
         21    1    1    2  504  501 -0.92428520195E+02 -0.64617318300E+02  0.11457477987E+03  0.16076631908E+03  0.00000000000E+00 0. -1.
<mgrwt>
<rscale>  4 0.25779074E+03</rscale>
<asrwt>0</asrwt>
<pdfrwt beam="1">  1       21 0.13703609E+00 0.25779074E+03</pdfrwt>
<pdfrwt beam="2">  1       21 0.37908699E-01 0.25779074E+03</pdfrwt>
<totfact> 0.24074458E+03</totfact>
</mgrwt>
</event>
<event>
 5    0  0.1200001E+000  0.2749248E+03  0.7546771E-02  0.1098494E+00
         21   -1    0    0  503  501  0.00000000000E+00  0.00000000000E+00  0.15550697630E+03  0.15550697630E+03  0.00000000000E+00 0.  1.
         21   -1    0    0  504  502 -0.00000000000E+00 -0.00000000000E+00 -0.16204160446E+04  0.16204160446E+04  0.00000000000E+00 0.  1.
         25    1    1    2    0    0 -0.18370421424E+03 -0.17332979560E+03 -0.37231636253E+03  0.46694210581E+03  0.12500000000E+03 0.  0.
         21    1    1    2  503  502  0.20914095878E+03  0.12575940859E+03 -0.11807080489E+04  0.12056644916E+04  0.00000000000E+00 0.  1.
         21    1    1    2  504  501 -0.25436744536E+02  0.47570387009E+02  0.88115343082E+02  0.10331642357E+03  0.00000000000E+00 0.  1.
<mgrwt>
<rscale>  4 0.27492483E+03</rscale>
<asrwt>0</asrwt>
<pdfrwt beam="1">  1       21 0.23924151E-01 0.27492483E+03</pdfrwt>
<pdfrwt beam="2">  1       21 0.24929477E+00 0.27492483E+03</pdfrwt>
<totfact> 0.10157670E+03</totfact>
</mgrwt>
</event>
<event>
 5    0  0.1200001E+000  0.2940055E+03  0.7546771E-02  0.1088276E+00
         21   -1    0    0  503  501  0.00000000000E+00  0.00000000000E+00  0.15386781194E+04  0.15386781194E+04  0.00000000000E+00 0.  1.
         21   -1    0    0  501  502 -0.00000000000E+00 -0.00000000000E+00 -0.19147530917E+03  0.19147530917E+03  0.00000000000E+00 0.  1.
         25    1    1    2    0    0  0.21166601396E+03 -0.11979760396E+03  0.17828150794E+03  0.32644029079E+03  0.12500000000E+03 0.  0.
         21    1    1    2  503  504  0.28442349330E+02 -0.27190132680E+02  0.11166887242E+04  0.11173817510E+04  0.00000000000E+00 0.  1.
         21    1    1    2  504  502 -0.24010836329E+03  0.14698773664E+03  0.52232578008E+02  0.28633138677E+03  0.00000000000E+00 0.  1.
<mgrwt>
<rscale>  4 0.29400546E+03</rscale>
<asrwt>0</asrwt>
<pdfrwt beam="1">  1       21 0.23671970E+00 0.29400546E+03</pdfrwt>
<pdfrwt beam="2">  1       21 0.29457741E-01 0.29400546E+03</pdfrwt>
<totfact> 0.79575712E+02</totfact>
</mgrwt>
</event>
<event>
 5    0  0.1200001E+000  0.1761562E+03  0.7546771E-02  0.1171576E+00
         21   -1    0    0  502  501  0.00000000000E+00  0.00000000000E+00  0.29107453421E+02  0.29107453421E+02  0.00000000000E+00 0. -1.
         21   -1    0    0  503  502 -0.00000000000E+00 -0.00000000000E+00 -0.24212530308E+04  0.24212530308E+04  0.00000000000E+00 0. -1.
         25    1    1    2    0    0  0.10610850840E+03  0.17840463215E+03 -0.16258746338E+04  0.16438310598E+04  0.12500000000E+03 0.  0.
         21    1    1    2  503  504 -0.48692594003E+02 -0.79905033391E+02 -0.58463403378E+03  0.59207494165E+03  0.00000000000E+00 0. -1.
         21    1    1    2  504  501 -0.57415914395E+02 -0.98499598763E+02 -0.18163690982E+03  0.21445448280E+03  0.00000000000E+00 0. -1.
<mgrwt>
<rscale>  4 0.17615615E+03</rscale>
<asrwt>0</asrwt>
<pdfrwt beam="1">  1       21 0.44780696E-02 0.17615615E+03</pdfrwt>
<pdfrwt beam="2">  1       21 0.37250048E+00 0.17615615E+03</pdfrwt>
<totfact> 0.42585505E+03</totfact>
</mgrwt>
</event>
<event>
 5    0  0.1200001E+000  0.2700860E+03  0.7546771E-02  0.1101230E+00
         21   -1    0    0  503  501  0.00000000000E+00  0.00000000000E+00  0.82018165749E+02  0.82018165749E+02  0.00000000000E+00 0. -1.
         21   -1    0    0  504  502 -0.00000000000E+00 -0.00000000000E+00 -0.97886663471E+03  0.97886663471E+03  0.00000000000E+00 0. -1.
         25    1    1    2    0    0 -0.14780496472E+03  0.15906907002E+03 -0.40626503380E+03  0.47731075236E+03  0.12500000000E+03 0.  0.
         21    1    1    2  503  502  0.19634035817E+03 -0.17696121510E+03 -0.40987687382E+03  0.48771288643E+03  0.00000000000E+00 0. -1.
         21    1    1    2  504  501 -0.48535393450E+02  0.17892145078E+02 -0.80706561340E+02  0.95861161667E+02  0.00000000000E+00 0. -1.
<mgrwt>
<rscale>  4 0.27008604E+03</rscale>
<asrwt>0</asrwt>
<pdfrwt beam="1">  1       21 0.12618179E-01 0.27008604E+03</pdfrwt>
<pdfrwt beam="2">  1       21 0.15059488E+00 0.27008604E+03</pdfrwt>
<totfact> 0.15126393E+04</totfact>
</mgrwt>
</event>
<event>
 5    0  0.1200001E+000  0.2542964E+03  0.7546771E-02  0.1110619E+00
         21   -1    0    0  503  501  0.00000000000E+00  0.00000000000E+00  0.29602982442E+03  0.29602982442E+03  0.00000000000E+00 0.  1.
         21   -1    0    0  504  502 -0.00000000000E+00 -0.00000000000E+00 -0.41968724435E+03  0.41968724435E+03  0.00000000000E+00 0. -1.
         25    1    1    2    0    0  0.21934238339E+03  0.29764479962E+02 -0.30202259683E+03  0.39476531561E+03  0.12500000000E+03 0.  0.
         21    1    1    2  503  502 -0.22480014923E+03  0.11596939181E+02  0.14965597016E+03  0.27030816765E+03  0.00000000000E+00 0.  1.
         21    1    1    2  504  501  0.54577658383E+01 -0.41361419143E+02  0.28709206731E+02  0.50643585503E+02  0.00000000000E+00 0. -1.
<mgrwt>
<rscale>  4 0.25429641E+03</rscale>
<asrwt>0</asrwt>
<pdfrwt beam="1">  1       21 0.45543050E-01 0.25429641E+03</pdfrwt>
<pdfrwt beam="2">  1       21 0.64567268E-01 0.25429641E+03</pdfrwt>
<totfact> 0.98408243E+03</totfact>
</mgrwt>
</event>
<event>
 5    0  0.1200001E+000  0.3350358E+03  0.7546771E-02  0.1068930E+00
         21   -1    0    0  503  501  0.00000000000E+00  0.00000000000E+00  0.23809029458E+03  0.23809029458E+03  0.00000000000E+00 0.  1.
         21   -1    0    0  501  502 -0.00000000000E+00 -0.00000000000E+00 -0.52107671257E+03  0.52107671257E+03  0.00000000000E+00 0. -1.
         25    1    1    2    0    0  0.18470988672E+03 -0.23543425954E+03 -0.21392805354E+03  0.38850642840E+03  0.12500000000E+03 0.  0.
         21    1    1    2  503  504  0.51258395928E+01 -0.33890925287E+02 -0.11580868977E+02  0.36179905675E+02  0.00000000000E+00 0. -1.
         21    1    1    2  504  502 -0.18983572631E+03  0.26932518483E+03 -0.57477495476E+02  0.33448067307E+03  0.00000000000E+00 0.  1.
<mgrwt>
<rscale>  4 0.33503580E+03</rscale>
<asrwt>0</asrwt>
<pdfrwt beam="1">  1       21 0.36629277E-01 0.33503580E+03</pdfrwt>
<pdfrwt beam="2">  1       21 0.80165647E-01 0.33503580E+03</pdfrwt>
<totfact> 0.91112175E+03</totfact>
</mgrwt>
</event>
<event>
 5    0  0.1200001E+000  0.2327002E+03  0.7546771E-02  0.1124754E+00
         21   -1    0    0  503  501  0.00000000000E+00  0.00000000000E+00  0.45880867465E+03  0.45880867465E+03  0.00000000000E+00 0. -1.
         21   -1    0    0  504  502 -0.00000000000E+00 -0.00000000000E+00 -0.33475459125E+03  0.33475459125E+03  0.00000000000E+00 0. -1.
         25    1    1    2    0    0  0.20139686208E+03 -0.42493092075E+02 -0.23400635423E+03  0.33578316329E+03  0.12500000000E+03 0.  0.
         21    1    1    2  503  502 -0.17019492107E+03  0.10085392249E+01  0.10617208290E+03  0.20059870263E+03  0.00000000000E+00 0. -1.
         21    1    1    2  504  501 -0.31201941003E+02  0.41484552850E+02  0.25188835473E+03  0.25718139998E+03  0.00000000000E+00 0. -1.
<mgrwt>
<rscale>  4 0.23270019E+03</rscale>
<asrwt>0</asrwt>
<pdfrwt beam="1">  1       21 0.70585950E-01 0.23270019E+03</pdfrwt>
<pdfrwt beam="2">  1       21 0.51500707E-01 0.23270019E+03</pdfrwt>
<totfact> 0.63350813E+03</totfact>
</mgrwt>
</event>
<event>
 5    0  0.1200001E+000  0.3492541E+03  0.7546771E-02  0.1062922E+00
         21   -1    0    0  503  501  0.00000000000E+00  0.00000000000E+00  0.29730420616E+03  0.29730420616E+03  0.00000000000E+00 0.  1.
         21   -1    0    0  501  502 -0.00000000000E+00 -0.00000000000E+00 -0.95826077376E+03  0.95826077376E+03  0.00000000000E+00 0.  1.
         25    1    1    2    0    0  0.21528612306E+03 -0.22168507510E+03 -0.13829481601E+03  0.36089173369E+03  0.12500000000E+03 0.  0.
         21    1    1    2  503  504  0.66457098241E+01 -0.25467099890E+02  0.14583850421E+03  0.14819449365E+03  0.00000000000E+00 0.  1.
         21    1    1    2  504  502 -0.22193183289E+03  0.24715217499E+03 -0.66850025580E+03  0.74647875258E+03  0.00000000000E+00 0.  1.
<mgrwt>
<rscale>  4 0.34925414E+03</rscale>
<asrwt>0</asrwt>
<pdfrwt beam="1">  1       21 0.45739109E-01 0.34925414E+03</pdfrwt>
<pdfrwt beam="2">  1       21 0.14742473E+00 0.34925414E+03</pdfrwt>
<totfact> 0.12760491E+03</totfact>
</mgrwt>
</event>
<event>
 5    0  0.1200001E+000  0.2985596E+03  0.7546771E-02  0.1085963E+00
         21   -1    0    0  503  501  0.00000000000E+00  0.00000000000E+00  0.22666301430E+03  0.22666301430E+03  0.00000000000E+00 0. -1.
         21   -1    0    0  504  502 -0.00000000000E+00 -0.00000000000E+00 -0.87961388893E+03  0.87961388893E+03  0.00000000000E+00 0. -1.
         25    1    1    2    0    0 -0.30259183623E+03 -0.94527885132E+02 -0.11872579892E+03  0.36085752832E+03  0.12500000000E+03 0.  0.
         21    1    1    2  503  502  0.26052712628E+03 -0.63438326339E+02 -0.51525700379E+03  0.58085160302E+03  0.00000000000E+00 0. -1.
         21    1    1    2  504  501  0.42064709945E+02  0.15796621147E+03 -0.18968071920E+02  0.16456777188E+03  0.00000000000E+00 0.  1.
<mgrwt>
<rscale>  4 0.29855960E+03</rscale>
<asrwt>0</asrwt>
<pdfrwt beam="1">  1       21 0.34871234E-01 0.29855960E+03</pdfrwt>
<pdfrwt beam="2">  1       21 0.13532521E+00 0.29855960E+03</pdfrwt>
<totfact> 0.28666097E+03</totfact>
</mgrwt>
</event>
<event>
 5    0  0.1200001E+000  0.2273132E+03  0.7546771E-02  0.1128545E+00
         21   -1    0    0  502  501  0.00000000000E+00  0.00000000000E+00  0.20617113059E+04  0.20617113059E+04  0.00000000000E+00 0. -1.
         21   -1    0    0  504  502 -0.00000000000E+00 -0.00000000000E+00 -0.35306699426E+03  0.35306699426E+03  0.00000000000E+00 0.  1.
         25    1    1    2    0    0 -0.20566086080E+03  0.68447516277E+02 -0.29278575910E+03  0.38513627832E+03  0.12500000000E+03 0.  0.
         21    1    1    2  503  501  0.17068894693E+03 -0.82364250833E+02  0.19739782671E+04  0.19830554166E+04  0.00000000000E+00 0. -1.
         21    1    1    2  504  503  0.34971913872E+02  0.13916734556E+02  0.27451803588E+02  0.46586605164E+02  0.00000000000E+00 0. -1.
<mgrwt>
<rscale>  4 0.22731319E+03</rscale>
<asrwt>0</asrwt>
<pdfrwt beam="1">  1       21 0.31718635E+00 0.22731319E+03</pdfrwt>
<pdfrwt beam="2">  1       21 0.54318000E-01 0.22731319E+03</pdfrwt>
<totfact> 0.82380002E+01</totfact>
</mgrwt>
</event>
<event>
 5    0  0.1200001E+000  0.2170795E+03  0.7546771E-02  0.1136079E+00
         21   -1    0    0  503  501  0.00000000000E+00  0.00000000000E+00  0.14664001164E+03  0.14664001164E+03  0.00000000000E+00 0. -1.
         21   -1    0    0  501  502 -0.00000000000E+00 -0.00000000000E+00 -0.55068461731E+03  0.55068461731E+03  0.00000000000E+00 0. -1.
         25    1    1    2    0    0 -0.20961444445E+03 -0.65974820872E+01 -0.16285201247E+03  0.29347490533E+03  0.12500000000E+03 0.  0.
         21    1    1    2  503  504  0.69546964619E+02 -0.96440242792E+02 -0.16972753619E+02  0.12010651557E+03  0.00000000000E+00 0. -1.
         21    1    1    2  504  502  0.14006747983E+03  0.10303772488E+03 -0.22421983957E+03  0.28374320805E+03  0.00000000000E+00 0. -1.
<mgrwt>
<rscale>  4 0.21707954E+03</rscale>
<asrwt>0</asrwt>
<pdfrwt beam="1">  1       21 0.22560003E-01 0.21707954E+03</pdfrwt>
<pdfrwt beam="2">  1       21 0.84720708E-01 0.21707954E+03</pdfrwt>
<totfact> 0.21909382E+04</totfact>
</mgrwt>
</event>
<event>
 5    0  0.1570605E+000  0.3956398E+03  0.7546771E-02  0.1045300E+00
         21   -1    0    0  503  501  0.00000000000E+00  0.00000000000E+00  0.27651510549E+03  0.27651510549E+03  0.00000000000E+00 0.  1.
         21   -1    0    0  501  502 -0.00000000000E+00 -0.00000000000E+00 -0.88201512347E+03  0.88201512347E+03  0.00000000000E+00 0.  1.
         25    1    1    2    0    0 -0.92789375093E+02  0.36317109134E+03 -0.64587318732E+03  0.75715274801E+03  0.12500000000E+03 0.  0.
         21    1    1    2  503  504  0.19704854801E+02  0.75190730129E+01  0.63333853894E+01  0.22021115598E+02  0.00000000000E+00 0. -1.
         21    1    1    2  504  502  0.73084520293E+02 -0.37069016435E+03  0.34039783951E+02  0.37935636537E+03  0.00000000000E+00 0.  1.
<mgrwt>
<rscale>  4 0.39563982E+03</rscale>
<asrwt>0</asrwt>
<pdfrwt beam="1">  1       21 0.42540786E-01 0.39563982E+03</pdfrwt>
<pdfrwt beam="2">  1       21 0.13569463E+00 0.39563982E+03</pdfrwt>
<totfact> 0.18062493E+03</totfact>
</mgrwt>
</event>
<event>
 5    0  0.1200001E+000  0.2082122E+03  0.7546771E-02  0.1142990E+00
         21   -1    0    0  503  501  0.00000000000E+00  0.00000000000E+00  0.45210707806E+03  0.45210707806E+03  0.00000000000E+00 0.  1.
         21   -1    0    0  504  502 -0.00000000000E+00 -0.00000000000E+00 -0.44120498259E+03  0.44120498259E+03  0.00000000000E+00 0.  1.
         25    1    1    2    0    0  0.19353805815E+03 -0.61551593021E+02 -0.22471757854E+02  0.23953195706E+03  0.12500000000E+03 0.  0.
         21    1    1    2  503  502 -0.14047956095E+03  0.76751758327E+02 -0.28703328938E+03  0.32865399536E+03  0.00000000000E+00 0.  1.
         21    1    1    2  504  501 -0.53058497198E+02 -0.15200165306E+02  0.32040714271E+03  0.32512610822E+03  0.00000000000E+00 0.  1.
<mgrwt>
<rscale>  4 0.20821216E+03</rscale>
<asrwt>0</asrwt>
<pdfrwt beam="1">  1       21 0.69554936E-01 0.20821216E+03</pdfrwt>
<pdfrwt beam="2">  1       21 0.67877689E-01 0.20821216E+03</pdfrwt>
<totfact> 0.36790784E+03</totfact>
</mgrwt>
</event>
<event>
 5    0  0.1200001E+000  0.6361779E+03  0.7546771E-02  0.9833067E-01
         21   -1    0    0  503  501  0.00000000000E+00  0.00000000000E+00  0.45581569949E+03  0.45581569949E+03  0.00000000000E+00 0.  1.
         21   -1    0    0  504  502 -0.00000000000E+00 -0.00000000000E+00 -0.17272499960E+04  0.17272499960E+04  0.00000000000E+00 0.  1.
         25    1    1    2    0    0 -0.20522644636E+03 -0.55217378139E+03 -0.97090384719E+03  0.11424942274E+04  0.12500000000E+03 0.  0.
         21    1    1    2  503  502  0.19314659747E+03  0.67468906810E+03 -0.45999811370E+03  0.83911215659E+03  0.00000000000E+00 0.  1.
         21    1    1    2  504  501  0.12079848888E+02 -0.12251528671E+03  0.15946766436E+03  0.20145931153E+03  0.00000000000E+00 0.  1.
<mgrwt>
<rscale>  4 0.63617793E+03</rscale>
<asrwt>0</asrwt>
<pdfrwt beam="1">  1       21 0.70125492E-01 0.63617793E+03</pdfrwt>
<pdfrwt beam="2">  1       21 0.26573077E+00 0.63617793E+03</pdfrwt>
<totfact> 0.70053607E+01</totfact>
</mgrwt>
</event>
<event>
 5    0  0.1200001E+000  0.6277972E+03  0.7546771E-02  0.9849357E-01
         21   -1    0    0  503  501  0.00000000000E+00  0.00000000000E+00  0.18709463711E+04  0.18709463711E+04  0.00000000000E+00 0. -1.
         21   -1    0    0  504  502 -0.00000000000E+00 -0.00000000000E+00 -0.22818255759E+04  0.22818255759E+04  0.00000000000E+00 0.  1.
         25    1    1    2    0    0 -0.59363596615E+03  0.22740122281E+03 -0.15625251098E+04  0.16915155025E+04  0.12500000000E+03 0.  0.
         21    1    1    2  503  502  0.48435284237E+03 -0.32633405683E+03 -0.52068866093E+03  0.78243739314E+03  0.00000000000E+00 0.  1.
         21    1    1    2  504  501  0.10928312378E+03  0.98932834019E+02  0.16723345659E+04  0.16788190514E+04  0.00000000000E+00 0. -1.
<mgrwt>
<rscale>  4 0.62779716E+03</rscale>
<asrwt>0</asrwt>
<pdfrwt beam="1">  1       21 0.28783790E+00 0.62779716E+03</pdfrwt>
<pdfrwt beam="2">  1       21 0.35105009E+00 0.62779716E+03</pdfrwt>
<totfact> 0.38535997E-01</totfact>
</mgrwt>
</event>
<event>
 5    0  0.1200001E+000  0.2606013E+03  0.7546771E-02  0.1106783E+00
         21   -1    0    0  503  501  0.00000000000E+00  0.00000000000E+00  0.30575660249E+03  0.30575660249E+03  0.00000000000E+00 0. -1.
         21   -1    0    0  501  502 -0.00000000000E+00 -0.00000000000E+00 -0.24223459140E+03  0.24223459140E+03  0.00000000000E+00 0. -1.
         25    1    1    2    0    0 -0.15525003415E+03 -0.14184261780E+03  0.93394891106E+02  0.26185779922E+03  0.12500000000E+03 0.  0.
         21    1    1    2  503  504 -0.33741971824E+02 -0.41601346980E+01  0.23618740062E+02  0.41396524799E+02  0.00000000000E+00 0. -1.
         21    1    1    2  504  502  0.18899200597E+03  0.14600275250E+03 -0.53491620073E+02  0.24473686988E+03  0.00000000000E+00 0. -1.
<mgrwt>
<rscale>  4 0.26060127E+03</rscale>
<asrwt>0</asrwt>
<pdfrwt beam="1">  1       21 0.47039478E-01 0.26060127E+03</pdfrwt>
<pdfrwt beam="2">  1       21 0.37266860E-01 0.26060127E+03</pdfrwt>
<totfact> 0.29046834E+04</totfact>
</mgrwt>
</event>
<event>
 5    0  0.1200001E+000  0.2660300E+03  0.7546771E-02  0.1103573E+00
         21   -1    0    0  503  501  0.00000000000E+00  0.00000000000E+00  0.20182345701E+03  0.20182345701E+03  0.00000000000E+00 0. -1.
         21   -1    0    0  501  502 -0.00000000000E+00 -0.00000000000E+00 -0.50939818302E+03  0.50939818302E+03  0.00000000000E+00 0. -1.
         25    1    1    2    0    0 -0.16979173590E+03  0.12808752726E+03 -0.16293147551E+03  0.29564727960E+03  0.12500000000E+03 0.  0.
         21    1    1    2  503  504  0.25586781821E+03 -0.47218788901E+02 -0.51679624304E+02  0.26527106512E+03  0.00000000000E+00 0. -1.
         21    1    1    2  504  502 -0.86076082305E+02 -0.80868738362E+02 -0.92963626197E+02  0.15030329532E+03  0.00000000000E+00 0. -1.
<mgrwt>
<rscale>  4 0.26602995E+03</rscale>
<asrwt>0</asrwt>
<pdfrwt beam="1">  1       21 0.31049763E-01 0.26602995E+03</pdfrwt>
<pdfrwt beam="2">  1       21 0.78368951E-01 0.26602995E+03</pdfrwt>
<totfact> 0.13765219E+04</totfact>
</mgrwt>
</event>
<event>
 5    0  0.1200001E+000  0.3389182E+03  0.7546771E-02  0.1067258E+00
         21   -1    0    0  502  501  0.00000000000E+00  0.00000000000E+00  0.83267861614E+03  0.83267861614E+03  0.00000000000E+00 0.  1.
         21   -1    0    0  503  502 -0.00000000000E+00 -0.00000000000E+00 -0.57058211796E+03  0.57058211796E+03  0.00000000000E+00 0.  1.
         25    1    1    2    0    0 -0.29218829458E+03 -0.60205153466E+02 -0.38367424659E+03  0.50182625229E+03  0.12500000000E+03 0.  0.
         21    1    1    2  503  504 -0.15468751949E+03 -0.43162383536E+02  0.24152885303E+03  0.29004724940E+03  0.00000000000E+00 0.  1.
         21    1    1    2  504  501  0.44687581407E+03  0.10336753700E+03  0.40424189174E+03  0.61138723240E+03  0.00000000000E+00 0.  1.
<mgrwt>
<rscale>  4 0.33891820E+03</rscale>
<asrwt>0</asrwt>
<pdfrwt beam="1">  1       21 0.12810440E+00 0.33891820E+03</pdfrwt>
<pdfrwt beam="2">  1       21 0.87781865E-01 0.33891820E+03</pdfrwt>
<totfact> 0.44107694E+02</totfact>
</mgrwt>
</event>
<event>
 5    0  0.1200001E+000  0.3625728E+03  0.7546771E-02  0.1057570E+00
         21   -1    0    0  503  501  0.00000000000E+00  0.00000000000E+00  0.18031962750E+03  0.18031962750E+03  0.00000000000E+00 0. -1.
         21   -1    0    0  501  502 -0.00000000000E+00 -0.00000000000E+00 -0.11906993987E+04  0.11906993987E+04  0.00000000000E+00 0. -1.
         25    1    1    2    0    0  0.27643960239E+02  0.33844383124E+03 -0.87547503491E+03  0.94730668328E+03  0.12500000000E+03 0.  0.
         21    1    1    2  503  504 -0.21210455160E+02  0.46378782557E+01  0.34708159569E+02  0.40939585531E+02  0.00000000000E+00 0. -1.
         21    1    1    2  504  502 -0.64335050786E+01 -0.34308170949E+03 -0.16961289589E+03  0.38277275743E+03  0.00000000000E+00 0. -1.
<mgrwt>
<rscale>  4 0.36257282E+03</rscale>
<asrwt>0</asrwt>
<pdfrwt beam="1">  1       21 0.27741482E-01 0.36257282E+03</pdfrwt>
<pdfrwt beam="2">  1       21 0.18318452E+00 0.36257282E+03</pdfrwt>
<totfact> 0.18977841E+03</totfact>
</mgrwt>
</event>
<event>
 5    0  0.1200001E+000  0.2587203E+03  0.7546771E-02  0.1107915E+00
         21   -1    0    0  502  501  0.00000000000E+00  0.00000000000E+00  0.52162118989E+03  0.52162118989E+03  0.00000000000E+00 0.  1.
         21   -1    0    0  504  502 -0.00000000000E+00 -0.00000000000E+00 -0.36845557134E+03  0.36845557134E+03  0.00000000000E+00 0. -1.
         25    1    1    2    0    0 -0.10490242254E+03 -0.19876468357E+03 -0.25214106725E+03  0.36015557122E+03  0.12500000000E+03 0.  0.
         21    1    1    2  503  501  0.18782941401E+03  0.16788081189E+03  0.31693697072E+03  0.40486158027E+03  0.00000000000E+00 0.  1.
         21    1    1    2  504  503 -0.82926991472E+02  0.30883871686E+02  0.88369715084E+02  0.12505960974E+03  0.00000000000E+00 0. -1.
<mgrwt>
<rscale>  4 0.25872034E+03</rscale>
<asrwt>0</asrwt>
<pdfrwt beam="1">  1       21 0.80249414E-01 0.25872034E+03</pdfrwt>
<pdfrwt beam="2">  1       21 0.56685473E-01 0.25872034E+03</pdfrwt>
<totfact> 0.38098705E+03</totfact>
</mgrwt>
</event>
<event>
 5    0  0.1200001E+000  0.2519815E+03  0.7546771E-02  0.1112059E+00
         21   -1    0    0  503  501  0.00000000000E+00  0.00000000000E+00  0.42292031417E+03  0.42292031417E+03  0.00000000000E+00 0.  1.
         21   -1    0    0  501  502 -0.00000000000E+00 -0.00000000000E+00 -0.61659235197E+03  0.61659235197E+03  0.00000000000E+00 0.  1.
         25    1    1    2    0    0  0.34941395892E+02  0.21636869458E+03 -0.52961929647E+03  0.58664973565E+03  0.12500000000E+03 0.  0.
         21    1    1    2  503  504  0.19192297652E+02 -0.63423049866E+01  0.19084042786E+03  0.19190788944E+03  0.00000000000E+00 0.  1.
         21    1    1    2  504  502 -0.54133693545E+02 -0.21002638959E+03  0.14510683080E+03  0.26095504105E+03  0.00000000000E+00 0.  1.
<mgrwt>
<rscale>  4 0.25198152E+03</rscale>
<asrwt>0</asrwt>
<pdfrwt beam="1">  1       21 0.65064664E-01 0.25198152E+03</pdfrwt>
<pdfrwt beam="2">  1       21 0.94860362E-01 0.25198152E+03</pdfrwt>
<totfact> 0.19261727E+03</totfact>
</mgrwt>
</event>
<event>
 5    0  0.1200001E+000  0.3230305E+03  0.7546771E-02  0.1074263E+00
         21   -1    0    0  502  501  0.00000000000E+00  0.00000000000E+00  0.76261450029E+03  0.76261450029E+03  0.00000000000E+00 0. -1.
         21   -1    0    0  503  502 -0.00000000000E+00 -0.00000000000E+00 -0.17871377879E+03  0.17871377879E+03  0.00000000000E+00 0. -1.
         25    1    1    2    0    0  0.16384034040E+03  0.22502758932E+03  0.39392306090E+03  0.49827848740E+03  0.12500000000E+03 0.  0.
         21    1    1    2  503  504  0.15195397375E+02  0.59273425357E+02  0.10320882501E+02  0.62054489528E+02  0.00000000000E+00 0. -1.
         21    1    1    2  504  501 -0.17903573778E+03 -0.28430101467E+03  0.17965677810E+03  0.38099530215E+03  0.00000000000E+00 0. -1.
<mgrwt>
<rscale>  4 0.32303055E+03</rscale>
<asrwt>0</asrwt>
<pdfrwt beam="1">  1       21 0.11732531E+00 0.32303055E+03</pdfrwt>
<pdfrwt beam="2">  1       21 0.27494428E-01 0.32303055E+03</pdfrwt>
<totfact> 0.65138246E+03</totfact>
</mgrwt>
</event>
<event>
 5    0  0.1200001E+000  0.3096786E+03  0.7546771E-02  0.1080500E+00
         21   -1    0    0  502  501  0.00000000000E+00  0.00000000000E+00  0.13371381480E+03  0.13371381480E+03  0.00000000000E+00 0.  1.
         21   -1    0    0  503  502 -0.00000000000E+00 -0.00000000000E+00 -0.16123345571E+04  0.16123345571E+04  0.00000000000E+00 0.  1.
         25    1    1    2    0    0  0.26161308161E+03 -0.87203601097E+02 -0.12837200182E+04  0.13189419842E+04  0.12500000000E+03 0.  0.
         21    1    1    2  503  504  0.51772792098E+02 -0.71629853438E+01 -0.34524833960E+02  0.62639400705E+02  0.00000000000E+00 0. -1.
         21    1    1    2  504  501 -0.31338587371E+03  0.94366586441E+02 -0.16037589012E+03  0.36446698699E+03  0.00000000000E+00 0.  1.
<mgrwt>
<rscale>  4 0.30967861E+03</rscale>
<asrwt>0</asrwt>
<pdfrwt beam="1">  1       21 0.20571355E-01 0.30967861E+03</pdfrwt>
<pdfrwt beam="2">  1       21 0.24805148E+00 0.30967861E+03</pdfrwt>
<totfact> 0.13407005E+03</totfact>
</mgrwt>
</event>
<event>
 5    0  0.1200001E+000  0.2699202E+03  0.7546771E-02  0.1101325E+00
         21   -1    0    0  503  501  0.00000000000E+00  0.00000000000E+00  0.18239041624E+03  0.18239041624E+03  0.00000000000E+00 0.  1.
         21   -1    0    0  504  502 -0.00000000000E+00 -0.00000000000E+00 -0.64064028451E+03  0.64064028451E+03  0.00000000000E+00 0. -1.
         25    1    1    2    0    0 -0.77572412100E+02 -0.25079132195E+03 -0.23461492927E+03  0.37360799151E+03  0.12500000000E+03 0.  0.
         21    1    1    2  503  502  0.59444923247E+02  0.21840925284E+03 -0.29330113139E+03  0.37048866960E+03  0.00000000000E+00 0. -1.
         21    1    1    2  504  501  0.18127488853E+02  0.32382069108E+02  0.69666192384E+02  0.78934039635E+02  0.00000000000E+00 0.  1.
<mgrwt>
<rscale>  4 0.26992018E+03</rscale>
<asrwt>0</asrwt>
<pdfrwt beam="1">  1       21 0.28060064E-01 0.26992018E+03</pdfrwt>
<pdfrwt beam="2">  1       21 0.98560045E-01 0.26992018E+03</pdfrwt>
<totfact> 0.98318790E+03</totfact>
</mgrwt>
</event>
<event>
 5    0  0.1200001E+000  0.2514843E+03  0.7546771E-02  0.1112370E+00
         21   -1    0    0  502  501  0.00000000000E+00  0.00000000000E+00  0.10005865075E+04  0.10005865075E+04  0.00000000000E+00 0. -1.
         21   -1    0    0  503  502 -0.00000000000E+00 -0.00000000000E+00 -0.96278543387E+02  0.96278543387E+02  0.00000000000E+00 0. -1.
         25    1    1    2    0    0  0.12409380922E+03  0.24425989531E+03  0.35220489650E+03  0.46339557514E+03  0.12500000000E+03 0.  0.
         21    1    1    2  503  504 -0.90236323537E+02 -0.16132249059E+03  0.20968365883E+03  0.27952598598E+03  0.00000000000E+00 0. -1.
         21    1    1    2  504  501 -0.33857485680E+02 -0.82937404720E+02  0.34241940874E+03  0.35394348973E+03  0.00000000000E+00 0. -1.
<mgrwt>
<rscale>  4 0.25148434E+03</rscale>
<asrwt>0</asrwt>
<pdfrwt beam="1">  1       21 0.15393638E+00 0.25148434E+03</pdfrwt>
<pdfrwt beam="2">  1       21 0.14812084E-01 0.25148434E+03</pdfrwt>
<totfact> 0.10765716E+04</totfact>
</mgrwt>
</event>
<event>
 5    0  0.1200001E+000  0.2866831E+03  0.7546771E-02  0.1092094E+00
         21   -1    0    0  502  501  0.00000000000E+00  0.00000000000E+00  0.13478204205E+03  0.13478204205E+03  0.00000000000E+00 0. -1.
         21   -1    0    0  504  502 -0.00000000000E+00 -0.00000000000E+00 -0.14023606200E+04  0.14023606200E+04  0.00000000000E+00 0. -1.
         25    1    1    2    0    0 -0.14097580619E+03  0.18463393803E+03 -0.80519170207E+03  0.84730310166E+03  0.12500000000E+03 0.  0.
         21    1    1    2  503  501  0.26390584441E+03 -0.19972058310E+03 -0.45908284157E+03  0.56594316097E+03  0.00000000000E+00 0. -1.
         21    1    1    2  504  503 -0.12293003822E+03  0.15086645064E+02 -0.33040343490E+01  0.12389639946E+03  0.00000000000E+00 0. -1.
<mgrwt>
<rscale>  4 0.28668315E+03</rscale>
<asrwt>0</asrwt>
<pdfrwt beam="1">  1       21 0.20735699E-01 0.28668315E+03</pdfrwt>
<pdfrwt beam="2">  1       21 0.21574778E+00 0.28668315E+03</pdfrwt>
<totfact> 0.21230720E+03</totfact>
</mgrwt>
</event>
<event>
 5    0  0.1200001E+000  0.2386996E+03  0.7546771E-02  0.1120662E+00
         21   -1    0    0  503  501  0.00000000000E+00  0.00000000000E+00  0.17408906271E+04  0.17408906271E+04  0.00000000000E+00 0. -1.
         21   -1    0    0  504  502 -0.00000000000E+00 -0.00000000000E+00 -0.60089504598E+03  0.60089504598E+03  0.00000000000E+00 0.  1.
         25    1    1    2    0    0 -0.14104291080E+03 -0.14195269264E+03 -0.50914432540E+03  0.56115649664E+03  0.12500000000E+03 0.  0.
         21    1    1    2  503  502  0.11334374271E+03  0.21135122029E+03  0.15705570923E+03  0.28667514390E+03  0.00000000000E+00 0.  1.
         21    1    1    2  504  501  0.27699168099E+02 -0.69398527651E+02  0.14920841973E+04  0.14939540325E+04  0.00000000000E+00 0. -1.
<mgrwt>
<rscale>  4 0.23869961E+03</rscale>
<asrwt>0</asrwt>
<pdfrwt beam="1">  1       21 0.26782932E+00 0.23869961E+03</pdfrwt>
<pdfrwt beam="2">  1       21 0.92445393E-01 0.23869961E+03</pdfrwt>
<totfact> 0.48182674E+01</totfact>
</mgrwt>
</event>
<event>
 5    0  0.1200001E+000  0.2750603E+03  0.7546771E-02  0.1098418E+00
         21   -1    0    0  503  501  0.00000000000E+00  0.00000000000E+00  0.19104291699E+04  0.19104291699E+04  0.00000000000E+00 0.  1.
         21   -1    0    0  504  502 -0.00000000000E+00 -0.00000000000E+00 -0.25187833397E+03  0.25187833397E+03  0.00000000000E+00 0. -1.
         25    1    1    2    0    0  0.21938525253E+03 -0.40048867046E+02 -0.74708277016E+02  0.26634587933E+03  0.12500000000E+03 0.  0.
         21    1    1    2  503  502 -0.30563433247E+03  0.10387722598E+03  0.24861702606E+03  0.40744723451E+03  0.00000000000E+00 0. -1.
         21    1    1    2  504  501  0.86249079936E+02 -0.63828358936E+02  0.14846420869E+04  0.14885143900E+04  0.00000000000E+00 0.  1.
<mgrwt>
<rscale>  4 0.27506025E+03</rscale>
<asrwt>0</asrwt>
<pdfrwt beam="1">  1       21 0.29391217E+00 0.27506025E+03</pdfrwt>
<pdfrwt beam="2">  1       21 0.38750514E-01 0.27506025E+03</pdfrwt>
<totfact> 0.21397571E+02</totfact>
</mgrwt>
</event>
<event>
 5    0  0.1200001E+000  0.2485700E+03  0.7546771E-02  0.1114212E+00
         21   -1    0    0  503  501  0.00000000000E+00  0.00000000000E+00  0.27795011159E+04  0.27795011159E+04  0.00000000000E+00 0.  1.
         21   -1    0    0  501  502 -0.00000000000E+00 -0.00000000000E+00 -0.80573295302E+02  0.80573295302E+02  0.00000000000E+00 0.  1.
         25    1    1    2    0    0  0.79327578596E+02  0.28354991147E+03  0.33175959346E+03  0.46085013277E+03  0.12500000000E+03 0.  0.
         21    1    1    2  503  504 -0.11768443465E+03 -0.17324715297E+03  0.20597716062E+04  0.20703920576E+04  0.00000000000E+00 0.  1.
         21    1    1    2  504  502  0.38356856052E+02 -0.11030275850E+03  0.30739662091E+03  0.32883222088E+03  0.00000000000E+00 0.  1.
<mgrwt>
<rscale>  4 0.24857001E+03</rscale>
<asrwt>0</asrwt>
<pdfrwt beam="1">  1       21 0.42761548E+00 0.24857001E+03</pdfrwt>
<pdfrwt beam="2">  1       21 0.12395894E-01 0.24857001E+03</pdfrwt>
<totfact> 0.29654644E+02</totfact>
</mgrwt>
</event>
<event>
 5    0  0.1200001E+000  0.2833907E+03  0.7546771E-02  0.1093851E+00
         21   -1    0    0  503  501  0.00000000000E+00  0.00000000000E+00  0.22469128979E+03  0.22469128979E+03  0.00000000000E+00 0. -1.
         21   -1    0    0  504  502 -0.00000000000E+00 -0.00000000000E+00 -0.15554410360E+04  0.15554410360E+04  0.00000000000E+00 0. -1.
         25    1    1    2    0    0  0.21309549406E+03 -0.14344498466E+03 -0.14338251163E+04  0.14620073931E+04  0.12500000000E+03 0.  0.
         21    1    1    2  503  502 -0.20984133005E+03  0.10023620071E+03  0.31806922547E+02  0.23471761768E+03  0.00000000000E+00 0. -1.
         21    1    1    2  504  501 -0.32541640160E+01  0.43208783945E+02  0.71268447530E+02  0.83407315068E+02  0.00000000000E+00 0.  1.
<mgrwt>
<rscale>  4 0.28339067E+03</rscale>
<asrwt>0</asrwt>
<pdfrwt beam="1">  1       21 0.34567892E-01 0.28339067E+03</pdfrwt>
<pdfrwt beam="2">  1       21 0.23929861E+00 0.28339067E+03</pdfrwt>
<totfact> 0.56380056E+02</totfact>
</mgrwt>
</event>
<event>
 5    0  0.1200001E+000  0.2827241E+03  0.7546771E-02  0.1094210E+00
         21   -1    0    0  503  501  0.00000000000E+00  0.00000000000E+00  0.45860134194E+03  0.45860134194E+03  0.00000000000E+00 0.  1.
         21   -1    0    0  501  502 -0.00000000000E+00 -0.00000000000E+00 -0.65091182510E+03  0.65091182510E+03  0.00000000000E+00 0. -1.
         25    1    1    2    0    0 -0.27461176384E+03 -0.66113818015E+02 -0.30993570283E+03  0.43757033453E+03  0.12500000000E+03 0.  0.
         21    1    1    2  503  504  0.50647662572E+02  0.72064665812E+01  0.34418643496E+03  0.34796755724E+03  0.00000000000E+00 0.  1.
         21    1    1    2  504  502  0.22396410127E+03  0.58907351434E+02 -0.22656121529E+03  0.32397527526E+03  0.00000000000E+00 0. -1.
<mgrwt>
<rscale>  4 0.28272406E+03</rscale>
<asrwt>0</asrwt>
<pdfrwt beam="1">  1       21 0.70554053E-01 0.28272406E+03</pdfrwt>
<pdfrwt beam="2">  1       21 0.10014028E+00 0.28272406E+03</pdfrwt>
<totfact> 0.13862053E+03</totfact>
</mgrwt>
</event>
<event>
 5    0  0.1200001E+000  0.6848849E+03  0.7546771E-02  0.9747841E-01
         21   -1    0    0  502  501  0.00000000000E+00  0.00000000000E+00  0.53035007138E+03  0.53035007138E+03  0.00000000000E+00 0. -1.
         21   -1    0    0  504  502 -0.00000000000E+00 -0.00000000000E+00 -0.89288980088E+03  0.89288980088E+03  0.00000000000E+00 0. -1.
         25    1    1    2    0    0 -0.44542821906E+03 -0.49143629184E+03 -0.70222123972E+02  0.67858092662E+03  0.12500000000E+03 0.  0.
         21    1    1    2  503  501  0.41786197894E+03  0.36771192587E+03 -0.25693713700E+03  0.61305577743E+03  0.00000000000E+00 0. -1.
         21    1    1    2  504  503  0.27566240119E+02  0.12372436597E+03 -0.35380468530E+02  0.13160316821E+03  0.00000000000E+00 0. -1.
<mgrwt>
<rscale>  4 0.68238447E+03</rscale>
<asrwt>0</asrwt>
<pdfrwt beam="1">  1       21 0.81592320E-01 0.68488493E+03</pdfrwt>
<pdfrwt beam="2">  1       21 0.13736766E+00 0.68488493E+03</pdfrwt>
<totfact> 0.37642531E+02</totfact>
</mgrwt>
</event>
<event>
 5    0  0.1200001E+000  0.2526821E+03  0.7546771E-02  0.1111621E+00
         21   -1    0    0  503  501  0.00000000000E+00  0.00000000000E+00  0.13854426200E+03  0.13854426200E+03  0.00000000000E+00 0. -1.
         21   -1    0    0  501  502 -0.00000000000E+00 -0.00000000000E+00 -0.12856389169E+04  0.12856389169E+04  0.00000000000E+00 0. -1.
         25    1    1    2    0    0  0.25238784189E+03  0.44217599623E+02 -0.10501717904E+04  0.10881822496E+04  0.12500000000E+03 0.  0.
         21    1    1    2  503  504 -0.95402775351E+02 -0.48192197318E+02  0.52635993881E+02  0.11914161858E+03  0.00000000000E+00 0. -1.
         21    1    1    2  504  502 -0.15698506654E+03  0.39745976949E+01 -0.14955885831E+03  0.21685931072E+03  0.00000000000E+00 0. -1.
<mgrwt>
<rscale>  4 0.25268212E+03</rscale>
<asrwt>0</asrwt>
<pdfrwt beam="1">  1       21 0.21314501E-01 0.25268212E+03</pdfrwt>
<pdfrwt beam="2">  1       21 0.19779061E+00 0.25268212E+03</pdfrwt>
<totfact> 0.26954744E+03</totfact>
</mgrwt>
</event>
<event>
 5    0  0.1649861E+000  0.2201922E+03  0.7546771E-02  0.1133740E+00
         21   -1    0    0  503  501  0.00000000000E+00  0.00000000000E+00  0.14619235153E+04  0.14619235153E+04  0.00000000000E+00 0.  1.
         21   -1    0    0  501  502 -0.00000000000E+00 -0.00000000000E+00 -0.33793799754E+03  0.33793799754E+03  0.00000000000E+00 0.  1.
         25    1    1    2    0    0 -0.20676793242E+03  0.15362770680E+02  0.80895435901E+03  0.84440579555E+03  0.12500000000E+03 0.  0.
         21    1    1    2  503  504  0.26683173586E+02 -0.35786275864E+01  0.60949470468E+03  0.61008900446E+03  0.00000000000E+00 0.  1.
         21    1    1    2  504  502  0.18008475884E+03 -0.11784143094E+02 -0.29446354598E+03  0.34536671279E+03  0.00000000000E+00 0.  1.
<mgrwt>
<rscale>  4 0.22019219E+03</rscale>
<asrwt>0</asrwt>
<pdfrwt beam="1">  1       21 0.22491131E+00 0.22019219E+03</pdfrwt>
<pdfrwt beam="2">  1       21 0.51990462E-01 0.22019219E+03</pdfrwt>
<totfact> 0.31849465E+02</totfact>
</mgrwt>
</event>
<event>
 5    0  0.1200001E+000  0.2943348E+03  0.7546771E-02  0.1088107E+00
         21   -1    0    0  503  501  0.00000000000E+00  0.00000000000E+00  0.36917650997E+03  0.36917650997E+03  0.00000000000E+00 0. -1.
         21   -1    0    0  504  502 -0.00000000000E+00 -0.00000000000E+00 -0.40364537959E+03  0.40364537959E+03  0.00000000000E+00 0. -1.
         25    1    1    2    0    0 -0.19999509404E+03 -0.92258433831E+02 -0.68938396802E+02  0.26246363330E+03  0.12500000000E+03 0.  0.
         21    1    1    2  503  502  0.34307704667E+03  0.60823405181E+02 -0.31194327735E+02  0.34982057209E+03  0.00000000000E+00 0. -1.
         21    1    1    2  504  501 -0.14308195263E+03  0.31435028650E+02  0.65663854914E+02  0.16053768417E+03  0.00000000000E+00 0. -1.
<mgrwt>
<rscale>  4 0.29433484E+03</rscale>
<asrwt>0</asrwt>
<pdfrwt beam="1">  1       21 0.56796386E-01 0.29433484E+03</pdfrwt>
<pdfrwt beam="2">  1       21 0.62099289E-01 0.29433484E+03</pdfrwt>
<totfact> 0.65885376E+03</totfact>
</mgrwt>
</event>
<event>
 5    0  0.1200001E+000  0.2854411E+03  0.7546771E-02  0.1092754E+00
         21   -1    0    0  502  501  0.00000000000E+00  0.00000000000E+00  0.44232954062E+03  0.44232954062E+03  0.00000000000E+00 0. -1.
         21   -1    0    0  503  502 -0.00000000000E+00 -0.00000000000E+00 -0.14981439967E+04  0.14981439967E+04  0.00000000000E+00 0.  1.
         25    1    1    2    0    0 -0.22869165535E+03  0.11614634483E+03 -0.14204973705E+04  0.14488711559E+04  0.12500000000E+03 0.  0.
         21    1    1    2  503  504  0.25950022820E+02  0.57018157821E+02  0.79070970673E+02  0.10087959362E+03  0.00000000000E+00 0. -1.
         21    1    1    2  504  501  0.20274163253E+03 -0.17316450265E+03  0.28561194375E+03  0.39072278786E+03  0.00000000000E+00 0. -1.
<mgrwt>
<rscale>  4 0.28544107E+03</rscale>
<asrwt>0</asrwt>
<pdfrwt beam="1">  1       21 0.68050697E-01 0.28544107E+03</pdfrwt>
<pdfrwt beam="2">  1       21 0.23048370E+00 0.28544107E+03</pdfrwt>
<totfact> 0.15365196E+02</totfact>
</mgrwt>
</event>
<event>
 5    0  0.1200001E+000  0.1994719E+03  0.7546771E-02  0.1150185E+00
         21   -1    0    0  502  501  0.00000000000E+00  0.00000000000E+00  0.45090829688E+03  0.45090829688E+03  0.00000000000E+00 0. -1.
         21   -1    0    0  504  502 -0.00000000000E+00 -0.00000000000E+00 -0.18016438123E+03  0.18016438123E+03  0.00000000000E+00 0. -1.
         25    1    1    2    0    0 -0.15993871905E+03 -0.13666811643E+03 -0.29768730085E+02  0.24651520275E+03  0.12500000000E+03 0.  0.
         21    1    1    2  503  501  0.12886217730E+03  0.73403700182E+02  0.26937654616E+03  0.30750168708E+03  0.00000000000E+00 0. -1.
         21    1    1    2  504  503  0.31076541746E+02  0.63264416243E+02  0.31136099582E+02  0.77055788275E+02  0.00000000000E+00 0. -1.
<mgrwt>
<rscale>  4 0.19947187E+03</rscale>
<asrwt>0</asrwt>
<pdfrwt beam="1">  1       21 0.69370507E-01 0.19947187E+03</pdfrwt>
<pdfrwt beam="2">  1       21 0.27717597E-01 0.19947187E+03</pdfrwt>
<totfact> 0.23390577E+04</totfact>
</mgrwt>
</event>
<event>
 5    0  0.1200001E+000  0.2933180E+03  0.7546771E-02  0.1088629E+00
         21   -1    0    0  503  501  0.00000000000E+00  0.00000000000E+00  0.24803460829E+03  0.24803460829E+03  0.00000000000E+00 0.  1.
         21   -1    0    0  501  502 -0.00000000000E+00 -0.00000000000E+00 -0.95314942727E+03  0.95314942727E+03  0.00000000000E+00 0. -1.
         25    1    1    2    0    0  0.22065317948E+03  0.14045959933E+03 -0.80534307310E+03  0.85593176717E+03  0.12500000000E+03 0.  0.
         21    1    1    2  503  504 -0.25402871857E+03 -0.14815944851E+03  0.77410558578E+02  0.30409571950E+03  0.00000000000E+00 0.  1.
         21    1    1    2  504  502  0.33375539092E+02  0.76998491780E+01  0.22817695538E+02  0.41156548893E+02  0.00000000000E+00 0.  1.
<mgrwt>
<rscale>  4 0.29331803E+03</rscale>
<asrwt>0</asrwt>
<pdfrwt beam="1">  1       21 0.38159171E-01 0.29331803E+03</pdfrwt>
<pdfrwt beam="2">  1       21 0.14663837E+00 0.29331803E+03</pdfrwt>
<totfact> 0.19420268E+03</totfact>
</mgrwt>
</event>
<event>
 5    0  0.1200001E+000  0.7092043E+03  0.7546771E-02  0.9701620E-01
         21   -1    0    0  503  501  0.00000000000E+00  0.00000000000E+00  0.28481255725E+03  0.28481255725E+03  0.00000000000E+00 0. -1.
         21   -1    0    0  501  502 -0.00000000000E+00 -0.00000000000E+00 -0.18242151890E+04  0.18242151890E+04  0.00000000000E+00 0. -1.
         25    1    1    2    0    0 -0.11589133406E+03  0.67616751304E+03 -0.72942970718E+03  0.10091214024E+04  0.12500000000E+03 0.  0.
         21    1    1    2  503  504  0.17838166774E+02  0.27952039052E+02 -0.39103508849E+02  0.51269884780E+02  0.00000000000E+00 0. -1.
         21    1    1    2  504  502  0.98053167288E+02 -0.70411955209E+03 -0.77086941570E+03  0.10486364591E+04  0.00000000000E+00 0. -1.
<mgrwt>
<rscale>  4 0.70920434E+03</rscale>
<asrwt>0</asrwt>
<pdfrwt beam="1">  1       21 0.43817317E-01 0.70920434E+03</pdfrwt>
<pdfrwt beam="2">  1       21 0.28064849E+00 0.70920434E+03</pdfrwt>
<totfact> 0.15376537E+02</totfact>
</mgrwt>
</event>
<event>
 5    0  0.1200001E+000  0.2630646E+03  0.7546771E-02  0.1105316E+00
         21   -1    0    0  503  501  0.00000000000E+00  0.00000000000E+00  0.22526542242E+03  0.22526542242E+03  0.00000000000E+00 0. -1.
         21   -1    0    0  501  502 -0.00000000000E+00 -0.00000000000E+00 -0.30762202406E+03  0.30762202406E+03  0.00000000000E+00 0. -1.
         25    1    1    2    0    0  0.22990826457E+03  0.26836074693E+02  0.43645041200E+02  0.26666059822E+03  0.12500000000E+03 0.  0.
         21    1    1    2  503  504 -0.25635607493E+02  0.83332099874E+01 -0.18831415964E+02  0.32882350698E+02  0.00000000000E+00 0. -1.
         21    1    1    2  504  502 -0.20427265708E+03 -0.35169284681E+02 -0.10717022687E+03  0.23334449756E+03  0.00000000000E+00 0. -1.
<mgrwt>
<rscale>  4 0.26306460E+03</rscale>
<asrwt>0</asrwt>
<pdfrwt beam="1">  1       21 0.34656219E-01 0.26306460E+03</pdfrwt>
<pdfrwt beam="2">  1       21 0.47326466E-01 0.26306460E+03</pdfrwt>
<totfact> 0.33145487E+04</totfact>
</mgrwt>
</event>
<event>
 5    0  0.1200001E+000  0.3435326E+03  0.7546771E-02  0.1065301E+00
         21   -1    0    0  502  501  0.00000000000E+00  0.00000000000E+00  0.57578991458E+03  0.57578991458E+03  0.00000000000E+00 0.  1.
         21   -1    0    0  503  502 -0.00000000000E+00 -0.00000000000E+00 -0.15933370006E+04  0.15933370006E+04  0.00000000000E+00 0. -1.
         25    1    1    2    0    0  0.26545938722E+03  0.18793980239E+03 -0.14763235684E+04  0.15168870538E+04  0.12500000000E+03 0.  0.
         21    1    1    2  503  504 -0.12393127885E+03 -0.57105639934E+02 -0.18323255401E+02  0.13767991022E+03  0.00000000000E+00 0.  1.
         21    1    1    2  504  501 -0.14152810836E+03 -0.13083416245E+03  0.47709973775E+03  0.51455995111E+03  0.00000000000E+00 0.  1.
<mgrwt>
<rscale>  4 0.34353260E+03</rscale>
<asrwt>0</asrwt>
<pdfrwt beam="1">  1       21 0.88583063E-01 0.34353260E+03</pdfrwt>
<pdfrwt beam="2">  1       21 0.24512877E+00 0.34353260E+03</pdfrwt>
<totfact> 0.65073760E+01</totfact>
</mgrwt>
</event>
<event>
 5    0  0.1200001E+000  0.2513123E+03  0.7546771E-02  0.1112478E+00
         21   -1    0    0  503  501  0.00000000000E+00  0.00000000000E+00  0.24396083718E+04  0.24396083718E+04  0.00000000000E+00 0. -1.
         21   -1    0    0  501  502 -0.00000000000E+00 -0.00000000000E+00 -0.44549685323E+03  0.44549685323E+03  0.00000000000E+00 0.  1.
         25    1    1    2    0    0  0.47760195322E+02 -0.21335849416E+03 -0.38783893326E+03  0.46243585657E+03  0.12500000000E+03 0.  0.
         21    1    1    2  503  504 -0.34847871460E+02  0.23952580436E+01  0.18491208444E+04  0.18494507316E+04  0.00000000000E+00 0. -1.
         21    1    1    2  504  502 -0.12912323862E+02  0.21096323612E+03  0.53282960745E+03  0.57321863689E+03  0.00000000000E+00 0.  1.
<mgrwt>
<rscale>  4 0.25131227E+03</rscale>
<asrwt>0</asrwt>
<pdfrwt beam="1">  1       21 0.37532436E+00 0.25131227E+03</pdfrwt>
<pdfrwt beam="2">  1       21 0.68537979E-01 0.25131227E+03</pdfrwt>
<totfact> 0.21650852E+01</totfact>
</mgrwt>
</event>
<event>
 5    0  0.1200001E+000  0.2397826E+03  0.7546771E-02  0.1119938E+00
         21   -1    0    0  503  501  0.00000000000E+00  0.00000000000E+00  0.34187194704E+03  0.34187194704E+03  0.00000000000E+00 0. -1.
         21   -1    0    0  501  502 -0.00000000000E+00 -0.00000000000E+00 -0.16201896417E+03  0.16201896417E+03  0.00000000000E+00 0. -1.
         25    1    1    2    0    0 -0.16222670111E+03  0.12471234754E+03  0.27213999200E+02  0.24132193007E+03  0.12500000000E+03 0.  0.
         21    1    1    2  503  504  0.33423182909E+02 -0.65897709016E+01  0.63415588322E+01  0.34651834074E+02  0.00000000000E+00 0.  1.
         21    1    1    2  504  502  0.12880351820E+03 -0.11812257664E+03  0.14629742483E+03  0.22791714706E+03  0.00000000000E+00 0. -1.
<mgrwt>
<rscale>  4 0.23978255E+03</rscale>
<asrwt>0</asrwt>
<pdfrwt beam="1">  1       21 0.52595684E-01 0.23978255E+03</pdfrwt>
<pdfrwt beam="2">  1       21 0.24925995E-01 0.23978255E+03</pdfrwt>
<totfact> 0.51106225E+04</totfact>
</mgrwt>
</event>
<event>
 5    0  0.1379048E+000  0.2492753E+03  0.7546771E-02  0.1113764E+00
         21   -1    0    0  503  501  0.00000000000E+00  0.00000000000E+00  0.16927876138E+03  0.16927876138E+03  0.00000000000E+00 0. -1.
         21   -1    0    0  504  502 -0.00000000000E+00 -0.00000000000E+00 -0.36550606482E+03  0.36550606482E+03  0.00000000000E+00 0. -1.
         25    1    1    2    0    0  0.36297487553E+01 -0.21102206358E+03 -0.12952160074E+03  0.27738841261E+03  0.12500000000E+03 0.  0.
         21    1    1    2  503  502 -0.24387519844E+02  0.21975680554E+03 -0.74875262121E+02  0.23343973437E+03  0.00000000000E+00 0. -1.
         21    1    1    2  504  501  0.20757771089E+02 -0.87347419606E+01  0.81695594288E+01  0.23956679214E+02  0.00000000000E+00 0.  1.
<mgrwt>
<rscale>  4 0.24927530E+03</rscale>
<asrwt>0</asrwt>
<pdfrwt beam="1">  1       21 0.26042886E-01 0.24927530E+03</pdfrwt>
<pdfrwt beam="2">  1       21 0.56231702E-01 0.24927530E+03</pdfrwt>
<totfact> 0.40595293E+04</totfact>
</mgrwt>
</event>
<event>
 5    0  0.1200001E+000  0.2416455E+03  0.7546771E-02  0.1118701E+00
         21   -1    0    0  502  501  0.00000000000E+00  0.00000000000E+00  0.17432339303E+03  0.17432339303E+03  0.00000000000E+00 0. -1.
         21   -1    0    0  503  502 -0.00000000000E+00 -0.00000000000E+00 -0.29897720551E+04  0.29897720551E+04  0.00000000000E+00 0.  1.
         25    1    1    2    0    0  0.11120735266E+03 -0.17677454372E+03 -0.27969237623E+04  0.28074942292E+04  0.12500000000E+03 0.  0.
         21    1    1    2  503  504 -0.75458896150E+02  0.27431383935E+02 -0.13960464959E+03  0.16104652750E+03  0.00000000000E+00 0.  1.
         21    1    1    2  504  501 -0.35748456514E+02  0.14934315978E+03  0.12107974986E+03  0.19555469144E+03  0.00000000000E+00 0. -1.
<mgrwt>
<rscale>  4 0.24164550E+03</rscale>
<asrwt>0</asrwt>
<pdfrwt beam="1">  1       21 0.26818984E-01 0.24164550E+03</pdfrwt>
<pdfrwt beam="2">  1       21 0.45996492E+00 0.24164550E+03</pdfrwt>
<totfact> 0.43372239E+01</totfact>
</mgrwt>
</event>
<event>
 5    0  0.1200001E+000  0.2910693E+03  0.7546771E-02  0.1089792E+00
         21   -1    0    0  503  501  0.00000000000E+00  0.00000000000E+00  0.29484269039E+03  0.29484269039E+03  0.00000000000E+00 0. -1.
         21   -1    0    0  504  502 -0.00000000000E+00 -0.00000000000E+00 -0.49762480513E+03  0.49762480513E+03  0.00000000000E+00 0. -1.
         25    1    1    2    0    0  0.69963061506E+02  0.25552499398E+03 -0.22082396963E+03  0.36684612317E+03  0.12500000000E+03 0.  0.
         21    1    1    2  503  502 -0.96663351766E+02 -0.24281467005E+03 -0.11774830697E+03  0.28664862002E+03  0.00000000000E+00 0. -1.
         21    1    1    2  504  501  0.26700290259E+02 -0.12710323932E+02  0.13579016186E+03  0.13897275233E+03  0.00000000000E+00 0. -1.
<mgrwt>
<rscale>  4 0.29106927E+03</rscale>
<asrwt>0</asrwt>
<pdfrwt beam="1">  1       21 0.45360414E-01 0.29106927E+03</pdfrwt>
<pdfrwt beam="2">  1       21 0.76557662E-01 0.29106927E+03</pdfrwt>
<totfact> 0.66618375E+03</totfact>
</mgrwt>
</event>
<event>
 5    0  0.1200001E+000  0.3095228E+03  0.7546771E-02  0.1080575E+00
         21   -1    0    0  503  501  0.00000000000E+00  0.00000000000E+00  0.77680706173E+03  0.77680706173E+03  0.00000000000E+00 0. -1.
         21   -1    0    0  501  502 -0.00000000000E+00 -0.00000000000E+00 -0.85885559157E+03  0.85885559157E+03  0.00000000000E+00 0. -1.
         25    1    1    2    0    0 -0.19151839352E+03  0.20268817944E+03 -0.76034045420E+03  0.81945372013E+03  0.12500000000E+03 0.  0.
         21    1    1    2  503  504 -0.52218382620E+02  0.60816814128E+02  0.21955116253E+03  0.23372667227E+03  0.00000000000E+00 0.  1.
         21    1    1    2  504  502  0.24373677614E+03 -0.26350499357E+03  0.45874076184E+03  0.58248226089E+03  0.00000000000E+00 0. -1.
<mgrwt>
<rscale>  4 0.30952278E+03</rscale>
<asrwt>0</asrwt>
<pdfrwt beam="1">  1       21 0.11950878E+00 0.30952278E+03</pdfrwt>
<pdfrwt beam="2">  1       21 0.13213163E+00 0.30952278E+03</pdfrwt>
<totfact> 0.19713921E+02</totfact>
</mgrwt>
</event>
<event>
 5    0  0.1200001E+000  0.3486833E+03  0.7546771E-02  0.1063157E+00
         21   -1    0    0  503  501  0.00000000000E+00  0.00000000000E+00  0.80469863335E+03  0.80469863335E+03  0.00000000000E+00 0. -1.
         21   -1    0    0  501  502 -0.00000000000E+00 -0.00000000000E+00 -0.25400801255E+03  0.25400801255E+03  0.00000000000E+00 0.  1.
         25    1    1    2    0    0 -0.27414461570E+03  0.18229964079E+03 -0.42417458024E+02  0.35470081772E+03  0.12500000000E+03 0.  0.
         21    1    1    2  503  504  0.26570272880E+02  0.13094513723E+02  0.18941303523E+03  0.19171526702E+03  0.00000000000E+00 0.  1.
         21    1    1    2  504  502  0.24757434282E+03 -0.19539415451E+03  0.40369504358E+03  0.51229056116E+03  0.00000000000E+00 0. -1.
<mgrwt>
<rscale>  4 0.34868334E+03</rscale>
<asrwt>0</asrwt>
<pdfrwt beam="1">  1       21 0.12379979E+00 0.34868334E+03</pdfrwt>
<pdfrwt beam="2">  1       21 0.39078156E-01 0.34868334E+03</pdfrwt>
<totfact> 0.27855431E+03</totfact>
</mgrwt>
</event>
<event>
 5    0  0.1200001E+000  0.2865423E+03  0.7546771E-02  0.1092168E+00
         21   -1    0    0  503  501  0.00000000000E+00  0.00000000000E+00  0.93422209139E+03  0.93422209139E+03  0.00000000000E+00 0.  1.
         21   -1    0    0  504  502 -0.00000000000E+00 -0.00000000000E+00 -0.46702383277E+03  0.46702383277E+03  0.00000000000E+00 0. -1.
         25    1    1    2    0    0  0.19445524928E+03 -0.17528351368E+03 -0.38119358840E+03  0.47903100732E+03  0.12500000000E+03 0.  0.
         21    1    1    2  503  502 -0.94795584049E+02 -0.30538354741E+01  0.71131798086E+02  0.11855488756E+03  0.00000000000E+00 0. -1.
         21    1    1    2  504  501 -0.99659665231E+02  0.17833734915E+03  0.77726004893E+03  0.80366002927E+03  0.00000000000E+00 0.  1.
<mgrwt>
<rscale>  4 0.28654233E+03</rscale>
<asrwt>0</asrwt>
<pdfrwt beam="1">  1       21 0.14372647E+00 0.28654233E+03</pdfrwt>
<pdfrwt beam="2">  1       21 0.71849821E-01 0.28654233E+03</pdfrwt>
<totfact> 0.53608421E+02</totfact>
</mgrwt>
</event>
<event>
 5    0  0.1200001E+000  0.2512958E+03  0.7546771E-02  0.1112489E+00
         21   -1    0    0  503  501  0.00000000000E+00  0.00000000000E+00  0.26316155031E+03  0.26316155031E+03  0.00000000000E+00 0.  1.
         21   -1    0    0  501  502 -0.00000000000E+00 -0.00000000000E+00 -0.10548132716E+04  0.10548132716E+04  0.00000000000E+00 0. -1.
         25    1    1    2    0    0  0.54106936990E+01 -0.21922503055E+03 -0.97832915130E+03  0.10103671699E+04  0.12500000000E+03 0.  0.
         21    1    1    2  503  504 -0.16811793895E+02  0.15271888594E+02  0.67259394784E+02  0.70990796459E+02  0.00000000000E+00 0.  1.
         21    1    1    2  504  502  0.11401100196E+02  0.20395314195E+03  0.11941803525E+03  0.23661685557E+03  0.00000000000E+00 0.  1.
<mgrwt>
<rscale>  4 0.25129582E+03</rscale>
<asrwt>0</asrwt>
<pdfrwt beam="1">  1       21 0.40486392E-01 0.25129582E+03</pdfrwt>
<pdfrwt beam="2">  1       21 0.16227897E+00 0.25129582E+03</pdfrwt>
<totfact> 0.13498899E+03</totfact>
</mgrwt>
</event>
<event>
 5    0  0.1200001E+000  0.2488330E+03  0.7546771E-02  0.1114045E+00
         21   -1    0    0  502  501  0.00000000000E+00  0.00000000000E+00  0.75428746728E+03  0.75428746728E+03  0.00000000000E+00 0.  1.
         21   -1    0    0  503  502 -0.00000000000E+00 -0.00000000000E+00 -0.24390448183E+03  0.24390448183E+03  0.00000000000E+00 0.  1.
         25    1    1    2    0    0  0.14566333335E+03 -0.16347911257E+03 -0.14965771173E+03  0.29319900684E+03  0.12500000000E+03 0.  0.
         21    1    1    2  503  504 -0.27605849516E+02  0.11086938069E+02  0.25152775807E+03  0.25328090374E+03  0.00000000000E+00 0.  1.
         21    1    1    2  504  501 -0.11805748384E+03  0.15239217450E+03  0.40851293910E+03  0.45171203853E+03  0.00000000000E+00 0.  1.
<mgrwt>
<rscale>  4 0.24883302E+03</rscale>
<asrwt>0</asrwt>
<pdfrwt beam="1">  1       21 0.11604422E+00 0.24883302E+03</pdfrwt>
<pdfrwt beam="2">  1       21 0.37523767E-01 0.24883302E+03</pdfrwt>
<totfact> 0.37644707E+03</totfact>
</mgrwt>
</event>
<event>
 5    0  0.1200001E+000  0.2775576E+03  0.7546771E-02  0.1097030E+00
         21   -1    0    0  503  501  0.00000000000E+00  0.00000000000E+00  0.36067998187E+03  0.36067998187E+03  0.00000000000E+00 0. -1.
         21   -1    0    0  504  502 -0.00000000000E+00 -0.00000000000E+00 -0.41388911737E+03  0.41388911737E+03  0.00000000000E+00 0. -1.
         25    1    1    2    0    0 -0.64772701484E+02 -0.27364716748E+03 -0.12282252440E+03  0.33134370015E+03  0.12500000000E+03 0.  0.
         21    1    1    2  503  502  0.27255679497E+01  0.22720694316E+03 -0.10640264982E+03  0.25090226709E+03  0.00000000000E+00 0. -1.
         21    1    1    2  504  501  0.62047133534E+02  0.46440224321E+02  0.17601603872E+03  0.19232313200E+03  0.00000000000E+00 0. -1.
<mgrwt>
<rscale>  4 0.27755760E+03</rscale>
<asrwt>0</asrwt>
<pdfrwt beam="1">  1       21 0.55489228E-01 0.27755760E+03</pdfrwt>
<pdfrwt beam="2">  1       21 0.63675248E-01 0.27755760E+03</pdfrwt>
<totfact> 0.66125891E+03</totfact>
</mgrwt>
</event>
<event>
 5    0  0.1200001E+000  0.3048909E+03  0.7546771E-02  0.1082821E+00
         21   -1    0    0  502  501  0.00000000000E+00  0.00000000000E+00  0.29040431409E+03  0.29040431409E+03  0.00000000000E+00 0. -1.
         21   -1    0    0  503  502 -0.00000000000E+00 -0.00000000000E+00 -0.42076826412E+03  0.42076826412E+03  0.00000000000E+00 0. -1.
         25    1    1    2    0    0  0.44821149452E+02  0.27865002748E+03 -0.23256123846E+03  0.38647704057E+03  0.12500000000E+03 0.  0.
         21    1    1    2  503  504 -0.30270410605E+02 -0.92293990641E+01  0.33893744839E+02  0.46370955397E+02  0.00000000000E+00 0. -1.
         21    1    1    2  504  501 -0.14550738847E+02 -0.26942062841E+03  0.68303543591E+02  0.27832458225E+03  0.00000000000E+00 0. -1.
<mgrwt>
<rscale>  4 0.30489088E+03</rscale>
<asrwt>0</asrwt>
<pdfrwt beam="1">  1       21 0.44677587E-01 0.30489088E+03</pdfrwt>
<pdfrwt beam="2">  1       21 0.64733579E-01 0.30489088E+03</pdfrwt>
<totfact> 0.99332453E+03</totfact>
</mgrwt>
</event>
<event>
 5    0  0.1200001E+000  0.2407911E+03  0.7546771E-02  0.1119267E+00
         21   -1    0    0  503  501  0.00000000000E+00  0.00000000000E+00  0.50368218699E+03  0.50368218699E+03  0.00000000000E+00 0.  1.
         21   -1    0    0  504  502 -0.00000000000E+00 -0.00000000000E+00 -0.18810463909E+03  0.18810463909E+03  0.00000000000E+00 0.  1.
         25    1    1    2    0    0  0.12265803795E+03  0.16624875816E+03 -0.78681903708E+01  0.24159998403E+03  0.12500000000E+03 0.  0.
         21    1    1    2  503  502 -0.97000293081E+02 -0.18165763232E+03  0.10773951367E+03  0.23241418856E+03  0.00000000000E+00 0.  1.
         21    1    1    2  504  501 -0.25657744869E+02  0.15408874158E+02  0.21570622460E+03  0.21777265349E+03  0.00000000000E+00 0.  1.
<mgrwt>
<rscale>  4 0.24079113E+03</rscale>
<asrwt>0</asrwt>
<pdfrwt beam="1">  1       21 0.77489567E-01 0.24079113E+03</pdfrwt>
<pdfrwt beam="2">  1       21 0.28939175E-01 0.24079113E+03</pdfrwt>
<totfact> 0.16421062E+04</totfact>
</mgrwt>
</event>
<event>
 5    0  0.1200001E+000  0.2362727E+03  0.7546771E-02  0.1122301E+00
         21   -1    0    0  503  501  0.00000000000E+00  0.00000000000E+00  0.55552388402E+03  0.55552388402E+03  0.00000000000E+00 0.  1.
         21   -1    0    0  504  502 -0.00000000000E+00 -0.00000000000E+00 -0.17205101160E+04  0.17205101160E+04  0.00000000000E+00 0.  1.
         25    1    1    2    0    0  0.19851779362E+03  0.30577484949E+02 -0.15652233465E+04  0.15830013965E+04  0.12500000000E+03 0.  0.
         21    1    1    2  503  502 -0.54213641106E+02  0.22311147727E+03  0.46203586882E+02  0.23420636544E+03  0.00000000000E+00 0.  1.
         21    1    1    2  504  501 -0.14430415251E+03 -0.25368896222E+03  0.35403352767E+03  0.45882623802E+03  0.00000000000E+00 0.  1.
<mgrwt>
<rscale>  4 0.23627269E+03</rscale>
<asrwt>0</asrwt>
<pdfrwt beam="1">  1       21 0.85465214E-01 0.23627269E+03</pdfrwt>
<pdfrwt beam="2">  1       21 0.26469386E+00 0.23627269E+03</pdfrwt>
<totfact> 0.60517294E+01</totfact>
</mgrwt>
</event>
<event>
 5    0  0.1200001E+000  0.2433858E+03  0.7546771E-02  0.1117558E+00
         21   -1    0    0  503  501  0.00000000000E+00  0.00000000000E+00  0.37540680076E+03  0.37540680076E+03  0.00000000000E+00 0.  1.
         21   -1    0    0  501  502 -0.00000000000E+00 -0.00000000000E+00 -0.28385480342E+03  0.28385480342E+03  0.00000000000E+00 0.  1.
         25    1    1    2    0    0  0.23793571035E+02  0.21015092277E+03 -0.17902686438E+03  0.30398217470E+03  0.12500000000E+03 0.  0.
         21    1    1    2  503  504 -0.27334230812E+02 -0.12060833471E+02  0.20510185090E+02  0.36239364930E+02  0.00000000000E+00 0.  1.
         21    1    1    2  504  502  0.35406597768E+01 -0.19809008930E+03  0.25006867663E+03  0.31904006455E+03  0.00000000000E+00 0.  1.
<mgrwt>
<rscale>  4 0.24338584E+03</rscale>
<asrwt>0</asrwt>
<pdfrwt beam="1">  1       21 0.57754892E-01 0.24338584E+03</pdfrwt>
<pdfrwt beam="2">  1       21 0.43669970E-01 0.24338584E+03</pdfrwt>
<totfact> 0.13746156E+04</totfact>
</mgrwt>
</event>
<event>
 5    0  0.1200001E+000  0.2292146E+03  0.7546771E-02  0.1127194E+00
         21   -1    0    0  503  501  0.00000000000E+00  0.00000000000E+00  0.18132661058E+04  0.18132661058E+04  0.00000000000E+00 0. -1.
         21   -1    0    0  504  502 -0.00000000000E+00 -0.00000000000E+00 -0.13795854614E+03  0.13795854614E+03  0.00000000000E+00 0. -1.
         25    1    1    2    0    0 -0.62020482354E+02  0.19619331933E+03 -0.87660242876E+01  0.24091534190E+03  0.12500000000E+03 0.  0.
         21    1    1    2  503  502  0.66088972292E+02 -0.50471904831E+02  0.12428137550E+04  0.12455927083E+04  0.00000000000E+00 0. -1.
         21    1    1    2  504  501 -0.40684899388E+01 -0.14572141450E+03  0.44125982894E+03  0.46471660169E+03  0.00000000000E+00 0. -1.
<mgrwt>
<rscale>  4 0.22921455E+03</rscale>
<asrwt>0</asrwt>
<pdfrwt beam="1">  1       21 0.27896400E+00 0.22921455E+03</pdfrwt>
<pdfrwt beam="2">  1       21 0.21224393E-01 0.22921455E+03</pdfrwt>
<totfact> 0.89103104E+02</totfact>
</mgrwt>
</event>
<event>
 5    0  0.1200001E+000  0.2802639E+03  0.7546771E-02  0.1095545E+00
         21   -1    0    0  503  501  0.00000000000E+00  0.00000000000E+00  0.17949316765E+03  0.17949316765E+03  0.00000000000E+00 0.  1.
         21   -1    0    0  501  502 -0.00000000000E+00 -0.00000000000E+00 -0.41750108302E+03  0.41750108302E+03  0.00000000000E+00 0.  1.
         25    1    1    2    0    0  0.14402746020E+03 -0.20537511742E+03 -0.75618333415E+02  0.29028603221E+03  0.12500000000E+03 0.  0.
         21    1    1    2  503  504 -0.86438630577E+01  0.45393752275E+02 -0.92090664099E+01  0.47118107117E+02  0.00000000000E+00 0.  1.
         21    1    1    2  504  502 -0.13538359714E+03  0.15998136514E+03 -0.15318051554E+03  0.25959011135E+03  0.00000000000E+00 0.  1.
<mgrwt>
<rscale>  4 0.28026389E+03</rscale>
<asrwt>0</asrwt>
<pdfrwt beam="1">  1       21 0.27614334E-01 0.28026389E+03</pdfrwt>
<pdfrwt beam="2">  1       21 0.64230936E-01 0.28026389E+03</pdfrwt>
<totfact> 0.26826424E+04</totfact>
</mgrwt>
</event>
<event>
 5    0  0.1200001E+000  0.2740683E+03  0.7546771E-02  0.1098974E+00
         21   -1    0    0  503  501  0.00000000000E+00  0.00000000000E+00  0.90434577383E+02  0.90434577383E+02  0.00000000000E+00 0.  1.
         21   -1    0    0  504  502 -0.00000000000E+00 -0.00000000000E+00 -0.22875797268E+04  0.22875797268E+04  0.00000000000E+00 0.  1.
         25    1    1    2    0    0  0.14676286258E+03  0.19091353477E+03 -0.93855647104E+03  0.97698544765E+03  0.12500000000E+03 0.  0.
         21    1    1    2  503  502 -0.12017452353E+03  0.59505738132E+02 -0.10894524485E+04  0.10976745813E+04  0.00000000000E+00 0. -1.
         21    1    1    2  504  501 -0.26588339048E+02 -0.25041927290E+03 -0.16913622984E+03  0.30335427516E+03  0.00000000000E+00 0.  1.
<mgrwt>
<rscale>  4 0.27406831E+03</rscale>
<asrwt>0</asrwt>
<pdfrwt beam="1">  1       21 0.13913012E-01 0.27406831E+03</pdfrwt>
<pdfrwt beam="2">  1       21 0.35193533E+00 0.27406831E+03</pdfrwt>
<totfact> 0.69159334E+02</totfact>
</mgrwt>
</event>
<event>
 5    0  0.1200001E+000  0.2723522E+03  0.7546771E-02  0.1099941E+00
         21   -1    0    0  503  501  0.00000000000E+00  0.00000000000E+00  0.82604288341E+03  0.82604288341E+03  0.00000000000E+00 0.  1.
         21   -1    0    0  501  502 -0.00000000000E+00 -0.00000000000E+00 -0.24496737334E+03  0.24496737334E+03  0.00000000000E+00 0. -1.
         25    1    1    2    0    0 -0.14546318028E+03  0.21658158063E+03 -0.10016026728E+03  0.30614407887E+03  0.12500000000E+03 0.  0.
         21    1    1    2  503  504 -0.91365271565E+01 -0.90365509189E+02  0.45150958941E+03  0.46055435152E+03  0.00000000000E+00 0.  1.
         21    1    1    2  504  502  0.15459970744E+03 -0.12621607144E+03  0.22972618794E+03  0.30431182635E+03  0.00000000000E+00 0.  1.
<mgrwt>
<rscale>  4 0.27235223E+03</rscale>
<asrwt>0</asrwt>
<pdfrwt beam="1">  1       21 0.12708352E+00 0.27235223E+03</pdfrwt>
<pdfrwt beam="2">  1       21 0.37687289E-01 0.27235223E+03</pdfrwt>
<totfact> 0.29261872E+03</totfact>
</mgrwt>
</event>
<event>
 5    0  0.1200001E+000  0.3076941E+03  0.7546771E-02  0.1081456E+00
         21   -1    0    0  503  501  0.00000000000E+00  0.00000000000E+00  0.19238732888E+03  0.19238732888E+03  0.00000000000E+00 0. -1.
         21   -1    0    0  504  502 -0.00000000000E+00 -0.00000000000E+00 -0.15364962290E+04  0.15364962290E+04  0.00000000000E+00 0. -1.
         25    1    1    2    0    0 -0.28880639459E+02 -0.27733727028E+03 -0.13472498288E+04  0.13814692013E+04  0.12500000000E+03 0.  0.
         21    1    1    2  503  502 -0.34377333142E+01  0.30435496025E+03  0.10956155612E+02  0.30457149766E+03  0.00000000000E+00 0. -1.
         21    1    1    2  504  501  0.32318372773E+02 -0.27017689975E+02 -0.78152269050E+01  0.42842858936E+02  0.00000000000E+00 0.  1.
<mgrwt>
<rscale>  4 0.30769406E+03</rscale>
<asrwt>0</asrwt>
<pdfrwt beam="1">  1       21 0.29598052E-01 0.30769406E+03</pdfrwt>
<pdfrwt beam="2">  1       21 0.23638403E+00 0.30769406E+03</pdfrwt>
<totfact> 0.78376429E+02</totfact>
</mgrwt>
</event>
<event>
 5    0  0.1200001E+000  0.2670778E+03  0.7546771E-02  0.1102964E+00
         21   -1    0    0  502  501  0.00000000000E+00  0.00000000000E+00  0.41335261337E+03  0.41335261337E+03  0.00000000000E+00 0. -1.
         21   -1    0    0  503  502 -0.00000000000E+00 -0.00000000000E+00 -0.30539593404E+03  0.30539593404E+03  0.00000000000E+00 0. -1.
         25    1    1    2    0    0  0.25694472379E+03 -0.10609080724E+02 -0.15536733992E+03  0.32541842909E+03  0.12500000000E+03 0.  0.
         21    1    1    2  503  504 -0.65435458750E+02  0.51627640006E+02  0.13670880524E+03  0.16011405280E+03  0.00000000000E+00 0. -1.
         21    1    1    2  504  501 -0.19150926504E+03 -0.41018559281E+02  0.12661521401E+03  0.23321606553E+03  0.00000000000E+00 0. -1.
<mgrwt>
<rscale>  4 0.26707783E+03</rscale>
<asrwt>0</asrwt>
<pdfrwt beam="1">  1       21 0.63592710E-01 0.26707783E+03</pdfrwt>
<pdfrwt beam="2">  1       21 0.46983990E-01 0.26707783E+03</pdfrwt>
<totfact> 0.94721509E+03</totfact>
</mgrwt>
</event>
<event>
 5    0  0.1200001E+000  0.2643245E+03  0.7546771E-02  0.1104572E+00
         21   -1    0    0  503  501  0.00000000000E+00  0.00000000000E+00  0.93110829509E+03  0.93110829509E+03  0.00000000000E+00 0. -1.
         21   -1    0    0  504  502 -0.00000000000E+00 -0.00000000000E+00 -0.10423517507E+03  0.10423517507E+03  0.00000000000E+00 0.  1.
         25    1    1    2    0    0 -0.21076472301E+03  0.43026461960E+02  0.55243287543E+03  0.60587137806E+03  0.12500000000E+03 0.  0.
         21    1    1    2  503  502  0.23366272061E+03 -0.48291031055E+02  0.10890823840E+03  0.26228094684E+03  0.00000000000E+00 0.  1.
         21    1    1    2  504  501 -0.22897997603E+02  0.52645690948E+01  0.16553200619E+03  0.16719114527E+03  0.00000000000E+00 0. -1.
<mgrwt>
<rscale>  4 0.26432452E+03</rscale>
<asrwt>0</asrwt>
<pdfrwt beam="1">  1       21 0.14324742E+00 0.26432452E+03</pdfrwt>
<pdfrwt beam="2">  1       21 0.16036181E-01 0.26432452E+03</pdfrwt>
<totfact> 0.11180271E+04</totfact>
</mgrwt>
</event>
<event>
 5    0  0.1200001E+000  0.2345275E+03  0.7546771E-02  0.1123493E+00
         21   -1    0    0  503  501  0.00000000000E+00  0.00000000000E+00  0.16560247320E+04  0.16560247320E+04  0.00000000000E+00 0.  1.
         21   -1    0    0  504  502 -0.00000000000E+00 -0.00000000000E+00 -0.78610945802E+02  0.78610945802E+02  0.00000000000E+00 0. -1.
         25    1    1    2    0    0 -0.20376687040E+03 -0.21993846245E+02  0.21690483079E+03  0.32353882668E+03  0.12500000000E+03 0.  0.
         21    1    1    2  503  502  0.17989895015E+03  0.71100849733E+02  0.35646206207E+03  0.40556647395E+03  0.00000000000E+00 0. -1.
         21    1    1    2  504  501  0.23867920256E+02 -0.49107003488E+02  0.10040468933E+04  0.10055303772E+04  0.00000000000E+00 0.  1.
<mgrwt>
<rscale>  4 0.23452754E+03</rscale>
<asrwt>0</asrwt>
<pdfrwt beam="1">  1       21 0.25477301E+00 0.23452754E+03</pdfrwt>
<pdfrwt beam="2">  1       21 0.12093993E-01 0.23452754E+03</pdfrwt>
<totfact> 0.34582956E+03</totfact>
</mgrwt>
</event>
<event>
 5    0  0.1200001E+000  0.2763105E+03  0.7546771E-02  0.1097721E+00
         21   -1    0    0  503  501  0.00000000000E+00  0.00000000000E+00  0.41669113200E+03  0.41669113200E+03  0.00000000000E+00 0. -1.
         21   -1    0    0  501  502 -0.00000000000E+00 -0.00000000000E+00 -0.22329093204E+03  0.22329093204E+03  0.00000000000E+00 0. -1.
         25    1    1    2    0    0  0.13532085318E+03 -0.17941952117E+03  0.14642373972E+03  0.29591892375E+03  0.12500000000E+03 0.  0.
         21    1    1    2  503  504  0.26421317820E+02 -0.21187119506E+02  0.77496152739E+02  0.84573244928E+02  0.00000000000E+00 0. -1.
         21    1    1    2  504  502 -0.16174217100E+03  0.20060664067E+03 -0.30519692488E+02  0.25948989536E+03  0.00000000000E+00 0. -1.
<mgrwt>
<rscale>  4 0.27631047E+03</rscale>
<asrwt>0</asrwt>
<pdfrwt beam="1">  1       21 0.64106328E-01 0.27631047E+03</pdfrwt>
<pdfrwt beam="2">  1       21 0.34352451E-01 0.27631047E+03</pdfrwt>
<totfact> 0.17543812E+04</totfact>
</mgrwt>
</event>
<event>
 5    0  0.1200001E+000  0.2709449E+03  0.7546771E-02  0.1100740E+00
         21   -1    0    0  503  501  0.00000000000E+00  0.00000000000E+00  0.38492671137E+03  0.38492671137E+03  0.00000000000E+00 0.  1.
         21   -1    0    0  504  502 -0.00000000000E+00 -0.00000000000E+00 -0.40099091049E+03  0.40099091049E+03  0.00000000000E+00 0.  1.
         25    1    1    2    0    0 -0.23724087900E+03 -0.78509675092E+01 -0.27461887512E+03  0.38390806052E+03  0.12500000000E+03 0.  0.
         21    1    1    2  503  502  0.25525479424E+03  0.46112234268E+02  0.24698414496E+03  0.35816548688E+03  0.00000000000E+00 0.  1.
         21    1    1    2  504  501 -0.18013915233E+02 -0.38261266759E+02  0.11570531053E+02  0.43844074456E+02  0.00000000000E+00 0.  1.
<mgrwt>
<rscale>  4 0.27094486E+03</rscale>
<asrwt>0</asrwt>
<pdfrwt beam="1">  1       21 0.59219494E-01 0.27094486E+03</pdfrwt>
<pdfrwt beam="2">  1       21 0.61690909E-01 0.27094486E+03</pdfrwt>
<totfact> 0.61829814E+03</totfact>
</mgrwt>
</event>
<event>
 5    0  0.1200001E+000  0.2939195E+03  0.7546771E-02  0.1088320E+00
         21   -1    0    0  503  501  0.00000000000E+00  0.00000000000E+00  0.14024592085E+03  0.14024592085E+03  0.00000000000E+00 0.  1.
         21   -1    0    0  501  502 -0.00000000000E+00 -0.00000000000E+00 -0.13646840227E+04  0.13646840227E+04  0.00000000000E+00 0.  1.
         25    1    1    2    0    0 -0.29769093884E+02  0.25828684201E+03 -0.10401229718E+04  0.10793882935E+04  0.12500000000E+03 0.  0.
         21    1    1    2  503  504  0.68234693618E+02  0.38634620531E+02 -0.98851729298E+01  0.79033688770E+02  0.00000000000E+00 0.  1.
         21    1    1    2  504  502 -0.38465599734E+02 -0.29692146254E+03 -0.17442995714E+03  0.34650796128E+03  0.00000000000E+00 0.  1.
<mgrwt>
<rscale>  4 0.29391948E+03</rscale>
<asrwt>0</asrwt>
<pdfrwt beam="1">  1       21 0.21576295E-01 0.29391948E+03</pdfrwt>
<pdfrwt beam="2">  1       21 0.20995139E+00 0.29391948E+03</pdfrwt>
<totfact> 0.21327405E+03</totfact>
</mgrwt>
</event>
<event>
 5    0  0.1200001E+000  0.2442535E+03  0.7546771E-02  0.1116991E+00
         21   -1    0    0  502  501  0.00000000000E+00  0.00000000000E+00  0.38786877221E+03  0.38786877221E+03  0.00000000000E+00 0. -1.
         21   -1    0    0  504  502 -0.00000000000E+00 -0.00000000000E+00 -0.26309150075E+03  0.26309150075E+03  0.00000000000E+00 0. -1.
         25    1    1    2    0    0  0.87799400120E+02  0.18450415366E+03 -0.13515235125E+03  0.27503031729E+03  0.12500000000E+03 0.  0.
         21    1    1    2  503  501 -0.11941116203E+03 -0.19660253257E+03  0.19041439299E+03  0.29861216065E+03  0.00000000000E+00 0. -1.
         21    1    1    2  504  503  0.31611761910E+02  0.12098378909E+02  0.69515229720E+02  0.77317795017E+02  0.00000000000E+00 0. -1.
<mgrwt>
<rscale>  4 0.24425349E+03</rscale>
<asrwt>0</asrwt>
<pdfrwt beam="1">  1       21 0.59672119E-01 0.24425349E+03</pdfrwt>
<pdfrwt beam="2">  1       21 0.40475616E-01 0.24425349E+03</pdfrwt>
<totfact> 0.14960943E+04</totfact>
</mgrwt>
</event>
<event>
 5    0  0.1200001E+000  0.3658440E+03  0.7546771E-02  0.1056294E+00
         21   -1    0    0  503  501  0.00000000000E+00  0.00000000000E+00  0.41678281760E+03  0.41678281760E+03  0.00000000000E+00 0. -1.
         21   -1    0    0  501  502 -0.00000000000E+00 -0.00000000000E+00 -0.87867543191E+03  0.87867543191E+03  0.00000000000E+00 0. -1.
         25    1    1    2    0    0 -0.20639130565E+03 -0.27644101544E+03 -0.49936422018E+03  0.61968268530E+03  0.12500000000E+03 0.  0.
         21    1    1    2  503  504 -0.10237805366E+03  0.92866322086E+02  0.22990751018E+03  0.26825898472E+03  0.00000000000E+00 0. -1.
         21    1    1    2  504  502  0.30876935931E+03  0.18357469335E+03 -0.19243590430E+03  0.40751657948E+03  0.00000000000E+00 0. -1.
<mgrwt>
<rscale>  4 0.36584402E+03</rscale>
<asrwt>0</asrwt>
<pdfrwt beam="1">  1       21 0.64120434E-01 0.36584402E+03</pdfrwt>
<pdfrwt beam="2">  1       21 0.13518083E+00 0.36584402E+03</pdfrwt>
<totfact> 0.77089168E+02</totfact>
</mgrwt>
</event>
<event>
 5    0  0.1200001E+000  0.2578641E+03  0.7546771E-02  0.1108433E+00
         21   -1    0    0  503  501  0.00000000000E+00  0.00000000000E+00  0.76425237407E+03  0.76425237407E+03  0.00000000000E+00 0.  1.
         21   -1    0    0  501  502 -0.00000000000E+00 -0.00000000000E+00 -0.12750943623E+03  0.12750943623E+03  0.00000000000E+00 0.  1.
         25    1    1    2    0    0  0.21594078131E+03 -0.84146099292E+02  0.73490113578E+02  0.27338029163E+03  0.12500000000E+03 0.  0.
         21    1    1    2  503  504 -0.33913385291E+02 -0.22978735636E+02  0.13155076052E+03  0.13778150307E+03  0.00000000000E+00 0.  1.
         21    1    1    2  504  502 -0.18202739602E+03  0.10712483493E+03  0.43170206374E+03  0.48060001560E+03  0.00000000000E+00 0.  1.
<mgrwt>
<rscale>  4 0.25786406E+03</rscale>
<asrwt>0</asrwt>
<pdfrwt beam="1">  1       21 0.11757729E+00 0.25786406E+03</pdfrwt>
<pdfrwt beam="2">  1       21 0.19616837E-01 0.25786406E+03</pdfrwt>
<totfact> 0.12769179E+04</totfact>
</mgrwt>
</event>
<event>
 5    0  0.1200001E+000  0.3975933E+03  0.7546771E-02  0.1044616E+00
         21   -1    0    0  502  501  0.00000000000E+00  0.00000000000E+00  0.17678470852E+03  0.17678470852E+03  0.00000000000E+00 0.  1.
         21   -1    0    0  504  502 -0.00000000000E+00 -0.00000000000E+00 -0.15554103833E+04  0.15554103833E+04  0.00000000000E+00 0. -1.
         25    1    1    2    0    0 -0.35594189333E+03  0.12554201781E+03 -0.12727248591E+04  0.13333825395E+04  0.12500000000E+03 0.  0.
         21    1    1    2  503  501  0.33771377571E+03 -0.13499254986E+03 -0.96815673615E+02  0.37636001047E+03  0.00000000000E+00 0.  1.
         21    1    1    2  504  503  0.18228117620E+02  0.94505320472E+01 -0.90851420198E+01  0.22452541804E+02  0.00000000000E+00 0. -1.
<mgrwt>
<rscale>  4 0.39759330E+03</rscale>
<asrwt>0</asrwt>
<pdfrwt beam="1">  1       21 0.27197648E-01 0.39759330E+03</pdfrwt>
<pdfrwt beam="2">  1       21 0.23929390E+00 0.39759330E+03</pdfrwt>
<totfact> 0.83703549E+02</totfact>
</mgrwt>
</event>
<event>
 5    0  0.1200001E+000  0.3461009E+03  0.7546771E-02  0.1064227E+00
         21   -1    0    0  503  501  0.00000000000E+00  0.00000000000E+00  0.61329681365E+03  0.61329681365E+03  0.00000000000E+00 0.  1.
         21   -1    0    0  501  502 -0.00000000000E+00 -0.00000000000E+00 -0.39052195068E+03  0.39052195068E+03  0.00000000000E+00 0.  1.
         25    1    1    2    0    0 -0.32376508240E+03 -0.51364859299E+01 -0.20383769067E+03  0.40252331139E+03  0.12500000000E+03 0.  0.
         21    1    1    2  503  504  0.59251275688E+01 -0.46700446125E+02  0.20508851894E+03  0.21042181304E+03  0.00000000000E+00 0.  1.
         21    1    1    2  504  502  0.31783995483E+03  0.51836932055E+02  0.22152403470E+03  0.39087363989E+03  0.00000000000E+00 0.  1.
<mgrwt>
<rscale>  4 0.34610094E+03</rscale>
<asrwt>0</asrwt>
<pdfrwt beam="1">  1       21 0.94353355E-01 0.34610094E+03</pdfrwt>
<pdfrwt beam="2">  1       21 0.60080301E-01 0.34610094E+03</pdfrwt>
<totfact> 0.21962254E+03</totfact>
</mgrwt>
</event>
<event>
 5    0  0.1200001E+000  0.2396068E+03  0.7546771E-02  0.1120055E+00
         21   -1    0    0  503  501  0.00000000000E+00  0.00000000000E+00  0.34642677993E+03  0.34642677993E+03  0.00000000000E+00 0. -1.
         21   -1    0    0  501  502 -0.00000000000E+00 -0.00000000000E+00 -0.19440424118E+03  0.19440424118E+03  0.00000000000E+00 0. -1.
         25    1    1    2    0    0  0.19785901484E+02  0.20345747801E+03 -0.51930995740E+02  0.24516985046E+03  0.12500000000E+03 0.  0.
         21    1    1    2  503  504  0.69617499177E+01 -0.32698517095E+02  0.67943451283E+02  0.75722992244E+02  0.00000000000E+00 0. -1.
         21    1    1    2  504  502 -0.26747651402E+02 -0.17075896092E+03  0.13601008320E+03  0.21993817841E+03  0.00000000000E+00 0. -1.
<mgrwt>
<rscale>  4 0.23960682E+03</rscale>
<asrwt>0</asrwt>
<pdfrwt beam="1">  1       21 0.53296428E-01 0.23960682E+03</pdfrwt>
<pdfrwt beam="2">  1       21 0.29908345E-01 0.23960682E+03</pdfrwt>
<totfact> 0.34911294E+04</totfact>
</mgrwt>
</event>
<event>
 5    0  0.1200001E+000  0.3410352E+03  0.7546771E-02  0.1066356E+00
         21   -1    0    0  503  501  0.00000000000E+00  0.00000000000E+00  0.10569045594E+03  0.10569045594E+03  0.00000000000E+00 0.  1.
         21   -1    0    0  504  502 -0.00000000000E+00 -0.00000000000E+00 -0.12662037213E+04  0.12662037213E+04  0.00000000000E+00 0.  1.
         25    1    1    2    0    0 -0.24861889507E+03  0.20590867932E+03 -0.46552804740E+03  0.58013024582E+03  0.12500000000E+03 0.  0.
         21    1    1    2  503  502  0.22427201431E+03 -0.22043868716E+03 -0.69562497362E+03  0.76340373009E+03  0.00000000000E+00 0.  1.
         21    1    1    2  504  501  0.24346880766E+02  0.14530007841E+02  0.63975568042E+00  0.28360201307E+02  0.00000000000E+00 0.  1.
<mgrwt>
<rscale>  4 0.34103517E+03</rscale>
<asrwt>0</asrwt>
<pdfrwt beam="1">  1       21 0.16260071E-01 0.34103517E+03</pdfrwt>
<pdfrwt beam="2">  1       21 0.19480056E+00 0.34103517E+03</pdfrwt>
<totfact> 0.44286737E+03</totfact>
</mgrwt>
</event>
<event>
 5    0  0.1200001E+000  0.2193285E+03  0.7546771E-02  0.1134385E+00
         21   -1    0    0  503  501  0.00000000000E+00  0.00000000000E+00  0.15828715221E+03  0.15828715221E+03  0.00000000000E+00 0. -1.
         21   -1    0    0  501  502 -0.00000000000E+00 -0.00000000000E+00 -0.86022527987E+03  0.86022527987E+03  0.00000000000E+00 0. -1.
         25    1    1    2    0    0 -0.13668208704E+03 -0.16450711827E+03 -0.65457018407E+03  0.69987978307E+03  0.12500000000E+03 0.  0.
         21    1    1    2  503  504  0.24455957741E+02  0.81790603829E+02  0.89202826946E+02  0.12347040568E+03  0.00000000000E+00 0. -1.
         21    1    1    2  504  502  0.11222612930E+03  0.82716514439E+02 -0.13657077053E+03  0.19516224333E+03  0.00000000000E+00 0. -1.
<mgrwt>
<rscale>  4 0.21932845E+03</rscale>
<asrwt>0</asrwt>
<pdfrwt beam="1">  1       21 0.24351869E-01 0.21932845E+03</pdfrwt>
<pdfrwt beam="2">  1       21 0.13234235E+00 0.21932845E+03</pdfrwt>
<totfact> 0.64472719E+03</totfact>
</mgrwt>
</event>
<event>
 5    0  0.1200001E+000  0.3170252E+03  0.7546771E-02  0.1077027E+00
         21   -1    0    0  503  501  0.00000000000E+00  0.00000000000E+00  0.26342033227E+03  0.26342033227E+03  0.00000000000E+00 0. -1.
         21   -1    0    0  504  502 -0.00000000000E+00 -0.00000000000E+00 -0.11583058886E+04  0.11583058886E+04  0.00000000000E+00 0. -1.
         25    1    1    2    0    0  0.13561284542E+03  0.25085371494E+03 -0.90663136384E+03  0.95860516379E+03  0.12500000000E+03 0.  0.
         21    1    1    2  503  502 -0.10949725529E+03 -0.32998309440E+03  0.78410510767E+02  0.35640805224E+03  0.00000000000E+00 0. -1.
         21    1    1    2  504  501 -0.26115590127E+02  0.79129379457E+02 -0.66664703234E+02  0.10671300482E+03  0.00000000000E+00 0.  1.
<mgrwt>
<rscale>  4 0.31702521E+03</rscale>
<asrwt>0</asrwt>
<pdfrwt beam="1">  1       21 0.40526204E-01 0.31702521E+03</pdfrwt>
<pdfrwt beam="2">  1       21 0.17820091E+00 0.31702521E+03</pdfrwt>
<totfact> 0.98863993E+02</totfact>
</mgrwt>
</event>
<event>
 5    0  0.1200001E+000  0.2394145E+03  0.7546771E-02  0.1120183E+00
         21   -1    0    0  503  501  0.00000000000E+00  0.00000000000E+00  0.70328231040E+03  0.70328231040E+03  0.00000000000E+00 0.  1.
         21   -1    0    0  504  502 -0.00000000000E+00 -0.00000000000E+00 -0.71077992580E+03  0.71077992580E+03  0.00000000000E+00 0. -1.
         25    1    1    2    0    0  0.16907042316E+03 -0.11659634426E+03 -0.67001401183E+03  0.71184499123E+03  0.12500000000E+03 0.  0.
         21    1    1    2  503  502 -0.16545610027E+03  0.63456850462E+02  0.54756812378E+03  0.57552875095E+03  0.00000000000E+00 0.  1.
         21    1    1    2  504  501 -0.36143228897E+01  0.53139493796E+02  0.11494827265E+03  0.12668849402E+03  0.00000000000E+00 0. -1.
<mgrwt>
<rscale>  4 0.23941453E+03</rscale>
<asrwt>0</asrwt>
<pdfrwt beam="1">  1       21 0.10819728E+00 0.23941453E+03</pdfrwt>
<pdfrwt beam="2">  1       21 0.10935076E+00 0.23941453E+03</pdfrwt>
<totfact> 0.42899469E+02</totfact>
</mgrwt>
</event>
<event>
 5    0  0.1200001E+000  0.2371580E+03  0.7546771E-02  0.1121701E+00
         21   -1    0    0  503  501  0.00000000000E+00  0.00000000000E+00  0.65285948422E+03  0.65285948422E+03  0.00000000000E+00 0.  1.
         21   -1    0    0  504  502 -0.00000000000E+00 -0.00000000000E+00 -0.33617516695E+03  0.33617516695E+03  0.00000000000E+00 0.  1.
         25    1    1    2    0    0 -0.58866288250E+02 -0.19525613662E+03 -0.26759099590E+03  0.35891522658E+03  0.12500000000E+03 0.  0.
         21    1    1    2  503  502  0.28096098832E+02  0.18066360951E+03  0.36518166369E+03  0.40839488007E+03  0.00000000000E+00 0.  1.
         21    1    1    2  504  501  0.30770189419E+02  0.14592527112E+02  0.21909364948E+03  0.22172454453E+03  0.00000000000E+00 0. -1.
<mgrwt>
<rscale>  4 0.23715798E+03</rscale>
<asrwt>0</asrwt>
<pdfrwt beam="1">  1       21 0.10043992E+00 0.23715798E+03</pdfrwt>
<pdfrwt beam="2">  1       21 0.51719257E-01 0.23715798E+03</pdfrwt>
<totfact> 0.27832255E+03</totfact>
</mgrwt>
</event>
<event>
 5    0  0.1200001E+000  0.2663092E+03  0.7546771E-02  0.1103411E+00
         21   -1    0    0  502  501  0.00000000000E+00  0.00000000000E+00  0.80563174570E+02  0.80563174570E+02  0.00000000000E+00 0. -1.
         21   -1    0    0  503  502 -0.00000000000E+00 -0.00000000000E+00 -0.94995237889E+03  0.94995237889E+03  0.00000000000E+00 0. -1.
         25    1    1    2    0    0  0.14234827080E+03  0.17162646635E+03 -0.52172700886E+03  0.58098429060E+03  0.12500000000E+03 0.  0.
         21    1    1    2  503  504  0.17266526420E+02  0.25816185052E+02 -0.39723621934E+02  0.50423947533E+02  0.00000000000E+00 0. -1.
         21    1    1    2  504  501 -0.15961479722E+03 -0.19744265140E+03 -0.30793857352E+03  0.39910731532E+03  0.00000000000E+00 0. -1.
<mgrwt>
<rscale>  4 0.26630924E+03</rscale>
<asrwt>0</asrwt>
<pdfrwt beam="1">  1       21 0.12394335E-01 0.26630924E+03</pdfrwt>
<pdfrwt beam="2">  1       21 0.14614652E+00 0.26630924E+03</pdfrwt>
<totfact> 0.16953102E+04</totfact>
</mgrwt>
</event>
<event>
 5    0  0.1200001E+000  0.2467042E+03  0.7546771E-02  0.1115406E+00
         21   -1    0    0  503  501  0.00000000000E+00  0.00000000000E+00  0.84015149610E+03  0.84015149610E+03  0.00000000000E+00 0. -1.
         21   -1    0    0  504  502 -0.00000000000E+00 -0.00000000000E+00 -0.16345668282E+03  0.16345668282E+03  0.00000000000E+00 0.  1.
         25    1    1    2    0    0  0.53669023994E+02 -0.21982126095E+03  0.15414175363E+03  0.30097579822E+03  0.12500000000E+03 0.  0.
         21    1    1    2  503  502 -0.54491173669E+02  0.19834204968E+03  0.27971963694E+02  0.20758441038E+03  0.00000000000E+00 0.  1.
         21    1    1    2  504  501  0.82214967520E+00  0.21479211269E+02  0.49458109595E+03  0.49504797032E+03  0.00000000000E+00 0. -1.
<mgrwt>
<rscale>  4 0.24670421E+03</rscale>
<asrwt>0</asrwt>
<pdfrwt beam="1">  1       21 0.12925407E+00 0.24670421E+03</pdfrwt>
<pdfrwt beam="2">  1       21 0.25147182E-01 0.24670421E+03</pdfrwt>
<totfact> 0.63197690E+03</totfact>
</mgrwt>
</event>
<event>
 5    0  0.1200001E+000  0.2450919E+03  0.7546771E-02  0.1116446E+00
         21   -1    0    0  502  501  0.00000000000E+00  0.00000000000E+00  0.46547990450E+03  0.46547990450E+03  0.00000000000E+00 0. -1.
         21   -1    0    0  504  502 -0.00000000000E+00 -0.00000000000E+00 -0.27252148227E+03  0.27252148227E+03  0.00000000000E+00 0. -1.
         25    1    1    2    0    0 -0.20875358507E+03  0.10962686390E+02 -0.15258449320E+03  0.28741132082E+03  0.12500000000E+03 0.  0.
         21    1    1    2  503  501  0.21320935257E+03 -0.70748095320E+02  0.23670103065E+03  0.32632943313E+03  0.00000000000E+00 0. -1.
         21    1    1    2  504  503 -0.44557675010E+01  0.59785408930E+02  0.10884188478E+03  0.12426063281E+03  0.00000000000E+00 0. -1.
<mgrwt>
<rscale>  4 0.24509195E+03</rscale>
<asrwt>0</asrwt>
<pdfrwt beam="1">  1       21 0.71612293E-01 0.24509195E+03</pdfrwt>
<pdfrwt beam="2">  1       21 0.41926382E-01 0.24509195E+03</pdfrwt>
<totfact> 0.93299338E+03</totfact>
</mgrwt>
</event>
<event>
 5    0  0.1200001E+000  0.2503130E+03  0.7546771E-02  0.1113107E+00
         21   -1    0    0  503  501  0.00000000000E+00  0.00000000000E+00  0.34734099239E+03  0.34734099239E+03  0.00000000000E+00 0.  1.
         21   -1    0    0  501  502 -0.00000000000E+00 -0.00000000000E+00 -0.31341097859E+03  0.31341097859E+03  0.00000000000E+00 0.  1.
         25    1    1    2    0    0  0.13459790098E+03  0.19467055091E+03 -0.14014399173E+03  0.30212341312E+03  0.12500000000E+03 0.  0.
         21    1    1    2  503  504 -0.10490370859E+03  0.69208590799E-01  0.10872237626E+03  0.15108060089E+03  0.00000000000E+00 0.  1.
         21    1    1    2  504  502 -0.29694192396E+02 -0.19473975950E+03  0.65351629263E+02  0.20754795696E+03  0.00000000000E+00 0.  1.
<mgrwt>
<rscale>  4 0.25031295E+03</rscale>
<asrwt>0</asrwt>
<pdfrwt beam="1">  1       21 0.53437076E-01 0.25031295E+03</pdfrwt>
<pdfrwt beam="2">  1       21 0.48217074E-01 0.25031295E+03</pdfrwt>
<totfact> 0.13165307E+04</totfact>
</mgrwt>
</event>
<event>
 5    0  0.1200001E+000  0.3061656E+03  0.7546771E-02  0.1082198E+00
         21   -1    0    0  502  501  0.00000000000E+00  0.00000000000E+00  0.41944091574E+03  0.41944091574E+03  0.00000000000E+00 0. -1.
         21   -1    0    0  503  502 -0.00000000000E+00 -0.00000000000E+00 -0.93254420596E+03  0.93254420596E+03  0.00000000000E+00 0.  1.
         25    1    1    2    0    0  0.27036990774E+03 -0.56446670464E+02 -0.81560127626E+03  0.87012444826E+03  0.12500000000E+03 0.  0.
         21    1    1    2  503  504  0.45142819410E+02 -0.12543638665E+02  0.14257527016E+02  0.48974422833E+02  0.00000000000E+00 0. -1.
         21    1    1    2  504  501 -0.31551272715E+03  0.68990309129E+02  0.28824045903E+03  0.43288625061E+03  0.00000000000E+00 0. -1.
<mgrwt>
<rscale>  4 0.30616565E+03</rscale>
<asrwt>0</asrwt>
<pdfrwt beam="1">  1       21 0.64529372E-01 0.30616565E+03</pdfrwt>
<pdfrwt beam="2">  1       21 0.14346834E+00 0.30616565E+03</pdfrwt>
<totfact> 0.67418775E+02</totfact>
</mgrwt>
</event>
<event>
 5    0  0.1200001E+000  0.2619941E+03  0.7546771E-02  0.1105951E+00
         21   -1    0    0  502  501  0.00000000000E+00  0.00000000000E+00  0.17646462336E+03  0.17646462336E+03  0.00000000000E+00 0.  1.
         21   -1    0    0  504  502 -0.00000000000E+00 -0.00000000000E+00 -0.63372316981E+03  0.63372316981E+03  0.00000000000E+00 0.  1.
         25    1    1    2    0    0  0.93562983600E+02 -0.21920396832E+03 -0.31791899957E+03  0.41653559501E+03  0.12500000000E+03 0.  0.
         21    1    1    2  503  501  0.14089520519E+01  0.23247835813E+03 -0.10074424287E+02  0.23270080827E+03  0.00000000000E+00 0.  1.
         21    1    1    2  504  503 -0.94971935652E+02 -0.13274389818E+02 -0.12926512260E+03  0.16095138989E+03  0.00000000000E+00 0.  1.
<mgrwt>
<rscale>  4 0.26199411E+03</rscale>
<asrwt>0</asrwt>
<pdfrwt beam="1">  1       21 0.27148403E-01 0.26199411E+03</pdfrwt>
<pdfrwt beam="2">  1       21 0.97495873E-01 0.26199411E+03</pdfrwt>
<totfact> 0.10803630E+04</totfact>
</mgrwt>
</event>
<event>
 5    0  0.1200001E+000  0.2859366E+03  0.7546771E-02  0.1092490E+00
         21   -1    0    0  503  501  0.00000000000E+00  0.00000000000E+00  0.41942383963E+03  0.41942383963E+03  0.00000000000E+00 0. -1.
         21   -1    0    0  504  502 -0.00000000000E+00 -0.00000000000E+00 -0.10125554379E+04  0.10125554379E+04  0.00000000000E+00 0. -1.
         25    1    1    2    0    0  0.26638893260E+03  0.65212613528E+02 -0.28679217142E+03  0.41604146183E+03  0.12500000000E+03 0.  0.
         21    1    1    2  503  502 -0.23667098050E+03 -0.84259368279E+02 -0.63629808083E+03  0.68409651499E+03  0.00000000000E+00 0. -1.
         21    1    1    2  504  501 -0.29717952107E+02  0.19046754752E+02  0.32995865396E+03  0.33184130072E+03  0.00000000000E+00 0. -1.
<mgrwt>
<rscale>  4 0.28593658E+03</rscale>
<asrwt>0</asrwt>
<pdfrwt beam="1">  1       21 0.64526745E-01 0.28593658E+03</pdfrwt>
<pdfrwt beam="2">  1       21 0.15577776E+00 0.28593658E+03</pdfrwt>
<totfact> 0.54891062E+02</totfact>
</mgrwt>
</event>
<event>
 5    0  0.1200001E+000  0.4222743E+03  0.7546771E-02  0.1036329E+00
         21   -1    0    0  503  501  0.00000000000E+00  0.00000000000E+00  0.44416132754E+03  0.44416132754E+03  0.00000000000E+00 0.  1.
         21   -1    0    0  501  502 -0.00000000000E+00 -0.00000000000E+00 -0.54280866429E+03  0.54280866429E+03  0.00000000000E+00 0.  1.
         25    1    1    2    0    0  0.38402242030E+03 -0.18851994004E+03 -0.97320846796E+02  0.45619001996E+03  0.12500000000E+03 0.  0.
         21    1    1    2  503  504 -0.33391427378E+02  0.31345036877E+02  0.11950633361E+03  0.12798149292E+03  0.00000000000E+00 0. -1.
         21    1    1    2  504  502 -0.35063099293E+03  0.15717490316E+03 -0.12083282356E+03  0.40279847894E+03  0.00000000000E+00 0.  1.
<mgrwt>
<rscale>  4 0.42227430E+03</rscale>
<asrwt>0</asrwt>
<pdfrwt beam="1">  1       21 0.68332512E-01 0.42227430E+03</pdfrwt>
<pdfrwt beam="2">  1       21 0.83509026E-01 0.42227430E+03</pdfrwt>
<totfact> 0.21295306E+03</totfact>
</mgrwt>
</event>
<event>
 5    0  0.1200001E+000  0.3625527E+03  0.7546771E-02  0.1057578E+00
         21   -1    0    0  503  501  0.00000000000E+00  0.00000000000E+00  0.92437776069E+03  0.92437776069E+03  0.00000000000E+00 0. -1.
         21   -1    0    0  504  502 -0.00000000000E+00 -0.00000000000E+00 -0.62007837536E+03  0.62007837536E+03  0.00000000000E+00 0.  1.
         25    1    1    2    0    0 -0.22188162676E+03 -0.24701667477E+03 -0.47165974035E+03  0.59020047829E+03  0.12500000000E+03 0.  0.
         21    1    1    2  503  502  0.33612665395E+03  0.27093188713E+03  0.54317296927E+03  0.69384586870E+03  0.00000000000E+00 0. -1.
         21    1    1    2  504  501 -0.11424502719E+03 -0.23915212361E+02  0.23278615642E+03  0.26040978906E+03  0.00000000000E+00 0.  1.
<mgrwt>
<rscale>  4 0.36255272E+03</rscale>
<asrwt>0</asrwt>
<pdfrwt beam="1">  1       21 0.14221196E+00 0.36255272E+03</pdfrwt>
<pdfrwt beam="2">  1       21 0.95396673E-01 0.36255272E+03</pdfrwt>
<totfact> 0.27202291E+02</totfact>
</mgrwt>
</event>
<event>
 5    0  0.1200001E+000  0.2859557E+03  0.7546771E-02  0.1092480E+00
         21   -1    0    0  503  501  0.00000000000E+00  0.00000000000E+00  0.39888299496E+03  0.39888299496E+03  0.00000000000E+00 0. -1.
         21   -1    0    0  504  502 -0.00000000000E+00 -0.00000000000E+00 -0.34991415081E+03  0.34991415081E+03  0.00000000000E+00 0. -1.
         25    1    1    2    0    0 -0.20836363698E+03  0.98803914613E+02  0.21035873387E+03  0.33623416792E+03  0.12500000000E+03 0.  0.
         21    1    1    2  503  502  0.23621848917E+03 -0.11596040737E+03 -0.22161000588E+03  0.34403050070E+03  0.00000000000E+00 0. -1.
         21    1    1    2  504  501 -0.27854852190E+02  0.17156492752E+02  0.60220116161E+02  0.68532477151E+02  0.00000000000E+00 0. -1.
<mgrwt>
<rscale>  4 0.28595575E+03</rscale>
<asrwt>0</asrwt>
<pdfrwt beam="1">  1       21 0.61366615E-01 0.28595575E+03</pdfrwt>
<pdfrwt beam="2">  1       21 0.53832946E-01 0.28595575E+03</pdfrwt>
<totfact> 0.76137093E+03</totfact>
</mgrwt>
</event>
<event>
 5    0  0.1200001E+000  0.3468556E+03  0.7546771E-02  0.1063913E+00
         21   -1    0    0  503  501  0.00000000000E+00  0.00000000000E+00  0.59606246045E+03  0.59606246045E+03  0.00000000000E+00 0.  1.
         21   -1    0    0  501  502 -0.00000000000E+00 -0.00000000000E+00 -0.36397966015E+03  0.36397966015E+03  0.00000000000E+00 0.  1.
         25    1    1    2    0    0  0.12009013364E+03  0.34017854472E+03  0.14936541671E+03  0.40997330424E+03  0.12500000000E+03 0.  0.
         21    1    1    2  503  504 -0.59481037664E+02 -0.35698269424E+02  0.20498538605E+03  0.21640556549E+03  0.00000000000E+00 0.  1.
         21    1    1    2  504  502 -0.60609095977E+02 -0.30448027529E+03 -0.12226800246E+03  0.33366325087E+03  0.00000000000E+00 0.  1.
<mgrwt>
<rscale>  4 0.34685559E+03</rscale>
<asrwt>0</asrwt>
<pdfrwt beam="1">  1       21 0.91701917E-01 0.34685559E+03</pdfrwt>
<pdfrwt beam="2">  1       21 0.55996871E-01 0.34685559E+03</pdfrwt>
<totfact> 0.27356379E+03</totfact>
</mgrwt>
</event>
<event>
 5    0  0.1882591E+000  0.2233821E+03  0.7546771E-02  0.1131386E+00
         21   -1    0    0  503  501  0.00000000000E+00  0.00000000000E+00  0.86443530819E+03  0.86443530819E+03  0.00000000000E+00 0. -1.
         21   -1    0    0  504  502 -0.00000000000E+00 -0.00000000000E+00 -0.60642747945E+03  0.60642747945E+03  0.00000000000E+00 0.  1.
         25    1    1    2    0    0  0.25513980392E+03 -0.17210858938E+03 -0.30684726328E+03  0.45221447242E+03  0.12500000000E+03 0.  0.
         21    1    1    2  503  502 -0.14618996029E+03  0.26188284538E+02 -0.19055623298E+03  0.24159678943E+03  0.00000000000E+00 0.  1.
         21    1    1    2  504  501 -0.10894984363E+03  0.14592030484E+03  0.75541132500E+03  0.77705152579E+03  0.00000000000E+00 0. -1.
<mgrwt>
<rscale>  4 0.22338214E+03</rscale>
<asrwt>0</asrwt>
<pdfrwt beam="1">  1       21 0.13299005E+00 0.22338214E+03</pdfrwt>
<pdfrwt beam="2">  1       21 0.93296535E-01 0.22338214E+03</pdfrwt>
<totfact> 0.38123537E+02</totfact>
</mgrwt>
</event>
<event>
 5    0  0.1200001E+000  0.2797360E+03  0.7546771E-02  0.1095833E+00
         21   -1    0    0  503  501  0.00000000000E+00  0.00000000000E+00  0.29255699545E+03  0.29255699545E+03  0.00000000000E+00 0. -1.
         21   -1    0    0  504  502 -0.00000000000E+00 -0.00000000000E+00 -0.44448549745E+03  0.44448549745E+03  0.00000000000E+00 0.  1.
         25    1    1    2    0    0 -0.25100522150E+03 -0.81896389991E+02  0.82203334716E+01  0.29223828256E+03  0.12500000000E+03 0.  0.
         21    1    1    2  503  502  0.19852803755E+03  0.15037279840E+03 -0.22597380370E+03  0.33628785311E+03  0.00000000000E+00 0.  1.
         21    1    1    2  504  501  0.52477183943E+02 -0.68476408410E+02  0.65824968222E+02  0.10851635722E+03  0.00000000000E+00 0. -1.
<mgrwt>
<rscale>  4 0.27973602E+03</rscale>
<asrwt>0</asrwt>
<pdfrwt beam="1">  1       21 0.45008769E-01 0.27973602E+03</pdfrwt>
<pdfrwt beam="2">  1       21 0.68382384E-01 0.27973602E+03</pdfrwt>
<totfact> 0.87692562E+03</totfact>
</mgrwt>
</event>
<event>
 5    0  0.1200001E+000  0.3391860E+03  0.7546771E-02  0.1067143E+00
         21   -1    0    0  503  501  0.00000000000E+00  0.00000000000E+00  0.16416673068E+03  0.16416673068E+03  0.00000000000E+00 0.  1.
         21   -1    0    0  501  502 -0.00000000000E+00 -0.00000000000E+00 -0.10155455549E+04  0.10155455549E+04  0.00000000000E+00 0.  1.
         25    1    1    2    0    0  0.24930958292E+03 -0.19304636779E+03 -0.78125378090E+03  0.85170689702E+03  0.12500000000E+03 0.  0.
         21    1    1    2  503  504 -0.23616632282E+02  0.19151040634E+02  0.10050855175E+02  0.32023856224E+02  0.00000000000E+00 0. -1.
         21    1    1    2  504  502 -0.22569295064E+03  0.17389532715E+03 -0.80175898478E+02  0.29598153232E+03  0.00000000000E+00 0.  1.
<mgrwt>
<rscale>  4 0.33918604E+03</rscale>
<asrwt>0</asrwt>
<pdfrwt beam="1">  1       21 0.25256420E-01 0.33918604E+03</pdfrwt>
<pdfrwt beam="2">  1       21 0.15623778E+00 0.33918604E+03</pdfrwt>
<totfact> 0.36122777E+03</totfact>
</mgrwt>
</event>
<event>
 5    0  0.1200001E+000  0.2713162E+03  0.7546771E-02  0.1100529E+00
         21   -1    0    0  502  501  0.00000000000E+00  0.00000000000E+00  0.73886013296E+03  0.73886013296E+03  0.00000000000E+00 0. -1.
         21   -1    0    0  504  502 -0.00000000000E+00 -0.00000000000E+00 -0.42863667386E+03  0.42863667386E+03  0.00000000000E+00 0. -1.
         25    1    1    2    0    0  0.42917858203E+02  0.23695054873E+03 -0.36192915522E+03  0.45233308357E+03  0.12500000000E+03 0.  0.
         21    1    1    2  503  501 -0.27888272243E+02 -0.21325604644E+03  0.56993420312E+03  0.60916409362E+03  0.00000000000E+00 0. -1.
         21    1    1    2  504  503 -0.15029585960E+02 -0.23694502290E+02  0.10221841119E+03  0.10599962962E+03  0.00000000000E+00 0. -1.
<mgrwt>
<rscale>  4 0.27131625E+03</rscale>
<asrwt>0</asrwt>
<pdfrwt beam="1">  1       21 0.11367079E+00 0.27131625E+03</pdfrwt>
<pdfrwt beam="2">  1       21 0.65944104E-01 0.27131625E+03</pdfrwt>
<totfact> 0.11920398E+03</totfact>
</mgrwt>
</event>
<event>
 5    0  0.1200001E+000  0.2522732E+03  0.7546771E-02  0.1111877E+00
         21   -1    0    0  502  501  0.00000000000E+00  0.00000000000E+00  0.24281034530E+03  0.24281034530E+03  0.00000000000E+00 0.  1.
         21   -1    0    0  504  502 -0.00000000000E+00 -0.00000000000E+00 -0.35965441158E+03  0.35965441158E+03  0.00000000000E+00 0.  1.
         25    1    1    2    0    0  0.10905238999E+03  0.19867874570E+03 -0.17469748851E+03  0.31226572058E+03  0.12500000000E+03 0.  0.
         21    1    1    2  503  501 -0.15585147771E+03 -0.14447417217E+03  0.37994075657E+02  0.21588427296E+03  0.00000000000E+00 0.  1.
         21    1    1    2  504  503  0.46799087712E+02 -0.54204573531E+02  0.19859346578E+02  0.74314763331E+02  0.00000000000E+00 0.  1.
<mgrwt>
<rscale>  4 0.25227318E+03</rscale>
<asrwt>0</asrwt>
<pdfrwt beam="1">  1       21 0.37355438E-01 0.25227318E+03</pdfrwt>
<pdfrwt beam="2">  1       21 0.55331448E-01 0.25227318E+03</pdfrwt>
<totfact> 0.20612008E+04</totfact>
</mgrwt>
</event>
<event>
 5    0  0.1200001E+000  0.3518503E+03  0.7546771E-02  0.1061858E+00
         21   -1    0    0  503  501  0.00000000000E+00  0.00000000000E+00  0.27784353784E+04  0.27784353784E+04  0.00000000000E+00 0.  1.
         21   -1    0    0  501  502 -0.00000000000E+00 -0.00000000000E+00 -0.45009431783E+03  0.45009431783E+03  0.00000000000E+00 0. -1.
         25    1    1    2    0    0  0.34460828963E+03 -0.13855835529E+03 -0.23655276907E+03  0.45775048187E+03  0.12500000000E+03 0.  0.
         21    1    1    2  503  504 -0.98828555305E+02  0.43856182055E+02  0.24962464063E+04  0.24985869144E+04  0.00000000000E+00 0.  1.
         21    1    1    2  504  502 -0.24577973433E+03  0.94702173234E+02  0.68647423379E+02  0.27219229996E+03  0.00000000000E+00 0. -1.
<mgrwt>
<rscale>  4 0.35185030E+03</rscale>
<asrwt>0</asrwt>
<pdfrwt beam="1">  1       21 0.42745159E+00 0.35185030E+03</pdfrwt>
<pdfrwt beam="2">  1       21 0.69245281E-01 0.35185030E+03</pdfrwt>
<totfact> 0.86915641E+00</totfact>
</mgrwt>
</event>
<event>
 5    0  0.1200001E+000  0.3558364E+03  0.7546771E-02  0.1060245E+00
         21   -1    0    0  503  501  0.00000000000E+00  0.00000000000E+00  0.27076029557E+03  0.27076029557E+03  0.00000000000E+00 0.  1.
         21   -1    0    0  501  502 -0.00000000000E+00 -0.00000000000E+00 -0.11725380640E+04  0.11725380640E+04  0.00000000000E+00 0.  1.
         25    1    1    2    0    0 -0.19546817266E+03  0.26503131922E+03 -0.96465916260E+03  0.10269574999E+04  0.12500000000E+03 0.  0.
         21    1    1    2  503  504 -0.31983284112E+02  0.16416486304E+02 -0.25207637439E+02  0.43907362372E+02  0.00000000000E+00 0.  1.
         21    1    1    2  504  502  0.22745145677E+03 -0.28144780553E+03  0.88089031575E+02  0.37243349729E+03  0.00000000000E+00 0.  1.
<mgrwt>
<rscale>  4 0.35583638E+03</rscale>
<asrwt>0</asrwt>
<pdfrwt beam="1">  1       21 0.41655430E-01 0.35583638E+03</pdfrwt>
<pdfrwt beam="2">  1       21 0.18039047E+00 0.35583638E+03</pdfrwt>
<totfact> 0.88057813E+02</totfact>
</mgrwt>
</event>
<event>
 5    0  0.1200001E+000  0.2266669E+03  0.7546771E-02  0.1129008E+00
         21   -1    0    0  503  501  0.00000000000E+00  0.00000000000E+00  0.10356438826E+03  0.10356438826E+03  0.00000000000E+00 0. -1.
         21   -1    0    0  501  502 -0.00000000000E+00 -0.00000000000E+00 -0.11426726310E+04  0.11426726310E+04  0.00000000000E+00 0. -1.
         25    1    1    2    0    0 -0.35103291078E+02  0.21172167551E+03 -0.75564561656E+03  0.79541411023E+03  0.12500000000E+03 0.  0.
         21    1    1    2  503  504  0.87752444648E+02 -0.16492851472E+03 -0.31823923932E+02  0.18951165833E+03  0.00000000000E+00 0. -1.
         21    1    1    2  504  502 -0.52649153571E+02 -0.46793160790E+02 -0.25163870226E+03  0.26131125070E+03  0.00000000000E+00 0. -1.
<mgrwt>
<rscale>  4 0.22666692E+03</rscale>
<asrwt>0</asrwt>
<pdfrwt beam="1">  1       21 0.15932984E-01 0.22666692E+03</pdfrwt>
<pdfrwt beam="2">  1       21 0.17579577E+00 0.22666692E+03</pdfrwt>
<totfact> 0.66479825E+03</totfact>
</mgrwt>
</event>
<event>
 5    0  0.1200001E+000  0.2952864E+03  0.7546771E-02  0.1087621E+00
         21   -1    0    0  502  501  0.00000000000E+00  0.00000000000E+00  0.30237075269E+03  0.30237075269E+03  0.00000000000E+00 0. -1.
         21   -1    0    0  503  502 -0.00000000000E+00 -0.00000000000E+00 -0.50950044123E+03  0.50950044123E+03  0.00000000000E+00 0.  1.
         25    1    1    2    0    0  0.20655022731E+03 -0.16301431695E+03 -0.34612696986E+03  0.45239976039E+03  0.12500000000E+03 0.  0.
         21    1    1    2  503  504  0.40230259448E+02  0.16879753425E+02  0.28537407845E+02  0.52132365163E+02  0.00000000000E+00 0. -1.
         21    1    1    2  504  501 -0.24678048676E+03  0.14613456353E+03  0.11045987348E+03  0.30733906838E+03  0.00000000000E+00 0. -1.
<mgrwt>
<rscale>  4 0.29528637E+03</rscale>
<asrwt>0</asrwt>
<pdfrwt beam="1">  1       21 0.46518578E-01 0.29528637E+03</pdfrwt>
<pdfrwt beam="2">  1       21 0.78384683E-01 0.29528637E+03</pdfrwt>
<totfact> 0.59790500E+03</totfact>
</mgrwt>
</event>
<event>
 5    0  0.1200001E+000  0.2279528E+03  0.7546771E-02  0.1128089E+00
         21   -1    0    0  503  501  0.00000000000E+00  0.00000000000E+00  0.95684705636E+03  0.95684705636E+03  0.00000000000E+00 0.  1.
         21   -1    0    0  504  502 -0.00000000000E+00 -0.00000000000E+00 -0.92882225253E+02  0.92882225253E+02  0.00000000000E+00 0.  1.
         25    1    1    2    0    0 -0.16004889874E+03  0.13214721199E+03  0.30500584589E+03  0.38952804989E+03  0.12500000000E+03 0.  0.
         21    1    1    2  503  502  0.14464751741E+03 -0.11140367210E+03  0.11561051693E+03  0.21610061100E+03  0.00000000000E+00 0.  1.
         21    1    1    2  504  501  0.15401381327E+02 -0.20743539896E+02  0.44334846828E+03  0.44410062071E+03  0.00000000000E+00 0.  1.
<mgrwt>
<rscale>  4 0.22795279E+03</rscale>
<asrwt>0</asrwt>
<pdfrwt beam="1">  1       21 0.14720723E+00 0.22795279E+03</pdfrwt>
<pdfrwt beam="2">  1       21 0.14289574E-01 0.22795279E+03</pdfrwt>
<totfact> 0.13132347E+04</totfact>
</mgrwt>
</event>
<event>
 5    0  0.1200001E+000  0.3566195E+03  0.7546771E-02  0.1059930E+00
         21   -1    0    0  503  501  0.00000000000E+00  0.00000000000E+00  0.12028963167E+04  0.12028963167E+04  0.00000000000E+00 0.  1.
         21   -1    0    0  501  502 -0.00000000000E+00 -0.00000000000E+00 -0.14815656206E+03  0.14815656206E+03  0.00000000000E+00 0.  1.
         25    1    1    2    0    0 -0.22802019579E+03 -0.21563210442E+03  0.49600188482E+03  0.60011105963E+03  0.12500000000E+03 0.  0.
         21    1    1    2  503  504 -0.18146760051E+02 -0.26851926100E+02  0.34096917344E+03  0.34250592414E+03  0.00000000000E+00 0.  1.
         21    1    1    2  504  502  0.24616695584E+03  0.24248403052E+03  0.21776869641E+03  0.40843589502E+03  0.00000000000E+00 0.  1.
<mgrwt>
<rscale>  4 0.35661953E+03</rscale>
<asrwt>0</asrwt>
<pdfrwt beam="1">  1       21 0.18506097E+00 0.35661953E+03</pdfrwt>
<pdfrwt beam="2">  1       21 0.22793318E-01 0.35661953E+03</pdfrwt>
<totfact> 0.27040890E+03</totfact>
</mgrwt>
</event>
<event>
 5    0  0.1200001E+000  0.2465408E+03  0.7546771E-02  0.1115511E+00
         21   -1    0    0  503  501  0.00000000000E+00  0.00000000000E+00  0.78227005886E+02  0.78227005886E+02  0.00000000000E+00 0. -1.
         21   -1    0    0  501  502 -0.00000000000E+00 -0.00000000000E+00 -0.84580724154E+03  0.84580724154E+03  0.00000000000E+00 0. -1.
         25    1    1    2    0    0  0.19229085744E+03  0.80703286265E+02 -0.26493008540E+03  0.35958551753E+03  0.12500000000E+03 0.  0.
         21    1    1    2  503  504 -0.20808234571E+03 -0.65191110444E+02 -0.36612294493E+03  0.42613865616E+03  0.00000000000E+00 0. -1.
         21    1    1    2  504  502  0.15791488271E+02 -0.15512175821E+02 -0.13652720533E+03  0.13831007373E+03  0.00000000000E+00 0.  1.
<mgrwt>
<rscale>  4 0.24654082E+03</rscale>
<asrwt>0</asrwt>
<pdfrwt beam="1">  1       21 0.12034924E-01 0.24654082E+03</pdfrwt>
<pdfrwt beam="2">  1       21 0.13012419E+00 0.24654082E+03</pdfrwt>
<totfact> 0.24408530E+04</totfact>
</mgrwt>
</event>
<event>
 5    0  0.1200001E+000  0.4126665E+03  0.7546771E-02  0.1039480E+00
         21   -1    0    0  503  501  0.00000000000E+00  0.00000000000E+00  0.29882616206E+03  0.29882616206E+03  0.00000000000E+00 0.  1.
         21   -1    0    0  504  502 -0.00000000000E+00 -0.00000000000E+00 -0.64498263042E+03  0.64498263042E+03  0.00000000000E+00 0.  1.
         25    1    1    2    0    0 -0.14742085885E+03 -0.37944618541E+03 -0.15855574022E+03  0.45439766725E+03  0.12500000000E+03 0.  0.
         21    1    1    2  503  502  0.19514122547E+03  0.32949515049E+03 -0.15869318301E+03  0.41452464150E+03  0.00000000000E+00 0.  1.
         21    1    1    2  504  501 -0.47720366620E+02  0.49951034920E+02 -0.28907545123E+02  0.74886483727E+02  0.00000000000E+00 0. -1.
<mgrwt>
<rscale>  4 0.41266652E+03</rscale>
<asrwt>0</asrwt>
<pdfrwt beam="1">  1       21 0.45973256E-01 0.41266652E+03</pdfrwt>
<pdfrwt beam="2">  1       21 0.99228097E-01 0.41266652E+03</pdfrwt>
<totfact> 0.33488998E+03</totfact>
</mgrwt>
</event>
<event>
 5    0  0.1200001E+000  0.4002010E+03  0.7546771E-02  0.1043710E+00
         21   -1    0    0  502  501  0.00000000000E+00  0.00000000000E+00  0.10316209564E+04  0.10316209564E+04  0.00000000000E+00 0. -1.
         21   -1    0    0  504  502 -0.00000000000E+00 -0.00000000000E+00 -0.15507182006E+03  0.15507182006E+03  0.00000000000E+00 0. -1.
         25    1    1    2    0    0  0.21379555178E+03  0.31436811661E+03  0.54216874162E+03  0.67387520735E+03  0.12500000000E+03 0.  0.
         21    1    1    2  503  501 -0.17237251204E+03 -0.26781737264E+03  0.23615380152E+03  0.39649343749E+03  0.00000000000E+00 0. -1.
         21    1    1    2  504  503 -0.41423039739E+02 -0.46550743966E+02  0.98226593172E+02  0.11632413159E+03  0.00000000000E+00 0.  1.
<mgrwt>
<rscale>  4 0.40020101E+03</rscale>
<asrwt>0</asrwt>
<pdfrwt beam="1">  1       21 0.15871091E+00 0.40020101E+03</pdfrwt>
<pdfrwt beam="2">  1       21 0.23857204E-01 0.40020101E+03</pdfrwt>
<totfact> 0.37556459E+03</totfact>
</mgrwt>
</event>
<event>
 5    0  0.1200001E+000  0.2831081E+03  0.7546771E-02  0.1094003E+00
         21   -1    0    0  503  501  0.00000000000E+00  0.00000000000E+00  0.89785687539E+03  0.89785687539E+03  0.00000000000E+00 0. -1.
         21   -1    0    0  501  502 -0.00000000000E+00 -0.00000000000E+00 -0.12469711161E+03  0.12469711161E+03  0.00000000000E+00 0. -1.
         25    1    1    2    0    0 -0.13710369893E+03 -0.22997363576E+03  0.33814653899E+03  0.44905832498E+03  0.12500000000E+03 0.  0.
         21    1    1    2  503  504 -0.15327758995E+02  0.35674102894E+02  0.27833628806E+03  0.28103144141E+03  0.00000000000E+00 0. -1.
         21    1    1    2  504  502  0.15243145792E+03  0.19429953286E+03  0.15667693673E+03  0.29246422061E+03  0.00000000000E+00 0. -1.
<mgrwt>
<rscale>  4 0.28310809E+03</rscale>
<asrwt>0</asrwt>
<pdfrwt beam="1">  1       21 0.13813182E+00 0.28310809E+03</pdfrwt>
<pdfrwt beam="2">  1       21 0.19184172E-01 0.28310809E+03</pdfrwt>
<totfact> 0.87222209E+03</totfact>
</mgrwt>
</event>
<event>
 5    0  0.1200001E+000  0.2545460E+03  0.7546771E-02  0.1110465E+00
         21   -1    0    0  503  501  0.00000000000E+00  0.00000000000E+00  0.89144579777E+02  0.89144579777E+02  0.00000000000E+00 0.  1.
         21   -1    0    0  504  502 -0.00000000000E+00 -0.00000000000E+00 -0.12219167641E+04  0.12219167641E+04  0.00000000000E+00 0.  1.
         25    1    1    2    0    0  0.13427623979E+03 -0.15762917067E+03 -0.80683307008E+03  0.84230734711E+03  0.12500000000E+03 0.  0.
         21    1    1    2  503  502 -0.17055564547E+03  0.19511802586E+03 -0.32616306817E+03  0.41658446833E+03  0.00000000000E+00 0.  1.
         21    1    1    2  504  501  0.36279405682E+02 -0.37488855194E+02  0.22395393934E+00  0.52169528422E+02  0.00000000000E+00 0.  1.
<mgrwt>
<rscale>  4 0.25454602E+03</rscale>
<asrwt>0</asrwt>
<pdfrwt beam="1">  1       21 0.13714551E-01 0.25454602E+03</pdfrwt>
<pdfrwt beam="2">  1       21 0.18798719E+00 0.25454602E+03</pdfrwt>
<totfact> 0.70791308E+03</totfact>
</mgrwt>
</event>
<event>
 5    0  0.1200001E+000  0.2618843E+03  0.7546771E-02  0.1106016E+00
         21   -1    0    0  503  501  0.00000000000E+00  0.00000000000E+00  0.15087664546E+03  0.15087664546E+03  0.00000000000E+00 0. -1.
         21   -1    0    0  504  502 -0.00000000000E+00 -0.00000000000E+00 -0.58236552112E+03  0.58236552112E+03  0.00000000000E+00 0. -1.
         25    1    1    2    0    0  0.67248180443E+02 -0.24769192464E+03 -0.23391757037E+03  0.36907456839E+03  0.12500000000E+03 0.  0.
         21    1    1    2  503  502 -0.73829456064E+02  0.20052866696E+03 -0.22410508944E+03  0.30965404239E+03  0.00000000000E+00 0. -1.
         21    1    1    2  504  501  0.65812756204E+01  0.47163257680E+02  0.26533784157E+02  0.54513555795E+02  0.00000000000E+00 0.  1.
<mgrwt>
<rscale>  4 0.26188427E+03</rscale>
<asrwt>0</asrwt>
<pdfrwt beam="1">  1       21 0.23211792E-01 0.26188427E+03</pdfrwt>
<pdfrwt beam="2">  1       21 0.89594693E-01 0.26188427E+03</pdfrwt>
<totfact> 0.17818976E+04</totfact>
</mgrwt>
</event>
<event>
 5    0  0.1200001E+000  0.2542978E+03  0.7546771E-02  0.1110618E+00
         21   -1    0    0  503  501  0.00000000000E+00  0.00000000000E+00  0.54374828837E+03  0.54374828837E+03  0.00000000000E+00 0. -1.
         21   -1    0    0  501  502 -0.00000000000E+00 -0.00000000000E+00 -0.29896595105E+03  0.29896595105E+03  0.00000000000E+00 0. -1.
         25    1    1    2    0    0  0.23163179461E+03 -0.34181039319E+02 -0.14095237707E+03  0.30052321762E+03  0.12500000000E+03 0.  0.
         21    1    1    2  503  504 -0.33053018150E+02  0.46925151757E+01  0.33293893706E+03  0.33460851381E+03  0.00000000000E+00 0. -1.
         21    1    1    2  504  502 -0.19857877646E+03  0.29488524143E+02  0.52795777339E+02  0.20758250799E+03  0.00000000000E+00 0. -1.
<mgrwt>
<rscale>  4 0.25429777E+03</rscale>
<asrwt>0</asrwt>
<pdfrwt beam="1">  1       21 0.83653583E-01 0.25429777E+03</pdfrwt>
<pdfrwt beam="2">  1       21 0.45994762E-01 0.25429777E+03</pdfrwt>
<totfact> 0.53954427E+03</totfact>
</mgrwt>
</event>
<event>
 5    0  0.1200001E+000  0.3022458E+03  0.7546771E-02  0.1084123E+00
         21   -1    0    0  503  501  0.00000000000E+00  0.00000000000E+00  0.44438288313E+03  0.44438288313E+03  0.00000000000E+00 0.  1.
         21   -1    0    0  504  502 -0.00000000000E+00 -0.00000000000E+00 -0.30924052318E+03  0.30924052318E+03  0.00000000000E+00 0.  1.
         25    1    1    2    0    0 -0.26866867671E+03  0.28968099635E+02 -0.12620088617E+03  0.32337852791E+03  0.12500000000E+03 0.  0.
         21    1    1    2  503  502  0.28875461202E+03 -0.54874531975E+01  0.17300913841E+03  0.33666229382E+03  0.00000000000E+00 0.  1.
         21    1    1    2  504  501 -0.20085935309E+02 -0.23480646438E+02  0.88334107710E+02  0.93582584594E+02  0.00000000000E+00 0.  1.
<mgrwt>
<rscale>  4 0.30224583E+03</rscale>
<asrwt>0</asrwt>
<pdfrwt beam="1">  1       21 0.68366597E-01 0.30224583E+03</pdfrwt>
<pdfrwt beam="2">  1       21 0.47575465E-01 0.30224583E+03</pdfrwt>
<totfact> 0.77325726E+03</totfact>
</mgrwt>
</event>
<event>
 5    0  0.1200001E+000  0.2563242E+03  0.7546771E-02  0.1109372E+00
         21   -1    0    0  503  501  0.00000000000E+00  0.00000000000E+00  0.84460596571E+03  0.84460596571E+03  0.00000000000E+00 0. -1.
         21   -1    0    0  504  502 -0.00000000000E+00 -0.00000000000E+00 -0.20906041614E+03  0.20906041614E+03  0.00000000000E+00 0. -1.
         25    1    1    2    0    0  0.14076145665E+03  0.16600416658E+03 -0.41343605698E+02  0.25437268865E+03  0.12500000000E+03 0.  0.
         21    1    1    2  503  502 -0.25831123108E+03 -0.93049385033E+02  0.35385095375E+03  0.44787652051E+03  0.00000000000E+00 0. -1.
         21    1    1    2  504  501  0.11754977443E+03 -0.72954781549E+02  0.32303820151E+03  0.35141717268E+03  0.00000000000E+00 0. -1.
<mgrwt>
<rscale>  4 0.25632418E+03</rscale>
<asrwt>0</asrwt>
<pdfrwt beam="1">  1       21 0.12993938E+00 0.25632418E+03</pdfrwt>
<pdfrwt beam="2">  1       21 0.32163141E-01 0.25632418E+03</pdfrwt>
<totfact> 0.38356418E+03</totfact>
</mgrwt>
</event>
<event>
 5    0  0.1200001E+000  0.2380443E+03  0.7546771E-02  0.1121103E+00
         21   -1    0    0  503  501  0.00000000000E+00  0.00000000000E+00  0.43048447220E+02  0.43048447220E+02  0.00000000000E+00 0. -1.
         21   -1    0    0  504  502 -0.00000000000E+00 -0.00000000000E+00 -0.14528728763E+04  0.14528728763E+04  0.00000000000E+00 0. -1.
         25    1    1    2    0    0  0.21819626267E+03 -0.95441761321E+01 -0.81608540994E+03  0.85400298399E+03  0.12500000000E+03 0.  0.
         21    1    1    2  503  502 -0.18644246757E+03  0.37993062997E+02 -0.54449281122E+03  0.57678131733E+03  0.00000000000E+00 0. -1.
         21    1    1    2  504  501 -0.31753795103E+02 -0.28448886865E+02 -0.49246207925E+02  0.65137022209E+02  0.00000000000E+00 0.  1.
<mgrwt>
<rscale>  4 0.23804434E+03</rscale>
<asrwt>0</asrwt>
<pdfrwt beam="1">  1       21 0.66228373E-02 0.23804434E+03</pdfrwt>
<pdfrwt beam="2">  1       21 0.22351893E+00 0.23804434E+03</pdfrwt>
<totfact> 0.15379881E+04</totfact>
</mgrwt>
</event>
<event>
 5    0  0.1200001E+000  0.3358558E+03  0.7546771E-02  0.1068575E+00
         21   -1    0    0  502  501  0.00000000000E+00  0.00000000000E+00  0.14566008408E+04  0.14566008408E+04  0.00000000000E+00 0.  1.
         21   -1    0    0  503  502 -0.00000000000E+00 -0.00000000000E+00 -0.84127568886E+02  0.84127568886E+02  0.00000000000E+00 0.  1.
         25    1    1    2    0    0  0.36192823962E+02 -0.30432488647E+03  0.53514560832E+03  0.62922919444E+03  0.12500000000E+03 0.  0.
         21    1    1    2  503  504 -0.25129201706E+02 -0.14214709084E+02  0.16425847380E+03  0.16677644002E+03  0.00000000000E+00 0.  1.
         21    1    1    2  504  501 -0.11063622256E+02  0.31853959555E+03  0.67306918975E+03  0.74472277518E+03  0.00000000000E+00 0.  1.
<mgrwt>
<rscale>  4 0.33585585E+03</rscale>
<asrwt>0</asrwt>
<pdfrwt beam="1">  1       21 0.22409242E+00 0.33585585E+03</pdfrwt>
<pdfrwt beam="2">  1       21 0.12942704E-01 0.33585585E+03</pdfrwt>
<totfact> 0.43720410E+03</totfact>
</mgrwt>
</event>
<event>
 5    0  0.1200001E+000  0.2471644E+03  0.7546771E-02  0.1115110E+00
         21   -1    0    0  503  501  0.00000000000E+00  0.00000000000E+00  0.23490898510E+03  0.23490898510E+03  0.00000000000E+00 0.  1.
         21   -1    0    0  504  502 -0.00000000000E+00 -0.00000000000E+00 -0.14763472874E+04  0.14763472874E+04  0.00000000000E+00 0. -1.
         25    1    1    2    0    0  0.21389459842E+03 -0.69527554177E+02 -0.87996020989E+03  0.91680965910E+03  0.12500000000E+03 0.  0.
         21    1    1    2  503  502 -0.19486868421E+03  0.53628616682E+02 -0.55949579495E+03  0.59488265833E+03  0.00000000000E+00 0. -1.
         21    1    1    2  504  501 -0.19025914211E+02  0.15898937495E+02  0.19801770257E+03  0.19956395505E+03  0.00000000000E+00 0.  1.
<mgrwt>
<rscale>  4 0.24716437E+03</rscale>
<asrwt>0</asrwt>
<pdfrwt beam="1">  1       21 0.36139843E-01 0.24716437E+03</pdfrwt>
<pdfrwt beam="2">  1       21 0.22713036E+00 0.24716437E+03</pdfrwt>
<totfact> 0.63275936E+02</totfact>
</mgrwt>
</event>
<event>
 5    0  0.1200001E+000  0.2889395E+03  0.7546771E-02  0.1090904E+00
         21   -1    0    0  503  501  0.00000000000E+00  0.00000000000E+00  0.23777757408E+03  0.23777757408E+03  0.00000000000E+00 0.  1.
         21   -1    0    0  504  502 -0.00000000000E+00 -0.00000000000E+00 -0.56810760991E+03  0.56810760991E+03  0.00000000000E+00 0.  1.
         25    1    1    2    0    0 -0.19107685838E+03  0.16445122523E+03 -0.33418952896E+03  0.43687780048E+03  0.12500000000E+03 0.  0.
         21    1    1    2  503  502  0.20523973167E+03 -0.18772485528E+03 -0.72914951530E+02  0.28754227325E+03  0.00000000000E+00 0.  1.
         21    1    1    2  504  501 -0.14162873289E+02  0.23273630055E+02  0.76774444660E+02  0.81465110253E+02  0.00000000000E+00 0.  1.
<mgrwt>
<rscale>  4 0.28893951E+03</rscale>
<asrwt>0</asrwt>
<pdfrwt beam="1">  1       21 0.36581165E-01 0.28893951E+03</pdfrwt>
<pdfrwt beam="2">  1       21 0.87401171E-01 0.28893951E+03</pdfrwt>
<totfact> 0.76396462E+03</totfact>
</mgrwt>
</event>
<event>
 5    0  0.1200001E+000  0.4402437E+03  0.7546771E-02  0.1030672E+00
         21   -1    0    0  503  501  0.00000000000E+00  0.00000000000E+00  0.61545632788E+03  0.61545632788E+03  0.00000000000E+00 0. -1.
         21   -1    0    0  504  502 -0.00000000000E+00 -0.00000000000E+00 -0.78203096522E+03  0.78203096522E+03  0.00000000000E+00 0. -1.
         25    1    1    2    0    0 -0.42093908173E+03 -0.25122354413E+02 -0.60582005577E+03  0.74864129140E+03  0.12500000000E+03 0.  0.
         21    1    1    2  503  502  0.42691442699E+03 -0.24351545420E+02  0.38887655550E+03  0.57799126390E+03  0.00000000000E+00 0. -1.
         21    1    1    2  504  501 -0.59753452574E+01  0.49473899833E+02  0.50368862922E+02  0.70854737793E+02  0.00000000000E+00 0. -1.
<mgrwt>
<rscale>  4 0.44024368E+03</rscale>
<asrwt>0</asrwt>
<pdfrwt beam="1">  1       21 0.94685588E-01 0.44024368E+03</pdfrwt>
<pdfrwt beam="2">  1       21 0.12031246E+00 0.44024368E+03</pdfrwt>
<totfact> 0.40958125E+02</totfact>
</mgrwt>
</event>
<event>
 5    0  0.1200001E+000  0.2394339E+03  0.7546771E-02  0.1120171E+00
         21   -1    0    0  503  501  0.00000000000E+00  0.00000000000E+00  0.49842713797E+03  0.49842713797E+03  0.00000000000E+00 0. -1.
         21   -1    0    0  504  502 -0.00000000000E+00 -0.00000000000E+00 -0.51563384586E+03  0.51563384586E+03  0.00000000000E+00 0. -1.
         25    1    1    2    0    0 -0.18563094989E+03  0.82136265794E+02 -0.45371776257E+03  0.51253294898E+03  0.12500000000E+03 0.  0.
         21    1    1    2  503  502  0.20815706396E+03 -0.75608023214E+02  0.37257230592E+03  0.43342364908E+03  0.00000000000E+00 0. -1.
         21    1    1    2  504  501 -0.22526114068E+02 -0.65282425800E+01  0.63938748764E+02  0.68104385760E+02  0.00000000000E+00 0.  1.
<mgrwt>
<rscale>  4 0.23943390E+03</rscale>
<asrwt>0</asrwt>
<pdfrwt beam="1">  1       21 0.76681099E-01 0.23943390E+03</pdfrwt>
<pdfrwt beam="2">  1       21 0.79328283E-01 0.23943390E+03</pdfrwt>
<totfact> 0.20402396E+03</totfact>
</mgrwt>
</event>
<event>
 5    0  0.1200001E+000  0.2207476E+03  0.7546771E-02  0.1133327E+00
         21   -1    0    0  503  501  0.00000000000E+00  0.00000000000E+00  0.84180434502E+02  0.84180434502E+02  0.00000000000E+00 0. -1.
         21   -1    0    0  504  502 -0.00000000000E+00 -0.00000000000E+00 -0.74685717019E+03  0.74685717019E+03  0.00000000000E+00 0. -1.
         25    1    1    2    0    0 -0.18307486511E+03 -0.91851038652E+02 -0.24935217193E+03  0.34605566775E+03  0.12500000000E+03 0.  0.
         21    1    1    2  503  502  0.16551514352E+03  0.53993201747E+02 -0.40713000584E+03  0.44279269441E+03  0.00000000000E+00 0. -1.
         21    1    1    2  504  501  0.17559721587E+02  0.37857836904E+02 -0.61945579209E+01  0.42189242529E+02  0.00000000000E+00 0. -1.
<mgrwt>
<rscale>  4 0.22074760E+03</rscale>
<asrwt>0</asrwt>
<pdfrwt beam="1">  1       21 0.12950836E-01 0.22074760E+03</pdfrwt>
<pdfrwt beam="2">  1       21 0.11490111E+00 0.22074760E+03</pdfrwt>
<totfact> 0.29590355E+04</totfact>
</mgrwt>
</event>
<event>
 5    0  0.1200001E+000  0.1908062E+03  0.7546771E-02  0.1157736E+00
         21   -1    0    0  503  501  0.00000000000E+00  0.00000000000E+00  0.62780893846E+03  0.62780893846E+03  0.00000000000E+00 0.  1.
         21   -1    0    0  504  502 -0.00000000000E+00 -0.00000000000E+00 -0.29567996891E+03  0.29567996891E+03  0.00000000000E+00 0.  1.
         25    1    1    2    0    0  0.84224329366E+02  0.22170332832E+03 -0.16380447222E+03  0.31417034959E+03  0.12500000000E+03 0.  0.
         21    1    1    2  503  502 -0.21597776449E+01 -0.10759178267E+03  0.15472390741E+02  0.10872005892E+03  0.00000000000E+00 0.  1.
         21    1    1    2  504  501 -0.82064551721E+02 -0.11411154565E+03  0.48046105103E+03  0.50059849885E+03  0.00000000000E+00 0.  1.
<mgrwt>
<rscale>  4 0.19080615E+03</rscale>
<asrwt>0</asrwt>
<pdfrwt beam="1">  1       21 0.96585990E-01 0.19080615E+03</pdfrwt>
<pdfrwt beam="2">  1       21 0.45489226E-01 0.19080615E+03</pdfrwt>
<totfact> 0.41360300E+03</totfact>
</mgrwt>
</event>
<event>
 5    0  0.1200001E+000  0.2880182E+03  0.7546771E-02  0.1091388E+00
         21   -1    0    0  503  501  0.00000000000E+00  0.00000000000E+00  0.38878830446E+03  0.38878830446E+03  0.00000000000E+00 0.  1.
         21   -1    0    0  504  502 -0.00000000000E+00 -0.00000000000E+00 -0.61697641838E+03  0.61697641838E+03  0.00000000000E+00 0. -1.
         25    1    1    2    0    0  0.27098349480E+02  0.25806037093E+03 -0.52551543095E+03  0.59926700540E+03  0.12500000000E+03 0.  0.
         21    1    1    2  503  502  0.10503487951E+02 -0.22986460388E+03  0.25074847585E+03  0.34032757385E+03  0.00000000000E+00 0.  1.
         21    1    1    2  504  501 -0.37601837431E+02 -0.28195767049E+02  0.46578841181E+02  0.66170143595E+02  0.00000000000E+00 0.  1.
<mgrwt>
<rscale>  4 0.28801819E+03</rscale>
<asrwt>0</asrwt>
<pdfrwt beam="1">  1       21 0.59813586E-01 0.28801819E+03</pdfrwt>
<pdfrwt beam="2">  1       21 0.94919448E-01 0.28801819E+03</pdfrwt>
<totfact> 0.22566259E+03</totfact>
</mgrwt>
</event>
<event>
 5    0  0.1200001E+000  0.2535961E+03  0.7546771E-02  0.1111053E+00
         21   -1    0    0  503  501  0.00000000000E+00  0.00000000000E+00  0.18402367113E+04  0.18402367113E+04  0.00000000000E+00 0. -1.
         21   -1    0    0  504  502 -0.00000000000E+00 -0.00000000000E+00 -0.11761749316E+03  0.11761749316E+03  0.00000000000E+00 0. -1.
         25    1    1    2    0    0 -0.17770112218E+03  0.14394935757E+03  0.61185862064E+02  0.26770845352E+03  0.12500000000E+03 0.  0.
         21    1    1    2  503  502  0.80748891884E+01 -0.56130907742E+02  0.10020546350E+04  0.10036579966E+04  0.00000000000E+00 0. -1.
         21    1    1    2  504  501  0.16962623299E+03 -0.87818449828E+02  0.65937872111E+03  0.68648775437E+03  0.00000000000E+00 0. -1.
<mgrwt>
<rscale>  4 0.25359612E+03</rscale>
<asrwt>0</asrwt>
<pdfrwt beam="1">  1       21 0.28311332E+00 0.25359612E+03</pdfrwt>
<pdfrwt beam="2">  1       21 0.18095000E-01 0.25359612E+03</pdfrwt>
<totfact> 0.11079101E+03</totfact>
</mgrwt>
</event>
<event>
 5    0  0.1200001E+000  0.4578790E+03  0.7546771E-02  0.1025398E+00
         21   -1    0    0  503  501  0.00000000000E+00  0.00000000000E+00  0.46050936195E+03  0.46050936195E+03  0.00000000000E+00 0.  1.
         21   -1    0    0  501  502 -0.00000000000E+00 -0.00000000000E+00 -0.14405841694E+04  0.14405841694E+04  0.00000000000E+00 0.  1.
         25    1    1    2    0    0  0.35997826662E+03  0.23968020757E+03  0.10850704083E+02  0.45030399967E+03  0.12500000000E+03 0.  0.
         21    1    1    2  503  504  0.37642516191E+02 -0.45601508185E+02  0.18508366217E+03  0.19429981620E+03  0.00000000000E+00 0.  1.
         21    1    1    2  504  502 -0.39762078281E+03 -0.19407869938E+03 -0.11760091737E+04  0.12564897154E+04  0.00000000000E+00 0.  1.
<mgrwt>
<rscale>  4 0.45787897E+03</rscale>
<asrwt>0</asrwt>
<pdfrwt beam="1">  1       21 0.70847593E-01 0.45787897E+03</pdfrwt>
<pdfrwt beam="2">  1       21 0.22162834E+00 0.45787897E+03</pdfrwt>
<totfact> 0.14087309E+02</totfact>
</mgrwt>
</event>
<event>
 5    0  0.1200001E+000  0.3486143E+03  0.7546771E-02  0.1063185E+00
         21   -1    0    0  503  501  0.00000000000E+00  0.00000000000E+00  0.58492975655E+03  0.58492975655E+03  0.00000000000E+00 0.  1.
         21   -1    0    0  504  502 -0.00000000000E+00 -0.00000000000E+00 -0.33423694230E+03  0.33423694230E+03  0.00000000000E+00 0.  1.
         25    1    1    2    0    0 -0.10691131031E+03  0.28187699977E+03  0.80029123094E+02  0.33602727838E+03  0.12500000000E+03 0.  0.
         21    1    1    2  503  502  0.23031865531E+02 -0.34901141721E+03 -0.34580626602E+02  0.35147582549E+03  0.00000000000E+00 0.  1.
         21    1    1    2  504  501  0.83879444782E+02  0.67134417432E+02  0.20524431777E+03  0.23166359497E+03  0.00000000000E+00 0.  1.
<mgrwt>
<rscale>  4 0.34861431E+03</rscale>
<asrwt>0</asrwt>
<pdfrwt beam="1">  1       21 0.89989193E-01 0.34861431E+03</pdfrwt>
<pdfrwt beam="2">  1       21 0.51421068E-01 0.34861431E+03</pdfrwt>
<totfact> 0.34289503E+03</totfact>
</mgrwt>
</event>
<event>
 5    0  0.1200001E+000  0.2644952E+03  0.7546771E-02  0.1104472E+00
         21   -1    0    0  503  501  0.00000000000E+00  0.00000000000E+00  0.31757281977E+03  0.31757281977E+03  0.00000000000E+00 0. -1.
         21   -1    0    0  504  502 -0.00000000000E+00 -0.00000000000E+00 -0.70713297707E+03  0.70713297707E+03  0.00000000000E+00 0.  1.
         25    1    1    2    0    0  0.21702397149E+03  0.79003310564E+02 -0.60185573283E+03  0.65665535133E+03  0.12500000000E+03 0.  0.
         21    1    1    2  503  502 -0.24914346949E+03 -0.57602897869E+02  0.20719195484E+03  0.32911862357E+03  0.00000000000E+00 0. -1.
         21    1    1    2  504  501  0.32119497992E+02 -0.21400412696E+02  0.51036206893E+01  0.38931821932E+02  0.00000000000E+00 0.  1.
<mgrwt>
<rscale>  4 0.26449519E+03</rscale>
<asrwt>0</asrwt>
<pdfrwt beam="1">  1       21 0.48857357E-01 0.26449519E+03</pdfrwt>
<pdfrwt beam="2">  1       21 0.10878969E+00 0.26449519E+03</pdfrwt>
<totfact> 0.25378932E+03</totfact>
</mgrwt>
</event>
<event>
 5    0  0.1200001E+000  0.4020813E+03  0.7546771E-02  0.1043061E+00
         21   -1    0    0  503  501  0.00000000000E+00  0.00000000000E+00  0.12563725816E+03  0.12563725816E+03  0.00000000000E+00 0.  1.
         21   -1    0    0  504  502 -0.00000000000E+00 -0.00000000000E+00 -0.23334206055E+04  0.23334206055E+04  0.00000000000E+00 0.  1.
         25    1    1    2    0    0  0.42856610657E+03 -0.10395956651E+02 -0.12458257730E+04  0.13234363756E+04  0.12500000000E+03 0.  0.
         21    1    1    2  503  502 -0.34683691505E+03 -0.38572480292E+01 -0.98924043395E+03  0.10482878232E+04  0.00000000000E+00 0.  1.
         21    1    1    2  504  501 -0.81729191517E+02  0.14253204680E+02  0.27282859645E+02  0.87333664872E+02  0.00000000000E+00 0.  1.
<mgrwt>
<rscale>  4 0.40208129E+03</rscale>
<asrwt>0</asrwt>
<pdfrwt beam="1">  1       21 0.19328809E-01 0.40208129E+03</pdfrwt>
<pdfrwt beam="2">  1       21 0.35898778E+00 0.40208129E+03</pdfrwt>
<totfact> 0.30471612E+02</totfact>
</mgrwt>
</event>
<event>
 5    0  0.1200001E+000  0.2891583E+03  0.7546771E-02  0.1090789E+00
         21   -1    0    0  503  501  0.00000000000E+00  0.00000000000E+00  0.23513680083E+04  0.23513680083E+04  0.00000000000E+00 0.  1.
         21   -1    0    0  504  502 -0.00000000000E+00 -0.00000000000E+00 -0.69285922625E+02  0.69285922625E+02  0.00000000000E+00 0.  1.
         25    1    1    2    0    0 -0.24675843824E+03  0.71921200772E+02  0.29974769539E+03  0.41416912833E+03  0.12500000000E+03 0.  0.
         21    1    1    2  503  502  0.27377063003E+03 -0.58218188104E+02  0.17668080869E+04  0.17888405551E+04  0.00000000000E+00 0.  1.
         21    1    1    2  504  501 -0.27012191787E+02 -0.13703012668E+02  0.21552630335E+03  0.21764424757E+03  0.00000000000E+00 0.  1.
<mgrwt>
<rscale>  4 0.28915832E+03</rscale>
<asrwt>0</asrwt>
<pdfrwt beam="1">  1       21 0.36174886E+00 0.28915832E+03</pdfrwt>
<pdfrwt beam="2">  1       21 0.10659375E-01 0.28915832E+03</pdfrwt>
<totfact> 0.96161336E+02</totfact>
</mgrwt>
</event>
<event>
 5    0  0.1200001E+000  0.2720536E+03  0.7546771E-02  0.1100110E+00
         21   -1    0    0  503  501  0.00000000000E+00  0.00000000000E+00  0.16442992739E+04  0.16442992739E+04  0.00000000000E+00 0. -1.
         21   -1    0    0  501  502 -0.00000000000E+00 -0.00000000000E+00 -0.46267751484E+02  0.46267751484E+02  0.00000000000E+00 0. -1.
         25    1    1    2    0    0  0.13592538596E+03 -0.19978096215E+03  0.54477936575E+03  0.60893160595E+03  0.12500000000E+03 0.  0.
         21    1    1    2  503  504 -0.15824862439E+02  0.13535947203E+02  0.15780066915E+03  0.15916877622E+03  0.00000000000E+00 0. -1.
         21    1    1    2  504  502 -0.12010052352E+03  0.18624501495E+03  0.89545148748E+03  0.92246664317E+03  0.00000000000E+00 0. -1.
<mgrwt>
<rscale>  4 0.27205357E+03</rscale>
<asrwt>0</asrwt>
<pdfrwt beam="1">  1       21 0.25296907E+00 0.27205357E+03</pdfrwt>
<pdfrwt beam="2">  1       21 0.71181169E-02 0.27205357E+03</pdfrwt>
<totfact> 0.87877834E+03</totfact>
</mgrwt>
</event>
<event>
 5    0  0.1200001E+000  0.2383054E+03  0.7546771E-02  0.1120927E+00
         21   -1    0    0  503  501  0.00000000000E+00  0.00000000000E+00  0.28724504158E+04  0.28724504158E+04  0.00000000000E+00 0. -1.
         21   -1    0    0  504  502 -0.00000000000E+00 -0.00000000000E+00 -0.39041094688E+03  0.39041094688E+03  0.00000000000E+00 0. -1.
         25    1    1    2    0    0 -0.19886527207E+03  0.44683260841E+02 -0.34520761067E+03  0.41992533229E+03  0.12500000000E+03 0.  0.
         21    1    1    2  503  502  0.15755060319E+03 -0.92306080387E+02  0.11416747369E+04  0.11561850240E+04  0.00000000000E+00 0. -1.
         21    1    1    2  504  501  0.41314668875E+02  0.47622819546E+02  0.16855723427E+04  0.16867510063E+04  0.00000000000E+00 0. -1.
<mgrwt>
<rscale>  4 0.23830543E+03</rscale>
<asrwt>0</asrwt>
<pdfrwt beam="1">  1       21 0.44191543E+00 0.23830543E+03</pdfrwt>
<pdfrwt beam="2">  1       21 0.60063224E-01 0.23830543E+03</pdfrwt>
<totfact> 0.11138453E+01</totfact>
</mgrwt>
</event>
<event>
 5    0  0.1200001E+000  0.2401640E+03  0.7546771E-02  0.1119684E+00
         21   -1    0    0  503  501  0.00000000000E+00  0.00000000000E+00  0.65033706578E+02  0.65033706578E+02  0.00000000000E+00 0. -1.
         21   -1    0    0  504  502 -0.00000000000E+00 -0.00000000000E+00 -0.92670122313E+03  0.92670122313E+03  0.00000000000E+00 0. -1.
         25    1    1    2    0    0 -0.12101048781E+03  0.17863781046E+03 -0.46986864990E+03  0.53193660679E+03  0.12500000000E+03 0.  0.
         21    1    1    2  503  502  0.11914611013E+03 -0.15704233093E+03 -0.39126393408E+03  0.43811591546E+03  0.00000000000E+00 0. -1.
         21    1    1    2  504  501  0.18643776850E+01 -0.21595479531E+02 -0.53493256319E+00  0.21682407458E+02  0.00000000000E+00 0. -1.
<mgrwt>
<rscale>  4 0.24016402E+03</rscale>
<asrwt>0</asrwt>
<pdfrwt beam="1">  1       21 0.10005186E-01 0.24016402E+03</pdfrwt>
<pdfrwt beam="2">  1       21 0.14256942E+00 0.24016402E+03</pdfrwt>
<totfact> 0.26916407E+04</totfact>
</mgrwt>
</event>
<event>
 5    0  0.1200001E+000  0.2278414E+03  0.7546771E-02  0.1128168E+00
         21   -1    0    0  503  501  0.00000000000E+00  0.00000000000E+00  0.26744360896E+03  0.26744360896E+03  0.00000000000E+00 0.  1.
         21   -1    0    0  501  502 -0.00000000000E+00 -0.00000000000E+00 -0.22962602742E+03  0.22962602742E+03  0.00000000000E+00 0.  1.
         25    1    1    2    0    0  0.51919810636E+01  0.21168563715E+03 -0.68816191238E+01  0.24598805322E+03  0.12500000000E+03 0.  0.
         21    1    1    2  503  504  0.53798808724E+02 -0.45212295707E+02  0.17065528294E+02  0.72316635424E+02  0.00000000000E+00 0.  1.
         21    1    1    2  504  502 -0.58990789788E+02 -0.16647334144E+03  0.27633672377E+02  0.17876494774E+03  0.00000000000E+00 0.  1.
<mgrwt>
<rscale>  4 0.22784138E+03</rscale>
<asrwt>0</asrwt>
<pdfrwt beam="1">  1       21 0.41145171E-01 0.22784138E+03</pdfrwt>
<pdfrwt beam="2">  1       21 0.35327081E-01 0.22784138E+03</pdfrwt>
<totfact> 0.43209581E+04</totfact>
</mgrwt>
</event>
<event>
 5    0  0.1200001E+000  0.2449966E+03  0.7546771E-02  0.1116508E+00
         21   -1    0    0  503  501  0.00000000000E+00  0.00000000000E+00  0.12133573464E+03  0.12133573464E+03  0.00000000000E+00 0. -1.
         21   -1    0    0  504  502 -0.00000000000E+00 -0.00000000000E+00 -0.61219690966E+03  0.61219690966E+03  0.00000000000E+00 0. -1.
         25    1    1    2    0    0  0.12523584089E+03  0.16976359569E+03 -0.16227302800E+03  0.29404290483E+03  0.12500000000E+03 0.  0.
         21    1    1    2  503  502 -0.10782953308E+03 -0.18126846342E+03 -0.35060500703E+03  0.40915685866E+03  0.00000000000E+00 0. -1.
         21    1    1    2  504  501 -0.17406307816E+02  0.11504867729E+02  0.22016860018E+02  0.30332880812E+02  0.00000000000E+00 0. -1.
<mgrwt>
<rscale>  4 0.24499662E+03</rscale>
<asrwt>0</asrwt>
<pdfrwt beam="1">  1       21 0.18667036E-01 0.24499662E+03</pdfrwt>
<pdfrwt beam="2">  1       21 0.94184141E-01 0.24499662E+03</pdfrwt>
<totfact> 0.24109323E+04</totfact>
</mgrwt>
</event>
<event>
 5    0  0.1200001E+000  0.2977460E+03  0.7546771E-02  0.1086373E+00
         21   -1    0    0  503  501  0.00000000000E+00  0.00000000000E+00  0.36035113824E+03  0.36035113824E+03  0.00000000000E+00 0. -1.
         21   -1    0    0  504  502 -0.00000000000E+00 -0.00000000000E+00 -0.93718388221E+03  0.93718388221E+03  0.00000000000E+00 0.  1.
         25    1    1    2    0    0 -0.14174486823E+03 -0.23352699150E+03 -0.83019931197E+03  0.88288298263E+03  0.12500000000E+03 0.  0.
         21    1    1    2  503  502  0.94922628098E+02  0.21691433092E+03  0.27287285308E+03  0.36127790720E+03  0.00000000000E+00 0. -1.
         21    1    1    2  504  501  0.46822240127E+02  0.16612660577E+02 -0.19506285080E+02  0.53374130622E+02  0.00000000000E+00 0. -1.
<mgrwt>
<rscale>  4 0.29774599E+03</rscale>
<asrwt>0</asrwt>
<pdfrwt beam="1">  1       21 0.55438637E-01 0.29774599E+03</pdfrwt>
<pdfrwt beam="2">  1       21 0.14418214E+00 0.29774599E+03</pdfrwt>
<totfact> 0.93039012E+02</totfact>
</mgrwt>
</event>
<event>
 5    0  0.1200001E+000  0.3022966E+03  0.7546771E-02  0.1084098E+00
         21   -1    0    0  502  501  0.00000000000E+00  0.00000000000E+00  0.49936619334E+03  0.49936619334E+03  0.00000000000E+00 0. -1.
         21   -1    0    0  503  502 -0.00000000000E+00 -0.00000000000E+00 -0.50100338600E+03  0.50100338600E+03  0.00000000000E+00 0. -1.
         25    1    1    2    0    0 -0.23563931245E+03  0.17560278865E+03 -0.33575555832E+03  0.46337783708E+03  0.12500000000E+03 0.  0.
         21    1    1    2  503  504  0.10912763174E+03 -0.21815535817E+03  0.92347253263E+02  0.26082295814E+03  0.00000000000E+00 0. -1.
         21    1    1    2  504  501  0.12651168071E+03  0.42552569519E+02  0.24177111240E+03  0.27616878412E+03  0.00000000000E+00 0. -1.
<mgrwt>
<rscale>  4 0.30229662E+03</rscale>
<asrwt>0</asrwt>
<pdfrwt beam="1">  1       21 0.76825568E-01 0.30229662E+03</pdfrwt>
<pdfrwt beam="2">  1       21 0.77077444E-01 0.30229662E+03</pdfrwt>
<totfact> 0.20818170E+03</totfact>
</mgrwt>
</event>
<event>
 5    0  0.1200001E+000  0.2411925E+03  0.7546771E-02  0.1119001E+00
         21   -1    0    0  503  501  0.00000000000E+00  0.00000000000E+00  0.52396054986E+02  0.52396054986E+02  0.00000000000E+00 0.  1.
         21   -1    0    0  504  502 -0.00000000000E+00 -0.00000000000E+00 -0.13963415704E+04  0.13963415704E+04  0.00000000000E+00 0.  1.
         25    1    1    2    0    0 -0.19370184451E+03 -0.78552135282E+02 -0.44457017563E+03  0.50691072546E+03  0.12500000000E+03 0.  0.
         21    1    1    2  503  502  0.17684276397E+03  0.10544492000E+03 -0.88185560400E+03  0.90557236080E+03  0.00000000000E+00 0.  1.
         21    1    1    2  504  501  0.16859080540E+02 -0.26892784720E+02 -0.17519735801E+02  0.36254539153E+02  0.00000000000E+00 0.  1.
<mgrwt>
<rscale>  4 0.24119249E+03</rscale>
<asrwt>0</asrwt>
<pdfrwt beam="1">  1       21 0.80609320E-02 0.24119249E+03</pdfrwt>
<pdfrwt beam="2">  1       21 0.21482177E+00 0.24119249E+03</pdfrwt>
<totfact> 0.12348143E+04</totfact>
</mgrwt>
</event>
<event>
 5    0  0.1200001E+000  0.3198809E+03  0.7546771E-02  0.1075704E+00
         21   -1    0    0  503  501  0.00000000000E+00  0.00000000000E+00  0.56643596565E+03  0.56643596565E+03  0.00000000000E+00 0.  1.
         21   -1    0    0  501  502 -0.00000000000E+00 -0.00000000000E+00 -0.20565961387E+03  0.20565961387E+03  0.00000000000E+00 0.  1.
         25    1    1    2    0    0 -0.27404163182E+03 -0.11668696759E+03  0.18023606481E+03  0.36989823389E+03  0.12500000000E+03 0.  0.
         21    1    1    2  503  504  0.21281843845E+02 -0.31462485810E+02  0.86540560360E+02  0.94509647540E+02  0.00000000000E+00 0.  1.
         21    1    1    2  504  502  0.25275978797E+03  0.14814945340E+03  0.93999726611E+02  0.30768769810E+03  0.00000000000E+00 0.  1.
<mgrwt>
<rscale>  4 0.31988090E+03</rscale>
<asrwt>0</asrwt>
<pdfrwt beam="1">  1       21 0.87143994E-01 0.31988090E+03</pdfrwt>
<pdfrwt beam="2">  1       21 0.31639941E-01 0.31988090E+03</pdfrwt>
<totfact> 0.10136657E+04</totfact>
</mgrwt>
</event>
<event>
 5    0  0.1200001E+000  0.3067466E+03  0.7546771E-02  0.1081916E+00
         21   -1    0    0  503  501  0.00000000000E+00  0.00000000000E+00  0.95938582257E+03  0.95938582257E+03  0.00000000000E+00 0. -1.
         21   -1    0    0  504  502 -0.00000000000E+00 -0.00000000000E+00 -0.10876632196E+03  0.10876632196E+03  0.00000000000E+00 0. -1.
         25    1    1    2    0    0  0.13402659847E+03  0.24996411880E+03  0.34010149589E+03  0.46015129826E+03  0.12500000000E+03 0.  0.
         21    1    1    2  503  502 -0.11173844271E+03 -0.25349655605E+03  0.35226983545E+03  0.44815178286E+03  0.00000000000E+00 0. -1.
         21    1    1    2  504  501 -0.22288155761E+02  0.35324372495E+01  0.15824816926E+03  0.15984906342E+03  0.00000000000E+00 0. -1.
<mgrwt>
<rscale>  4 0.30674659E+03</rscale>
<asrwt>0</asrwt>
<pdfrwt beam="1">  1       21 0.14759781E+00 0.30674659E+03</pdfrwt>
<pdfrwt beam="2">  1       21 0.16733281E-01 0.30674659E+03</pdfrwt>
<totfact> 0.93390714E+03</totfact>
</mgrwt>
</event>
<event>
 5    0  0.1200001E+000  0.2752130E+03  0.7546771E-02  0.1098333E+00
         21   -1    0    0  502  501  0.00000000000E+00  0.00000000000E+00  0.35506162917E+03  0.35506162917E+03  0.00000000000E+00 0.  1.
         21   -1    0    0  503  502 -0.00000000000E+00 -0.00000000000E+00 -0.26036665107E+03  0.26036665107E+03  0.00000000000E+00 0.  1.
         25    1    1    2    0    0 -0.22287083906E+03  0.86639109391E+02 -0.67481096517E+02  0.27813026546E+03  0.12500000000E+03 0.  0.
         21    1    1    2  503  504  0.79593148078E+01  0.37751054823E+02 -0.35746099872E+01  0.38746234256E+02  0.00000000000E+00 0.  1.
         21    1    1    2  504  501  0.21491152425E+03 -0.12439016421E+03  0.16575068460E+03  0.29855178053E+03  0.00000000000E+00 0.  1.
<mgrwt>
<rscale>  4 0.27521302E+03</rscale>
<asrwt>0</asrwt>
<pdfrwt beam="1">  1       21 0.54624866E-01 0.27521302E+03</pdfrwt>
<pdfrwt beam="2">  1       21 0.40056408E-01 0.27521302E+03</pdfrwt>
<totfact> 0.18198219E+04</totfact>
</mgrwt>
</event>
<event>
 5    0  0.1200001E+000  0.4466059E+03  0.7546771E-02  0.1028739E+00
         21   -1    0    0  503  501  0.00000000000E+00  0.00000000000E+00  0.45569019544E+03  0.45569019544E+03  0.00000000000E+00 0.  1.
         21   -1    0    0  501  502 -0.00000000000E+00 -0.00000000000E+00 -0.23148013068E+04  0.23148013068E+04  0.00000000000E+00 0.  1.
         25    1    1    2    0    0  0.60112786519E+02  0.41722066411E+03 -0.39014226935E+03  0.58781172155E+03  0.12500000000E+03 0.  0.
         21    1    1    2  503  504  0.20939371134E+02  0.57906083057E+01  0.33109393253E+03  0.33180593812E+03  0.00000000000E+00 0.  1.
         21    1    1    2  504  502 -0.81052157654E+02 -0.42301127241E+03 -0.18000627746E+04  0.18508738426E+04  0.00000000000E+00 0.  1.
<mgrwt>
<rscale>  4 0.44660591E+03</rscale>
<asrwt>0</asrwt>
<pdfrwt beam="1">  1       21 0.70106182E-01 0.44660591E+03</pdfrwt>
<pdfrwt beam="2">  1       21 0.35612329E+00 0.44660591E+03</pdfrwt>
<totfact> 0.21971915E+01</totfact>
</mgrwt>
</event>
<event>
 5    0  0.1200001E+000  0.3126715E+03  0.7546771E-02  0.1079072E+00
         21   -1    0    0  503  501  0.00000000000E+00  0.00000000000E+00  0.11332627404E+03  0.11332627404E+03  0.00000000000E+00 0. -1.
         21   -1    0    0  504  502 -0.00000000000E+00 -0.00000000000E+00 -0.12522763175E+04  0.12522763175E+04  0.00000000000E+00 0. -1.
         25    1    1    2    0    0 -0.63331621944E+00  0.26561723641E+03 -0.24882060190E+03  0.38482412775E+03  0.12500000000E+03 0.  0.
         21    1    1    2  503  502  0.42960457168E+02 -0.29157462204E+03 -0.88266361637E+03  0.93056779483E+03  0.00000000000E+00 0. -1.
         21    1    1    2  504  501 -0.42327140949E+02  0.25957385626E+02 -0.74658251611E+01  0.50210668934E+02  0.00000000000E+00 0.  1.
<mgrwt>
<rscale>  4 0.31267146E+03</rscale>
<asrwt>0</asrwt>
<pdfrwt beam="1">  1       21 0.17434812E-01 0.31267146E+03</pdfrwt>
<pdfrwt beam="2">  1       21 0.19265788E+00 0.31267146E+03</pdfrwt>
<totfact> 0.40839722E+03</totfact>
</mgrwt>
</event>
<event>
 5    0  0.1200001E+000  0.2996492E+03  0.7546771E-02  0.1085416E+00
         21   -1    0    0  503  501  0.00000000000E+00  0.00000000000E+00  0.89091199215E+03  0.89091199215E+03  0.00000000000E+00 0.  1.
         21   -1    0    0  501  502 -0.00000000000E+00 -0.00000000000E+00 -0.28050417496E+03  0.28050417496E+03  0.00000000000E+00 0.  1.
         25    1    1    2    0    0  0.25691016069E+03 -0.79377215658E+02 -0.10232015188E+03  0.31368453342E+03  0.12500000000E+03 0.  0.
         21    1    1    2  503  504  0.16229130731E+01 -0.35163890047E+02  0.50656269450E+03  0.50778430113E+03  0.00000000000E+00 0.  1.
         21    1    1    2  504  502 -0.25853307376E+03  0.11454110570E+03  0.20616527457E+03  0.34994733255E+03  0.00000000000E+00 0.  1.
<mgrwt>
<rscale>  4 0.29964916E+03</rscale>
<asrwt>0</asrwt>
<pdfrwt beam="1">  1       21 0.13706338E+00 0.29964916E+03</pdfrwt>
<pdfrwt beam="2">  1       21 0.43154489E-01 0.29964916E+03</pdfrwt>
<totfact> 0.17969139E+03</totfact>
</mgrwt>
</event>
<event>
 5    0  0.1200001E+000  0.2777906E+03  0.7546771E-02  0.1096902E+00
         21   -1    0    0  503  501  0.00000000000E+00  0.00000000000E+00  0.41843689009E+03  0.41843689009E+03  0.00000000000E+00 0.  1.
         21   -1    0    0  501  502 -0.00000000000E+00 -0.00000000000E+00 -0.53530169759E+03  0.53530169759E+03  0.00000000000E+00 0. -1.
         25    1    1    2    0    0  0.22013989386E+03 -0.10605237835E+03 -0.42684891500E+03  0.50747775918E+03  0.12500000000E+03 0.  0.
         21    1    1    2  503  504  0.35438126127E+02 -0.94819543276E+01  0.16249418319E+02  0.40122460505E+02  0.00000000000E+00 0.  1.
         21    1    1    2  504  502 -0.25557801999E+03  0.11553433268E+03  0.29373468918E+03  0.40613836800E+03  0.00000000000E+00 0.  1.
<mgrwt>
<rscale>  4 0.27779061E+03</rscale>
<asrwt>0</asrwt>
<pdfrwt beam="1">  1       21 0.64374906E-01 0.27779061E+03</pdfrwt>
<pdfrwt beam="2">  1       21 0.82354107E-01 0.27779061E+03</pdfrwt>
<totfact> 0.26934611E+03</totfact>
</mgrwt>
</event>
<event>
 5    0  0.1200001E+000  0.3916330E+03  0.7546771E-02  0.1046716E+00
         21   -1    0    0  503  501  0.00000000000E+00  0.00000000000E+00  0.10060887849E+04  0.10060887849E+04  0.00000000000E+00 0. -1.
         21   -1    0    0  501  502 -0.00000000000E+00 -0.00000000000E+00 -0.40896501481E+03  0.40896501481E+03  0.00000000000E+00 0.  1.
         25    1    1    2    0    0  0.32703122111E+03 -0.10037257906E+03 -0.24931902395E+03  0.44137178197E+03  0.12500000000E+03 0.  0.
         21    1    1    2  503  504  0.37262895971E+02  0.13450119940E+02 -0.83106192067E+01  0.40478334132E+02  0.00000000000E+00 0.  1.
         21    1    1    2  504  502 -0.36429411709E+03  0.86922459118E+02  0.85475341330E+03  0.93320368365E+03  0.00000000000E+00 0. -1.
<mgrwt>
<rscale>  4 0.39163297E+03</rscale>
<asrwt>0</asrwt>
<pdfrwt beam="1">  1       21 0.15478289E+00 0.39163297E+03</pdfrwt>
<pdfrwt beam="2">  1       21 0.62917695E-01 0.39163297E+03</pdfrwt>
<totfact> 0.55207479E+02</totfact>
</mgrwt>
</event>
<event>
 5    0  0.1200001E+000  0.2951924E+03  0.7546771E-02  0.1087669E+00
         21   -1    0    0  502  501  0.00000000000E+00  0.00000000000E+00  0.11150958602E+04  0.11150958602E+04  0.00000000000E+00 0. -1.
         21   -1    0    0  504  502 -0.00000000000E+00 -0.00000000000E+00 -0.20849292736E+03  0.20849292736E+03  0.00000000000E+00 0. -1.
         25    1    1    2    0    0 -0.92107827448E+02 -0.26542199115E+03 -0.54192912318E+02  0.31224118404E+03  0.12500000000E+03 0.  0.
         21    1    1    2  503  501  0.65193170734E+02  0.20473324432E+03  0.47878923222E+03  0.52479041505E+03  0.00000000000E+00 0. -1.
         21    1    1    2  504  503  0.26914656714E+02  0.60688746840E+02  0.48200661293E+03  0.48655718846E+03  0.00000000000E+00 0. -1.
<mgrwt>
<rscale>  4 0.29519245E+03</rscale>
<asrwt>0</asrwt>
<pdfrwt beam="1">  1       21 0.17155321E+00 0.29519245E+03</pdfrwt>
<pdfrwt beam="2">  1       21 0.32075836E-01 0.29519245E+03</pdfrwt>
<totfact> 0.17896650E+03</totfact>
</mgrwt>
</event>
<event>
 5    0  0.1200001E+000  0.2554873E+03  0.7546771E-02  0.1109885E+00
         21   -1    0    0  503  501  0.00000000000E+00  0.00000000000E+00  0.62518754720E+03  0.62518754720E+03  0.00000000000E+00 0. -1.
         21   -1    0    0  504  502 -0.00000000000E+00 -0.00000000000E+00 -0.11486382327E+03  0.11486382327E+03  0.00000000000E+00 0. -1.
         25    1    1    2    0    0  0.16907119250E+03  0.14513340929E+03  0.11032822917E+03  0.27829138107E+03  0.12500000000E+03 0.  0.
         21    1    1    2  503  502 -0.14836160804E+03 -0.14484861697E+03  0.33941826447E+03  0.39773992361E+03  0.00000000000E+00 0. -1.
         21    1    1    2  504  501 -0.20709584455E+02 -0.28479231277E+00  0.60577230290E+02  0.64020065796E+02  0.00000000000E+00 0. -1.
<mgrwt>
<rscale>  4 0.25548733E+03</rscale>
<asrwt>0</asrwt>
<pdfrwt beam="1">  1       21 0.96182698E-01 0.25548733E+03</pdfrwt>
<pdfrwt beam="2">  1       21 0.17671358E-01 0.25548733E+03</pdfrwt>
<totfact> 0.25282666E+04</totfact>
</mgrwt>
</event>
<event>
 5    0  0.1200001E+000  0.1983248E+03  0.7546771E-02  0.1151160E+00
         21   -1    0    0  503  501  0.00000000000E+00  0.00000000000E+00  0.34717281693E+03  0.34717281693E+03  0.00000000000E+00 0. -1.
         21   -1    0    0  504  502 -0.00000000000E+00 -0.00000000000E+00 -0.22606095540E+03  0.22606095540E+03  0.00000000000E+00 0.  1.
         25    1    1    2    0    0 -0.20341621869E+03 -0.11729702553E+03 -0.18631802402E+01  0.26601733339E+03  0.12500000000E+03 0.  0.
         21    1    1    2  503  502  0.88760061975E+02  0.40533930680E+02 -0.29148770841E+02  0.10183810181E+03  0.00000000000E+00 0.  1.
         21    1    1    2  504  501  0.11465615671E+03  0.76763094851E+02  0.15212381261E+03  0.20537833714E+03  0.00000000000E+00 0. -1.
<mgrwt>
<rscale>  4 0.19832482E+03</rscale>
<asrwt>0</asrwt>
<pdfrwt beam="1">  1       21 0.53411202E-01 0.19832482E+03</pdfrwt>
<pdfrwt beam="2">  1       21 0.34778609E-01 0.19832482E+03</pdfrwt>
<totfact> 0.26358657E+04</totfact>
</mgrwt>
</event>
<event>
 5    0  0.1200001E+000  0.2736570E+03  0.7546771E-02  0.1099205E+00
         21   -1    0    0  502  501  0.00000000000E+00  0.00000000000E+00  0.78906887494E+03  0.78906887494E+03  0.00000000000E+00 0. -1.
         21   -1    0    0  503  502 -0.00000000000E+00 -0.00000000000E+00 -0.34325806779E+03  0.34325806779E+03  0.00000000000E+00 0.  1.
         25    1    1    2    0    0  0.75242189313E+02 -0.23152049446E+03 -0.26375528446E+03  0.38007233060E+03  0.12500000000E+03 0.  0.
         21    1    1    2  503  504  0.80950822717E+01  0.41952440124E+02  0.12026171032E+03  0.12762608103E+03  0.00000000000E+00 0. -1.
         21    1    1    2  504  501 -0.83337271585E+02  0.18956805434E+03  0.58930438129E+03  0.62462853110E+03  0.00000000000E+00 0. -1.
<mgrwt>
<rscale>  4 0.27365695E+03</rscale>
<asrwt>0</asrwt>
<pdfrwt beam="1">  1       21 0.12139521E+00 0.27365695E+03</pdfrwt>
<pdfrwt beam="2">  1       21 0.52808934E-01 0.27365695E+03</pdfrwt>
<totfact> 0.16331964E+03</totfact>
</mgrwt>
</event>
<event>
 5    0  0.1200001E+000  0.2295501E+03  0.7546771E-02  0.1126957E+00
         21   -1    0    0  503  501  0.00000000000E+00  0.00000000000E+00  0.28268132304E+03  0.28268132304E+03  0.00000000000E+00 0. -1.
         21   -1    0    0  504  502 -0.00000000000E+00 -0.00000000000E+00 -0.21751701523E+03  0.21751701523E+03  0.00000000000E+00 0. -1.
         25    1    1    2    0    0 -0.82759524696E+02 -0.19686022295E+03  0.10405784340E+02  0.24766179894E+03  0.12500000000E+03 0.  0.
         21    1    1    2  503  502  0.73890308448E+02  0.16279074831E+03 -0.97562572231E+01  0.17904130800E+03  0.00000000000E+00 0. -1.
         21    1    1    2  504  501  0.88692162485E+01  0.34069474640E+02  0.64514780697E+02  0.73495231325E+02  0.00000000000E+00 0.  1.
<mgrwt>
<rscale>  4 0.22955012E+03</rscale>
<asrwt>0</asrwt>
<pdfrwt beam="1">  1       21 0.43489434E-01 0.22955012E+03</pdfrwt>
<pdfrwt beam="2">  1       21 0.33464156E-01 0.22955012E+03</pdfrwt>
<totfact> 0.42937375E+04</totfact>
</mgrwt>
</event>
<event>
 5    0  0.1200001E+000  0.2396015E+03  0.7546771E-02  0.1120059E+00
         21   -1    0    0  503  501  0.00000000000E+00  0.00000000000E+00  0.97567648834E+03  0.97567648834E+03  0.00000000000E+00 0. -1.
         21   -1    0    0  504  502 -0.00000000000E+00 -0.00000000000E+00 -0.18668881942E+03  0.18668881942E+03  0.00000000000E+00 0. -1.
         25    1    1    2    0    0  0.10923360699E+03  0.24823682955E+03  0.22671156489E+03  0.37493551192E+03  0.12500000000E+03 0.  0.
         21    1    1    2  503  502 -0.89818045471E+02 -0.16389060306E+03 -0.29635302931E+02  0.18922384164E+03  0.00000000000E+00 0. -1.
         21    1    1    2  504  501 -0.19415561518E+02 -0.84346226484E+02  0.59191140696E+03  0.59820595420E+03  0.00000000000E+00 0. -1.
<mgrwt>
<rscale>  4 0.23960153E+03</rscale>
<asrwt>0</asrwt>
<pdfrwt beam="1">  1       21 0.15010407E+00 0.23960153E+03</pdfrwt>
<pdfrwt beam="2">  1       21 0.28721357E-01 0.23960153E+03</pdfrwt>
<totfact> 0.33294673E+03</totfact>
</mgrwt>
</event>
<event>
 5    0  0.1200001E+000  0.2732833E+03  0.7546771E-02  0.1099415E+00
         21   -1    0    0  503  501  0.00000000000E+00  0.00000000000E+00  0.75079355462E+03  0.75079355462E+03  0.00000000000E+00 0.  1.
         21   -1    0    0  504  502 -0.00000000000E+00 -0.00000000000E+00 -0.17190008813E+04  0.17190008813E+04  0.00000000000E+00 0.  1.
         25    1    1    2    0    0  0.12913443877E+03  0.16775573768E+03 -0.10562084031E+04  0.10844440427E+04  0.12500000000E+03 0.  0.
         21    1    1    2  503  502 -0.18529454504E+03 -0.29713762943E+03 -0.59366347927E+03  0.68924681056E+03  0.00000000000E+00 0.  1.
         21    1    1    2  504  501  0.56160106279E+02  0.12938189175E+03  0.68166455567E+03  0.69610358275E+03  0.00000000000E+00 0.  1.
<mgrwt>
<rscale>  4 0.27328334E+03</rscale>
<asrwt>0</asrwt>
<pdfrwt beam="1">  1       21 0.11550670E+00 0.27328334E+03</pdfrwt>
<pdfrwt beam="2">  1       21 0.26446167E+00 0.27328334E+03</pdfrwt>
<totfact> 0.28224070E+01</totfact>
</mgrwt>
</event>
<event>
 5    0  0.1200001E+000  0.2387737E+03  0.7546771E-02  0.1120612E+00
         21   -1    0    0  503  501  0.00000000000E+00  0.00000000000E+00  0.23916881728E+03  0.23916881728E+03  0.00000000000E+00 0. -1.
         21   -1    0    0  501  502 -0.00000000000E+00 -0.00000000000E+00 -0.68854597804E+03  0.68854597804E+03  0.00000000000E+00 0. -1.
         25    1    1    2    0    0 -0.75077555382E+02 -0.21614612533E+03 -0.45269821126E+03  0.52241406690E+03  0.12500000000E+03 0.  0.
         21    1    1    2  503  504  0.15124254452E+03  0.36903174821E+02  0.10285238908E+03  0.18658715263E+03  0.00000000000E+00 0. -1.
         21    1    1    2  504  502 -0.76164989140E+02  0.17924295050E+03 -0.99531338583E+02  0.21871357579E+03  0.00000000000E+00 0. -1.
<mgrwt>
<rscale>  4 0.23877366E+03</rscale>
<asrwt>0</asrwt>
<pdfrwt beam="1">  1       21 0.36795203E-01 0.23877366E+03</pdfrwt>
<pdfrwt beam="2">  1       21 0.10593015E+00 0.23877366E+03</pdfrwt>
<totfact> 0.49248025E+03</totfact>
</mgrwt>
</event>
<event>
 5    0  0.1200001E+000  0.3184643E+03  0.7546771E-02  0.1076358E+00
         21   -1    0    0  503  501  0.00000000000E+00  0.00000000000E+00  0.92877061068E+03  0.92877061068E+03  0.00000000000E+00 0. -1.
         21   -1    0    0  501  502 -0.00000000000E+00 -0.00000000000E+00 -0.17929571733E+03  0.17929571733E+03  0.00000000000E+00 0. -1.
         25    1    1    2    0    0 -0.15995440569E+03  0.19064630777E+03  0.21204645833E+03  0.35002875176E+03  0.12500000000E+03 0.  0.
         21    1    1    2  503  504  0.24227917429E+03 -0.20991158085E+03  0.58051441856E+03  0.66314331801E+03  0.00000000000E+00 0. -1.
         21    1    1    2  504  502 -0.82324768594E+02  0.19265273088E+02 -0.43085983533E+02  0.94894258247E+02  0.00000000000E+00 0. -1.
<mgrwt>
<rscale>  4 0.31846432E+03</rscale>
<asrwt>0</asrwt>
<pdfrwt beam="1">  1       21 0.14288778E+00 0.31846432E+03</pdfrwt>
<pdfrwt beam="2">  1       21 0.27583957E-01 0.31846432E+03</pdfrwt>
<totfact> 0.39097591E+03</totfact>
</mgrwt>
</event>
<event>
 5    0  0.1200001E+000  0.2515389E+03  0.7546771E-02  0.1112336E+00
         21   -1    0    0  502  501  0.00000000000E+00  0.00000000000E+00  0.28869781160E+03  0.28869781160E+03  0.00000000000E+00 0.  1.
         21   -1    0    0  503  502 -0.00000000000E+00 -0.00000000000E+00 -0.88123965215E+03  0.88123965215E+03  0.00000000000E+00 0.  1.
         25    1    1    2    0    0  0.20743052381E+03 -0.74613306416E+02 -0.68601781566E+03  0.73132756758E+03  0.12500000000E+03 0.  0.
         21    1    1    2  503  504  0.33295866171E+02  0.16587910134E+03  0.57337123387E+02  0.17863940407E+03  0.00000000000E+00 0.  1.
         21    1    1    2  504  501 -0.24072638998E+03 -0.91265794929E+02  0.36138851717E+02  0.25997049210E+03  0.00000000000E+00 0.  1.
<mgrwt>
<rscale>  4 0.25153886E+03</rscale>
<asrwt>0</asrwt>
<pdfrwt beam="1">  1       21 0.44415049E-01 0.25153886E+03</pdfrwt>
<pdfrwt beam="2">  1       21 0.13557533E+00 0.25153886E+03</pdfrwt>
<totfact> 0.17992606E+03</totfact>
</mgrwt>
</event>
<event>
 5    0  0.1200001E+000  0.2920393E+03  0.7546771E-02  0.1089289E+00
         21   -1    0    0  502  501  0.00000000000E+00  0.00000000000E+00  0.27073578961E+04  0.27073578961E+04  0.00000000000E+00 0. -1.
         21   -1    0    0  504  502 -0.00000000000E+00 -0.00000000000E+00 -0.41884141584E+02  0.41884141584E+02  0.00000000000E+00 0. -1.
         25    1    1    2    0    0  0.26254893308E+03  0.63249573102E+02  0.66717833357E+03  0.73053704871E+03  0.12500000000E+03 0.  0.
         21    1    1    2  503  501 -0.24748951523E+03 -0.37576217848E+02  0.16183738598E+04  0.16376193033E+04  0.00000000000E+00 0. -1.
         21    1    1    2  504  503 -0.15059417856E+02 -0.25673355255E+02  0.37992156119E+03  0.38108568576E+03  0.00000000000E+00 0. -1.
<mgrwt>
<rscale>  4 0.29203925E+03</rscale>
<asrwt>0</asrwt>
<pdfrwt beam="1">  1       21 0.41651646E+00 0.29203925E+03</pdfrwt>
<pdfrwt beam="2">  1       21 0.64437162E-02 0.29203925E+03</pdfrwt>
<totfact> 0.10578950E+03</totfact>
</mgrwt>
</event>
<event>
 5    0  0.1200001E+000  0.2426085E+03  0.7546771E-02  0.1118067E+00
         21   -1    0    0  503  501  0.00000000000E+00  0.00000000000E+00  0.14518069717E+04  0.14518069717E+04  0.00000000000E+00 0.  1.
         21   -1    0    0  504  502 -0.00000000000E+00 -0.00000000000E+00 -0.35682252874E+03  0.35682252874E+03  0.00000000000E+00 0.  1.
         25    1    1    2    0    0 -0.12468735548E+03  0.16091603829E+03 -0.23566908022E+03  0.33556791171E+03  0.12500000000E+03 0.  0.
         21    1    1    2  503  502  0.14731213574E+03 -0.16817372525E+03  0.10468836058E+03  0.24686619867E+03  0.00000000000E+00 0.  1.
         21    1    1    2  504  501 -0.22624780262E+02  0.72576869620E+01  0.12259651626E+04  0.12261953901E+04  0.00000000000E+00 0.  1.
<mgrwt>
<rscale>  4 0.24260854E+03</rscale>
<asrwt>0</asrwt>
<pdfrwt beam="1">  1       21 0.22335492E+00 0.24260854E+03</pdfrwt>
<pdfrwt beam="2">  1       21 0.54895774E-01 0.24260854E+03</pdfrwt>
<totfact> 0.28299387E+02</totfact>
</mgrwt>
</event>
<event>
 5    0  0.1200001E+000  0.2465409E+03  0.7546771E-02  0.1115511E+00
         21   -1    0    0  503  501  0.00000000000E+00  0.00000000000E+00  0.17306731418E+03  0.17306731418E+03  0.00000000000E+00 0. -1.
         21   -1    0    0  501  502 -0.00000000000E+00 -0.00000000000E+00 -0.14930358875E+04  0.14930358875E+04  0.00000000000E+00 0. -1.
         25    1    1    2    0    0 -0.24091024144E+01 -0.20632513716E+03 -0.88415107833E+03  0.91647367409E+03  0.12500000000E+03 0.  0.
         21    1    1    2  503  504 -0.21679795729E+02 -0.13300445201E+02  0.13508836378E+03  0.13746192715E+03  0.00000000000E+00 0. -1.
         21    1    1    2  504  502  0.24088898143E+02  0.21962558236E+03 -0.57090585874E+03  0.61216760040E+03  0.00000000000E+00 0. -1.
<mgrwt>
<rscale>  4 0.24654090E+03</rscale>
<asrwt>0</asrwt>
<pdfrwt beam="1">  1       21 0.26625740E-01 0.24654090E+03</pdfrwt>
<pdfrwt beam="2">  1       21 0.22969783E+00 0.24654090E+03</pdfrwt>
<totfact> 0.11142046E+03</totfact>
</mgrwt>
</event>
<event>
 5    0  0.1200001E+000  0.2368583E+03  0.7546771E-02  0.1121904E+00
         21   -1    0    0  502  501  0.00000000000E+00  0.00000000000E+00  0.45865402657E+03  0.45865402657E+03  0.00000000000E+00 0. -1.
         21   -1    0    0  503  502 -0.00000000000E+00 -0.00000000000E+00 -0.18002476487E+03  0.18002476487E+03  0.00000000000E+00 0. -1.
         25    1    1    2    0    0  0.14338566236E+03  0.14881701269E+03 -0.14547510178E+02  0.24195574283E+03  0.12500000000E+03 0.  0.
         21    1    1    2  503  504  0.91003670820E+01 -0.19212706596E+02 -0.17252173562E+02  0.27378500112E+02  0.00000000000E+00 0. -1.
         21    1    1    2  504  501 -0.15248602944E+03 -0.12960430610E+03  0.31042894544E+03  0.36934454849E+03  0.00000000000E+00 0. -1.
<mgrwt>
<rscale>  4 0.23685828E+03</rscale>
<asrwt>0</asrwt>
<pdfrwt beam="1">  1       21 0.70562158E-01 0.23685828E+03</pdfrwt>
<pdfrwt beam="2">  1       21 0.27696118E-01 0.23685828E+03</pdfrwt>
<totfact> 0.22104342E+04</totfact>
</mgrwt>
</event>
<event>
 5    0  0.1200001E+000  0.2657081E+03  0.7546771E-02  0.1103761E+00
         21   -1    0    0  503  501  0.00000000000E+00  0.00000000000E+00  0.76598866132E+02  0.76598866132E+02  0.00000000000E+00 0.  1.
         21   -1    0    0  501  502 -0.00000000000E+00 -0.00000000000E+00 -0.93280436153E+03  0.93280436153E+03  0.00000000000E+00 0.  1.
         25    1    1    2    0    0 -0.22300209533E+03 -0.72428414687E+02 -0.49803337964E+03  0.56448034245E+03  0.12500000000E+03 0.  0.
         21    1    1    2  503  504  0.11344982245E+03 -0.68099428956E+01 -0.91406851042E+02  0.14585077975E+03  0.00000000000E+00 0.  1.
         21    1    1    2  504  502  0.10955227288E+03  0.79238357582E+02 -0.26676526472E+03  0.29907210546E+03  0.00000000000E+00 0.  1.
<mgrwt>
<rscale>  4 0.26570813E+03</rscale>
<asrwt>0</asrwt>
<pdfrwt beam="1">  1       21 0.11784441E-01 0.26570813E+03</pdfrwt>
<pdfrwt beam="2">  1       21 0.14350836E+00 0.26570813E+03</pdfrwt>
<totfact> 0.19488414E+04</totfact>
</mgrwt>
</event>
<event>
 5    0  0.1200001E+000  0.3052260E+03  0.7546771E-02  0.1082657E+00
         21   -1    0    0  503  501  0.00000000000E+00  0.00000000000E+00  0.81071639144E+03  0.81071639144E+03  0.00000000000E+00 0. -1.
         21   -1    0    0  504  502 -0.00000000000E+00 -0.00000000000E+00 -0.36918367076E+03  0.36918367076E+03  0.00000000000E+00 0.  1.
         25    1    1    2    0    0  0.26401449048E+03  0.79367070098E+02 -0.26010481761E+03  0.39910186562E+03  0.12500000000E+03 0.  0.
         21    1    1    2  503  502 -0.29411247135E+03 -0.72759066650E+02  0.56909784505E+03  0.64472349486E+03  0.00000000000E+00 0. -1.
         21    1    1    2  504  501  0.30097980875E+02 -0.66080034483E+01  0.13253969324E+03  0.13607470172E+03  0.00000000000E+00 0. -1.
<mgrwt>
<rscale>  4 0.30522605E+03</rscale>
<asrwt>0</asrwt>
<pdfrwt beam="1">  1       21 0.12472560E+00 0.30522605E+03</pdfrwt>
<pdfrwt beam="2">  1       21 0.56797488E-01 0.30522605E+03</pdfrwt>
<totfact> 0.12791968E+03</totfact>
</mgrwt>
</event>
<event>
 5    0  0.1200001E+000  0.3331634E+03  0.7546771E-02  0.1069746E+00
         21   -1    0    0  503  501  0.00000000000E+00  0.00000000000E+00  0.93926873158E+03  0.93926873158E+03  0.00000000000E+00 0.  1.
         21   -1    0    0  501  502 -0.00000000000E+00 -0.00000000000E+00 -0.64185115291E+03  0.64185115291E+03  0.00000000000E+00 0. -1.
         25    1    1    2    0    0 -0.17714639250E+03 -0.31811450061E+03 -0.47191041933E+03  0.60901734272E+03  0.12500000000E+03 0.  0.
         21    1    1    2  503  504  0.68723737461E+02  0.13584730549E+03  0.74295372766E+03  0.75839151099E+03  0.00000000000E+00 0.  1.
         21    1    1    2  504  502  0.10842265504E+03  0.18226719511E+03  0.26374270332E+02  0.21371103078E+03  0.00000000000E+00 0. -1.
<mgrwt>
<rscale>  4 0.33316341E+03</rscale>
<asrwt>0</asrwt>
<pdfrwt beam="1">  1       21 0.14450288E+00 0.33316341E+03</pdfrwt>
<pdfrwt beam="2">  1       21 0.98746331E-01 0.33316341E+03</pdfrwt>
<totfact> 0.24474570E+02</totfact>
</mgrwt>
</event>
<event>
 5    0  0.2365926E+000  0.2612470E+03  0.7546771E-02  0.1106396E+00
         21   -1    0    0  503  501  0.00000000000E+00  0.00000000000E+00  0.28001434478E+03  0.28001434478E+03  0.00000000000E+00 0.  1.
         21   -1    0    0  504  502 -0.00000000000E+00 -0.00000000000E+00 -0.24451008931E+03  0.24451008931E+03  0.00000000000E+00 0.  1.
         25    1    1    2    0    0 -0.51751787403E+01  0.22386025763E+03 -0.28395814633E+02  0.25801457267E+03  0.12500000000E+03 0.  0.
         21    1    1    2  503  502  0.21676674110E+02 -0.23567749316E+03  0.49961774666E+02  0.24188827568E+03  0.00000000000E+00 0.  1.
         21    1    1    2  504  501 -0.16501495370E+02  0.11817235537E+02  0.13938295436E+02  0.24621585750E+02  0.00000000000E+00 0. -1.
<mgrwt>
<rscale>  4 0.26124699E+03</rscale>
<asrwt>0</asrwt>
<pdfrwt beam="1">  1       21 0.43079130E-01 0.26124699E+03</pdfrwt>
<pdfrwt beam="2">  1       21 0.37616937E-01 0.26124699E+03</pdfrwt>
<totfact> 0.34184128E+04</totfact>
</mgrwt>
</event>
<event>
 5    0  0.1200001E+000  0.3582717E+03  0.7546771E-02  0.1059270E+00
         21   -1    0    0  503  501  0.00000000000E+00  0.00000000000E+00  0.53729036751E+03  0.53729036751E+03  0.00000000000E+00 0.  1.
         21   -1    0    0  501  502 -0.00000000000E+00 -0.00000000000E+00 -0.11881327942E+04  0.11881327942E+04  0.00000000000E+00 0.  1.
         25    1    1    2    0    0 -0.24630442580E+03  0.21366659982E+03 -0.58516928785E+03  0.68144506858E+03  0.12500000000E+03 0.  0.
         21    1    1    2  503  504  0.15252958342E+02  0.47011695881E+02  0.43293364279E+03  0.43574567278E+03  0.00000000000E+00 0.  1.
         21    1    1    2  504  502  0.23105146746E+03 -0.26067829570E+03 -0.49860678164E+03  0.60823242035E+03  0.00000000000E+00 0.  1.
<mgrwt>
<rscale>  4 0.35827172E+03</rscale>
<asrwt>0</asrwt>
<pdfrwt beam="1">  1       21 0.82660058E-01 0.35827172E+03</pdfrwt>
<pdfrwt beam="2">  1       21 0.18278966E+00 0.35827172E+03</pdfrwt>
<totfact> 0.19038793E+02</totfact>
</mgrwt>
</event>
<event>
 5    0  0.1200001E+000  0.2287781E+03  0.7546771E-02  0.1127503E+00
         21   -1    0    0  503  501  0.00000000000E+00  0.00000000000E+00  0.94021520824E+03  0.94021520824E+03  0.00000000000E+00 0.  1.
         21   -1    0    0  501  502 -0.00000000000E+00 -0.00000000000E+00 -0.45690830860E+03  0.45690830860E+03  0.00000000000E+00 0.  1.
         25    1    1    2    0    0  0.68368392652E+02 -0.20685633941E+03  0.18380241358E+03  0.31124284651E+03  0.12500000000E+03 0.  0.
         21    1    1    2  503  504  0.66403252658E+01  0.33092062001E+02  0.66946722041E+03  0.67031749021E+03  0.00000000000E+00 0.  1.
         21    1    1    2  504  502 -0.75008717918E+02  0.17376427741E+03 -0.36996273434E+03  0.41556318011E+03  0.00000000000E+00 0.  1.
<mgrwt>
<rscale>  4 0.22877809E+03</rscale>
<asrwt>0</asrwt>
<pdfrwt beam="1">  1       21 0.14464849E+00 0.22877809E+03</pdfrwt>
<pdfrwt beam="2">  1       21 0.70293586E-01 0.22877809E+03</pdfrwt>
<totfact> 0.58120998E+02</totfact>
</mgrwt>
</event>
<event>
 5    0  0.1200001E+000  0.3588342E+03  0.7546771E-02  0.1059046E+00
         21   -1    0    0  503  501  0.00000000000E+00  0.00000000000E+00  0.52313961970E+03  0.52313961970E+03  0.00000000000E+00 0. -1.
         21   -1    0    0  501  502 -0.00000000000E+00 -0.00000000000E+00 -0.16706674434E+04  0.16706674434E+04  0.00000000000E+00 0.  1.
         25    1    1    2    0    0 -0.39000808438E+02  0.32374076395E+03 -0.87653775716E+03  0.94354257192E+03  0.12500000000E+03 0.  0.
         21    1    1    2  503  504  0.18374796365E+02  0.24635208634E+02  0.44905445215E+03  0.45010490737E+03  0.00000000000E+00 0. -1.
         21    1    1    2  504  502  0.20626012073E+02 -0.34837597259E+03 -0.72004451866E+03  0.80015958377E+03  0.00000000000E+00 0.  1.
<mgrwt>
<rscale>  4 0.35883423E+03</rscale>
<asrwt>0</asrwt>
<pdfrwt beam="1">  1       21 0.80483018E-01 0.35883423E+03</pdfrwt>
<pdfrwt beam="2">  1       21 0.25702576E+00 0.35883423E+03</pdfrwt>
<totfact> 0.67997853E+01</totfact>
</mgrwt>
</event>
<event>
 5    0  0.1200001E+000  0.2453926E+03  0.7546771E-02  0.1116252E+00
         21   -1    0    0  502  501  0.00000000000E+00  0.00000000000E+00  0.72473716755E+02  0.72473716755E+02  0.00000000000E+00 0. -1.
         21   -1    0    0  504  502 -0.00000000000E+00 -0.00000000000E+00 -0.15373820794E+04  0.15373820794E+04  0.00000000000E+00 0. -1.
         25    1    1    2    0    0 -0.16474363919E+03 -0.15637562031E+03 -0.12025911548E+04  0.12302212349E+04  0.12500000000E+03 0.  0.
         21    1    1    2  503  501  0.12231404195E+03  0.16958225150E+03 -0.14572762376E+03  0.25486350309E+03  0.00000000000E+00 0. -1.
         21    1    1    2  504  503  0.42429597245E+02 -0.13206631194E+02 -0.11658958413E+03  0.12477105817E+03  0.00000000000E+00 0.  1.
<mgrwt>
<rscale>  4 0.24539259E+03</rscale>
<asrwt>0</asrwt>
<pdfrwt beam="1">  1       21 0.11149803E-01 0.24539259E+03</pdfrwt>
<pdfrwt beam="2">  1       21 0.23652031E+00 0.24539259E+03</pdfrwt>
<totfact> 0.50979777E+03</totfact>
</mgrwt>
</event>
<event>
 5    0  0.1200001E+000  0.2390453E+03  0.7546771E-02  0.1120430E+00
         21   -1    0    0  503  501  0.00000000000E+00  0.00000000000E+00  0.14558293139E+04  0.14558293139E+04  0.00000000000E+00 0.  1.
         21   -1    0    0  504  502 -0.00000000000E+00 -0.00000000000E+00 -0.20430166074E+03  0.20430166074E+03  0.00000000000E+00 0.  1.
         25    1    1    2    0    0 -0.16359287998E+03 -0.12476331346E+03 -0.12089372835E+03  0.26938598390E+03  0.12500000000E+03 0.  0.
         21    1    1    2  503  502  0.14905018503E+03  0.99882218857E+02  0.91553406098E+03  0.93294964072E+03  0.00000000000E+00 0.  1.
         21    1    1    2  504  501  0.14542694948E+02  0.24881094606E+02  0.45688732050E+03  0.45779534999E+03  0.00000000000E+00 0.  1.
<mgrwt>
<rscale>  4 0.23904527E+03</rscale>
<asrwt>0</asrwt>
<pdfrwt beam="1">  1       21 0.22397373E+00 0.23904527E+03</pdfrwt>
<pdfrwt beam="2">  1       21 0.31431026E-01 0.23904527E+03</pdfrwt>
<totfact> 0.88001535E+02</totfact>
</mgrwt>
</event>
<event>
 5    0  0.1200001E+000  0.2301691E+03  0.7546771E-02  0.1126521E+00
         21   -1    0    0  502  501  0.00000000000E+00  0.00000000000E+00  0.10808724668E+03  0.10808724668E+03  0.00000000000E+00 0.  1.
         21   -1    0    0  503  502 -0.00000000000E+00 -0.00000000000E+00 -0.12719081921E+04  0.12719081921E+04  0.00000000000E+00 0. -1.
         25    1    1    2    0    0  0.70186971203E+02  0.20454153784E+03 -0.10314205597E+04  0.10612336324E+04  0.12500000000E+03 0.  0.
         21    1    1    2  503  504  0.18677080814E+02 -0.35182812880E+02 -0.12074999758E+03  0.12715040537E+03  0.00000000000E+00 0. -1.
         21    1    1    2  504  501 -0.88864052017E+02 -0.16935872496E+03 -0.11650388201E+02  0.19161140104E+03  0.00000000000E+00 0.  1.
<mgrwt>
<rscale>  4 0.23016906E+03</rscale>
<asrwt>0</asrwt>
<pdfrwt beam="1">  1       21 0.16628807E-01 0.23016906E+03</pdfrwt>
<pdfrwt beam="2">  1       21 0.19567818E+00 0.23016906E+03</pdfrwt>
<totfact> 0.45017576E+03</totfact>
</mgrwt>
</event>
<event>
 5    0  0.1200001E+000  0.2444976E+03  0.7546771E-02  0.1116832E+00
         21   -1    0    0  502  501  0.00000000000E+00  0.00000000000E+00  0.75111161348E+03  0.75111161348E+03  0.00000000000E+00 0. -1.
         21   -1    0    0  503  502 -0.00000000000E+00 -0.00000000000E+00 -0.16355897417E+03  0.16355897417E+03  0.00000000000E+00 0.  1.
         25    1    1    2    0    0 -0.10642862007E+03 -0.18341667203E+03 -0.39292193577E+02  0.24927415274E+03  0.12500000000E+03 0.  0.
         21    1    1    2  503  504  0.21598661436E+02  0.26328487624E+01  0.40451411313E+02  0.45932023095E+02  0.00000000000E+00 0. -1.
         21    1    1    2  504  501  0.84829958637E+02  0.18078382327E+03  0.58639342157E+03  0.61946441181E+03  0.00000000000E+00 0. -1.
<mgrwt>
<rscale>  4 0.24449757E+03</rscale>
<asrwt>0</asrwt>
<pdfrwt beam="1">  1       21 0.11555563E+00 0.24449757E+03</pdfrwt>
<pdfrwt beam="2">  1       21 0.25162920E-01 0.24449757E+03</pdfrwt>
<totfact> 0.83692627E+03</totfact>
</mgrwt>
</event>
<event>
 5    0  0.1200001E+000  0.2449835E+03  0.7546771E-02  0.1116517E+00
         21   -1    0    0  503  501  0.00000000000E+00  0.00000000000E+00  0.75744670158E+02  0.75744670158E+02  0.00000000000E+00 0.  1.
         21   -1    0    0  501  502 -0.00000000000E+00 -0.00000000000E+00 -0.15761099065E+04  0.15761099065E+04  0.00000000000E+00 0.  1.
         25    1    1    2    0    0  0.18722392928E+03 -0.10345833209E+03 -0.13582444387E+04  0.13806554174E+04  0.12500000000E+03 0.  0.
         21    1    1    2  503  504 -0.26287983324E+02 -0.10523065708E+02 -0.34961727559E+00  0.28318107482E+02  0.00000000000E+00 0. -1.
         21    1    1    2  504  502 -0.16093594596E+03  0.11398139780E+03 -0.14177118030E+03  0.24288105177E+03  0.00000000000E+00 0.  1.
<mgrwt>
<rscale>  4 0.24498352E+03</rscale>
<asrwt>0</asrwt>
<pdfrwt beam="1">  1       21 0.11653028E-01 0.24498352E+03</pdfrwt>
<pdfrwt beam="2">  1       21 0.24247842E+00 0.24498352E+03</pdfrwt>
<totfact> 0.43377198E+03</totfact>
</mgrwt>
</event>
<event>
 5    0  0.1200001E+000  0.3801202E+03  0.7546771E-02  0.1050889E+00
         21   -1    0    0  503  501  0.00000000000E+00  0.00000000000E+00  0.58309092130E+03  0.58309092130E+03  0.00000000000E+00 0.  1.
         21   -1    0    0  501  502 -0.00000000000E+00 -0.00000000000E+00 -0.14019293957E+04  0.14019293957E+04  0.00000000000E+00 0.  1.
         25    1    1    2    0    0  0.23977612449E+03  0.24748259693E+03 -0.35274614403E+03  0.50871904603E+03  0.12500000000E+03 0.  0.
         21    1    1    2  503  504  0.19463517668E+02  0.99464244341E+01  0.47048340824E+03  0.47099086754E+03  0.00000000000E+00 0.  1.
         21    1    1    2  504  502 -0.25923964216E+03 -0.25742902137E+03 -0.93657573864E+03  0.10053104035E+04  0.00000000000E+00 0.  1.
<mgrwt>
<rscale>  4 0.38012017E+03</rscale>
<asrwt>0</asrwt>
<pdfrwt beam="1">  1       21 0.89706297E-01 0.38012017E+03</pdfrwt>
<pdfrwt beam="2">  1       21 0.21568144E+00 0.38012017E+03</pdfrwt>
<totfact> 0.93710672E+01</totfact>
</mgrwt>
</event>
<event>
 5    0  0.1200001E+000  0.2387388E+03  0.7546771E-02  0.1120636E+00
         21   -1    0    0  503  501  0.00000000000E+00  0.00000000000E+00  0.13767217062E+03  0.13767217062E+03  0.00000000000E+00 0. -1.
         21   -1    0    0  504  502 -0.00000000000E+00 -0.00000000000E+00 -0.52634635814E+03  0.52634635814E+03  0.00000000000E+00 0. -1.
         25    1    1    2    0    0 -0.20255885149E+03  0.18469548674E+02 -0.38321571135E+03  0.45149805533E+03  0.12500000000E+03 0.  0.
         21    1    1    2  503  502  0.56801119776E+02  0.27286519143E+00  0.25620114279E+02  0.62312373722E+02  0.00000000000E+00 0.  1.
         21    1    1    2  504  501  0.14575773172E+03 -0.18742413865E+02 -0.31078590456E+02  0.15020809971E+03  0.00000000000E+00 0. -1.
<mgrwt>
<rscale>  4 0.23873880E+03</rscale>
<asrwt>0</asrwt>
<pdfrwt beam="1">  1       21 0.21180334E-01 0.23873880E+03</pdfrwt>
<pdfrwt beam="2">  1       21 0.80976362E-01 0.23873880E+03</pdfrwt>
<totfact> 0.27068271E+04</totfact>
</mgrwt>
</event>
<event>
 5    0  0.1200001E+000  0.2571888E+03  0.7546771E-02  0.1108844E+00
         21   -1    0    0  503  501  0.00000000000E+00  0.00000000000E+00  0.34723503030E+04  0.34723503030E+04  0.00000000000E+00 0. -1.
         21   -1    0    0  501  502 -0.00000000000E+00 -0.00000000000E+00 -0.64382533615E+03  0.64382533615E+03  0.00000000000E+00 0.  1.
         25    1    1    2    0    0 -0.35953871690E+02 -0.22338428385E+03 -0.60011902231E+03  0.65342257391E+03  0.12500000000E+03 0.  0.
         21    1    1    2  503  504  0.57565917992E+02  0.25948219146E+02  0.28550017534E+04  0.28556999416E+04  0.00000000000E+00 0. -1.
         21    1    1    2  504  502 -0.21612046302E+02  0.19743606471E+03  0.57364223578E+03  0.60705312359E+03  0.00000000000E+00 0.  1.
<mgrwt>
<rscale>  4 0.25718882E+03</rscale>
<asrwt>0</asrwt>
<pdfrwt beam="1">  1       21 0.53420773E+00 0.25718882E+03</pdfrwt>
<pdfrwt beam="2">  1       21 0.99050054E-01 0.25718882E+03</pdfrwt>
<totfact> 0.78817261E-01</totfact>
</mgrwt>
</event>
<event>
 5    0  0.1200001E+000  0.2423135E+03  0.7546771E-02  0.1118261E+00
         21   -1    0    0  503  501  0.00000000000E+00  0.00000000000E+00  0.29202896977E+04  0.29202896977E+04  0.00000000000E+00 0. -1.
         21   -1    0    0  501  502 -0.00000000000E+00 -0.00000000000E+00 -0.84896150709E+02  0.84896150709E+02  0.00000000000E+00 0. -1.
         25    1    1    2    0    0 -0.19495242780E+03 -0.74872040505E+02  0.11799437089E+03  0.27048094779E+03  0.12500000000E+03 0.  0.
         21    1    1    2  503  504  0.43793529714E+02 -0.65214220409E+02  0.36838008221E+03  0.37666251839E+03  0.00000000000E+00 0. -1.
         21    1    1    2  504  502  0.15115889808E+03  0.14008626091E+03  0.23490190939E+04  0.23580423822E+04  0.00000000000E+00 0. -1.
<mgrwt>
<rscale>  4 0.24231353E+03</rscale>
<asrwt>0</asrwt>
<pdfrwt beam="1">  1       21 0.44927526E+00 0.24231353E+03</pdfrwt>
<pdfrwt beam="2">  1       21 0.13060949E-01 0.24231353E+03</pdfrwt>
<totfact> 0.19598384E+02</totfact>
</mgrwt>
</event>
<event>
 5    0  0.1200001E+000  0.2694186E+03  0.7546771E-02  0.1101613E+00
         21   -1    0    0  503  501  0.00000000000E+00  0.00000000000E+00  0.57697475908E+03  0.57697475908E+03  0.00000000000E+00 0.  1.
         21   -1    0    0  504  502 -0.00000000000E+00 -0.00000000000E+00 -0.39610003272E+03  0.39610003272E+03  0.00000000000E+00 0.  1.
         25    1    1    2    0    0  0.10641203344E+03  0.21363023681E+03 -0.31932753417E+03  0.41779956082E+03  0.12500000000E+03 0.  0.
         21    1    1    2  503  502 -0.90751178341E+02 -0.18731451334E+03  0.45854385405E+03  0.50357220869E+03  0.00000000000E+00 0.  1.
         21    1    1    2  504  501 -0.15660855102E+02 -0.26315723466E+02  0.41658406475E+02  0.51703022292E+02  0.00000000000E+00 0.  1.
<mgrwt>
<rscale>  4 0.26941863E+03</rscale>
<asrwt>0</asrwt>
<pdfrwt beam="1">  1       21 0.88765348E-01 0.26941863E+03</pdfrwt>
<pdfrwt beam="2">  1       21 0.60938466E-01 0.26941863E+03</pdfrwt>
<totfact> 0.25661116E+03</totfact>
</mgrwt>
</event>
<event>
 5    0  0.1200001E+000  0.2754449E+03  0.7546771E-02  0.1098203E+00
         21   -1    0    0  503  501  0.00000000000E+00  0.00000000000E+00  0.18605365741E+04  0.18605365741E+04  0.00000000000E+00 0.  1.
         21   -1    0    0  504  502 -0.00000000000E+00 -0.00000000000E+00 -0.85611022600E+02  0.85611022600E+02  0.00000000000E+00 0.  1.
         25    1    1    2    0    0 -0.21939045404E+03  0.11192243423E+03  0.19060671203E+03  0.33558116944E+03  0.12500000000E+03 0.  0.
         21    1    1    2  503  502  0.23033975912E+03 -0.79232906172E+02  0.11858555181E+04  0.12106145414E+04  0.00000000000E+00 0.  1.
         21    1    1    2  504  501 -0.10949305076E+02 -0.32689528059E+02  0.39846332146E+03  0.39995188595E+03  0.00000000000E+00 0.  1.
<mgrwt>
<rscale>  4 0.27544489E+03</rscale>
<asrwt>0</asrwt>
<pdfrwt beam="1">  1       21 0.28623637E+00 0.27544489E+03</pdfrwt>
<pdfrwt beam="2">  1       21 0.13170928E-01 0.27544489E+03</pdfrwt>
<totfact> 0.18664528E+03</totfact>
</mgrwt>
</event>
<event>
 5    0  0.1200001E+000  0.2686034E+03  0.7546771E-02  0.1102082E+00
         21   -1    0    0  503  501  0.00000000000E+00  0.00000000000E+00  0.24899324268E+03  0.24899324268E+03  0.00000000000E+00 0.  1.
         21   -1    0    0  504  502 -0.00000000000E+00 -0.00000000000E+00 -0.56873398032E+03  0.56873398032E+03  0.00000000000E+00 0. -1.
         25    1    1    2    0    0  0.23339412476E+03 -0.22560500190E+02  0.60780507129E+02  0.27258221455E+03  0.12500000000E+03 0.  0.
         21    1    1    2  503  502 -0.23854162576E+03 -0.16798429337E+01 -0.42890781375E+03  0.49078186783E+03  0.00000000000E+00 0. -1.
         21    1    1    2  504  501  0.51475009962E+01  0.24240343124E+02  0.48386568977E+02  0.54363140625E+02  0.00000000000E+00 0.  1.
<mgrwt>
<rscale>  4 0.26860338E+03</rscale>
<asrwt>0</asrwt>
<pdfrwt beam="1">  1       21 0.38306653E-01 0.26860338E+03</pdfrwt>
<pdfrwt beam="2">  1       21 0.87497534E-01 0.26860338E+03</pdfrwt>
<totfact> 0.70169357E+03</totfact>
</mgrwt>
</event>
<event>
 5    0  0.1200001E+000  0.2767535E+03  0.7546771E-02  0.1097475E+00
         21   -1    0    0  503  501  0.00000000000E+00  0.00000000000E+00  0.13929441536E+03  0.13929441536E+03  0.00000000000E+00 0.  1.
         21   -1    0    0  501  502 -0.00000000000E+00 -0.00000000000E+00 -0.56951846785E+03  0.56951846785E+03  0.00000000000E+00 0.  1.
         25    1    1    2    0    0 -0.23101648007E+03 -0.49502396677E+02 -0.24546784630E+03  0.36290296900E+03  0.12500000000E+03 0.  0.
         21    1    1    2  503  504 -0.18486963664E+02 -0.21455921018E+02 -0.15991493322E+01  0.28366911196E+02  0.00000000000E+00 0.  1.
         21    1    1    2  504  502  0.24950344373E+03  0.70958317695E+02 -0.18315705686E+03  0.31754300301E+03  0.00000000000E+00 0.  1.
<mgrwt>
<rscale>  4 0.27675347E+03</rscale>
<asrwt>0</asrwt>
<pdfrwt beam="1">  1       21 0.21429910E-01 0.27675347E+03</pdfrwt>
<pdfrwt beam="2">  1       21 0.87618226E-01 0.27675347E+03</pdfrwt>
<totfact> 0.21700532E+04</totfact>
</mgrwt>
</event>
<event>
 5    0  0.1200001E+000  0.3721602E+03  0.7546771E-02  0.1053870E+00
         21   -1    0    0  503  501  0.00000000000E+00  0.00000000000E+00  0.86934163214E+03  0.86934163214E+03  0.00000000000E+00 0.  1.
         21   -1    0    0  504  502 -0.00000000000E+00 -0.00000000000E+00 -0.25312369931E+03  0.25312369931E+03  0.00000000000E+00 0.  1.
         25    1    1    2    0    0 -0.26788959413E+03 -0.22337967254E+03  0.16553387302E+03  0.40581988106E+03  0.12500000000E+03 0.  0.
         21    1    1    2  503  502  0.21904169706E+03  0.28025160482E+03  0.11670176624E+03  0.37435214611E+03  0.00000000000E+00 0.  1.
         21    1    1    2  504  501  0.48847897077E+02 -0.56871932287E+02  0.33398229357E+03  0.34229330427E+03  0.00000000000E+00 0.  1.
<mgrwt>
<rscale>  4 0.37216020E+03</rscale>
<asrwt>0</asrwt>
<pdfrwt beam="1">  1       21 0.13374486E+00 0.37216020E+03</pdfrwt>
<pdfrwt beam="2">  1       21 0.38942108E-01 0.37216020E+03</pdfrwt>
<totfact> 0.22744887E+03</totfact>
</mgrwt>
</event>
<event>
 5    0  0.1200001E+000  0.2573884E+03  0.7546771E-02  0.1108723E+00
         21   -1    0    0  503  501  0.00000000000E+00  0.00000000000E+00  0.19436644517E+03  0.19436644517E+03  0.00000000000E+00 0.  1.
         21   -1    0    0  504  502 -0.00000000000E+00 -0.00000000000E+00 -0.86258404733E+03  0.86258404733E+03  0.00000000000E+00 0.  1.
         25    1    1    2    0    0  0.16469557446E+03 -0.17470085380E+03 -0.61857938059E+03  0.67521142663E+03  0.12500000000E+03 0.  0.
         21    1    1    2  503  502  0.37138041371E+02  0.75727841831E+02 -0.11956426770E+03  0.14632004051E+03  0.00000000000E+00 0. -1.
         21    1    1    2  504  501 -0.20183361583E+03  0.98973011970E+02  0.69926046120E+02  0.23541902536E+03  0.00000000000E+00 0.  1.
<mgrwt>
<rscale>  4 0.25738843E+03</rscale>
<asrwt>0</asrwt>
<pdfrwt beam="1">  1       21 0.29902530E-01 0.25738843E+03</pdfrwt>
<pdfrwt beam="2">  1       21 0.13270524E+00 0.25738843E+03</pdfrwt>
<totfact> 0.41930354E+03</totfact>
</mgrwt>
</event>
<event>
 5    0  0.1200001E+000  0.4194640E+03  0.7546771E-02  0.1037241E+00
         21   -1    0    0  502  501  0.00000000000E+00  0.00000000000E+00  0.92990342506E+03  0.92990342506E+03  0.00000000000E+00 0.  1.
         21   -1    0    0  504  502 -0.00000000000E+00 -0.00000000000E+00 -0.35420644407E+03  0.35420644407E+03  0.00000000000E+00 0.  1.
         25    1    1    2    0    0  0.25421718837E+03 -0.41560283764E+02  0.57277544445E+01  0.28637640130E+03  0.12500000000E+03 0.  0.
         21    1    1    2  503  501 -0.52551983539E+03 -0.24640546123E+02  0.45562327416E+03  0.69596754368E+03  0.00000000000E+00 0.  1.
         21    1    1    2  504  503  0.27130264701E+03  0.66200829887E+02  0.11434595239E+03  0.30176592416E+03  0.00000000000E+00 0.  1.
<mgrwt>
<rscale>  4 0.41946395E+03</rscale>
<asrwt>0</asrwt>
<pdfrwt beam="1">  1       21 0.14306206E+00 0.41946395E+03</pdfrwt>
<pdfrwt beam="2">  1       21 0.54493299E-01 0.41946395E+03</pdfrwt>
<totfact> 0.92083091E+02</totfact>
</mgrwt>
</event>
<event>
 5    0  0.1200001E+000  0.2493274E+03  0.7546771E-02  0.1113731E+00
         21   -1    0    0  502  501  0.00000000000E+00  0.00000000000E+00  0.53337587135E+03  0.53337587135E+03  0.00000000000E+00 0.  1.
         21   -1    0    0  503  502 -0.00000000000E+00 -0.00000000000E+00 -0.17588336008E+04  0.17588336008E+04  0.00000000000E+00 0. -1.
         25    1    1    2    0    0 -0.20652616237E+03  0.69284029199E+02 -0.17076971040E+04  0.17260671283E+04  0.12500000000E+03 0.  0.
         21    1    1    2  503  504  0.16270216623E+03 -0.59463602046E+02  0.14493985117E+03  0.22586605615E+03  0.00000000000E+00 0.  1.
         21    1    1    2  504  501  0.43823996139E+02 -0.98204271528E+01  0.33729952342E+03  0.34027628763E+03  0.00000000000E+00 0.  1.
<mgrwt>
<rscale>  4 0.24932741E+03</rscale>
<asrwt>0</asrwt>
<pdfrwt beam="1">  1       21 0.82057829E-01 0.24932741E+03</pdfrwt>
<pdfrwt beam="2">  1       21 0.27058978E+00 0.24932741E+03</pdfrwt>
<totfact> 0.60330856E+01</totfact>
</mgrwt>
</event>
<event>
 5    0  0.1200001E+000  0.3716994E+03  0.7546771E-02  0.1054045E+00
         21   -1    0    0  503  501  0.00000000000E+00  0.00000000000E+00  0.17297325527E+03  0.17297325527E+03  0.00000000000E+00 0. -1.
         21   -1    0    0  501  502 -0.00000000000E+00 -0.00000000000E+00 -0.84624484742E+03  0.84624484742E+03  0.00000000000E+00 0.  1.
         25    1    1    2    0    0 -0.77830416142E+02  0.34143692200E+03 -0.44881044412E+03  0.58283150235E+03  0.12500000000E+03 0.  0.
         21    1    1    2  503  504 -0.21001679619E+02 -0.54316598559E+01 -0.27384796713E+01  0.21864874720E+02  0.00000000000E+00 0.  1.
         21    1    1    2  504  502  0.98832095761E+02 -0.33600526214E+03 -0.22172266836E+03  0.41452172562E+03  0.00000000000E+00 0. -1.
<mgrwt>
<rscale>  4 0.37169940E+03</rscale>
<asrwt>0</asrwt>
<pdfrwt beam="1">  1       21 0.26611270E-01 0.37169940E+03</pdfrwt>
<pdfrwt beam="2">  1       21 0.13019152E+00 0.37169940E+03</pdfrwt>
<totfact> 0.52152102E+03</totfact>
</mgrwt>
</event>
<event>
 5    0  0.1200001E+000  0.3357981E+03  0.7546771E-02  0.1068600E+00
         21   -1    0    0  503  501  0.00000000000E+00  0.00000000000E+00  0.13590858808E+04  0.13590858808E+04  0.00000000000E+00 0.  1.
         21   -1    0    0  504  502 -0.00000000000E+00 -0.00000000000E+00 -0.15213344114E+03  0.15213344114E+03  0.00000000000E+00 0. -1.
         25    1    1    2    0    0  0.32824191978E+03 -0.18040072328E+03  0.30121786977E+03  0.49663304756E+03  0.12500000000E+03 0.  0.
         21    1    1    2  503  502 -0.22558802403E+03  0.12531577666E+03  0.29113166356E+03  0.38903938874E+03  0.00000000000E+00 0. -1.
         21    1    1    2  504  501 -0.10265389575E+03  0.55084946627E+02  0.61460290634E+03  0.62554688565E+03  0.00000000000E+00 0.  1.
<mgrwt>
<rscale>  4 0.33579806E+03</rscale>
<asrwt>0</asrwt>
<pdfrwt beam="1">  1       21 0.20909013E+00 0.33579806E+03</pdfrwt>
<pdfrwt beam="2">  1       21 0.23405146E-01 0.33579806E+03</pdfrwt>
<totfact> 0.17997199E+03</totfact>
</mgrwt>
</event>
<event>
 5    0  0.1200001E+000  0.3970168E+03  0.7546771E-02  0.1044818E+00
         21   -1    0    0  503  501  0.00000000000E+00  0.00000000000E+00  0.52312992714E+03  0.52312992714E+03  0.00000000000E+00 0.  1.
         21   -1    0    0  501  502 -0.00000000000E+00 -0.00000000000E+00 -0.40761745820E+03  0.40761745820E+03  0.00000000000E+00 0. -1.
         25    1    1    2    0    0  0.55818929051E+02  0.37491780040E+03 -0.15388726160E+03  0.42776792678E+03  0.12500000000E+03 0.  0.
         21    1    1    2  503  504  0.48381963601E+02 -0.15981570422E+02  0.34610980003E+02  0.61596630848E+02  0.00000000000E+00 0.  1.
         21    1    1    2  504  502 -0.10420089265E+03 -0.35893622998E+03  0.23478875054E+03  0.44138282771E+03  0.00000000000E+00 0.  1.
<mgrwt>
<rscale>  4 0.39701679E+03</rscale>
<asrwt>0</asrwt>
<pdfrwt beam="1">  1       21 0.80481527E-01 0.39701679E+03</pdfrwt>
<pdfrwt beam="2">  1       21 0.62710379E-01 0.39701679E+03</pdfrwt>
<totfact> 0.28356429E+03</totfact>
</mgrwt>
</event>
<event>
 5    0  0.1200001E+000  0.2668741E+03  0.7546771E-02  0.1103082E+00
         21   -1    0    0  503  501  0.00000000000E+00  0.00000000000E+00  0.22551180879E+04  0.22551180879E+04  0.00000000000E+00 0. -1.
         21   -1    0    0  504  502 -0.00000000000E+00 -0.00000000000E+00 -0.34205612972E+02  0.34205612972E+02  0.00000000000E+00 0. -1.
         25    1    1    2    0    0  0.22595935110E+03  0.42203219024E+02  0.74887918512E+03  0.79327408502E+03  0.12500000000E+03 0.  0.
         21    1    1    2  503  502 -0.22908222930E+03 -0.67893334999E+02  0.13760125569E+04  0.13966025668E+04  0.00000000000E+00 0. -1.
         21    1    1    2  504  501  0.31228781992E+01  0.25690115975E+02  0.96020732863E+02  0.99447049059E+02  0.00000000000E+00 0.  1.
<mgrwt>
<rscale>  4 0.26687413E+03</rscale>
<asrwt>0</asrwt>
<pdfrwt beam="1">  1       21 0.34694113E+00 0.26687413E+03</pdfrwt>
<pdfrwt beam="2">  1       21 0.52624038E-02 0.26687413E+03</pdfrwt>
<totfact> 0.41463709E+03</totfact>
</mgrwt>
</event>
<event>
 5    0  0.1200001E+000  0.2522597E+03  0.7546771E-02  0.1111885E+00
         21   -1    0    0  503  501  0.00000000000E+00  0.00000000000E+00  0.65655872227E+03  0.65655872227E+03  0.00000000000E+00 0. -1.
         21   -1    0    0  504  502 -0.00000000000E+00 -0.00000000000E+00 -0.12507002893E+03  0.12507002893E+03  0.00000000000E+00 0. -1.
         25    1    1    2    0    0 -0.97516361589E+02  0.18358886795E+03  0.15348812693E+03  0.28705037593E+03  0.12500000000E+03 0.  0.
         21    1    1    2  503  502  0.12845971899E+03 -0.19280233094E+03  0.17845934831E+03  0.29244209207E+03  0.00000000000E+00 0. -1.
         21    1    1    2  504  501 -0.30943357397E+02  0.92134629968E+01  0.19954121810E+03  0.20213628321E+03  0.00000000000E+00 0. -1.
<mgrwt>
<rscale>  4 0.25225966E+03</rscale>
<asrwt>0</asrwt>
<pdfrwt beam="1">  1       21 0.10100903E+00 0.25225966E+03</pdfrwt>
<pdfrwt beam="2">  1       21 0.19241543E-01 0.25225966E+03</pdfrwt>
<totfact> 0.19226455E+04</totfact>
</mgrwt>
</event>
<event>
 5    0  0.1200001E+000  0.3945977E+03  0.7546771E-02  0.1045667E+00
         21   -1    0    0  503  501  0.00000000000E+00  0.00000000000E+00  0.81441721060E+03  0.81441721060E+03  0.00000000000E+00 0. -1.
         21   -1    0    0  501  502 -0.00000000000E+00 -0.00000000000E+00 -0.21533132128E+03  0.21533132128E+03  0.00000000000E+00 0. -1.
         25    1    1    2    0    0 -0.35330594245E+03 -0.12936446642E+03  0.25662764598E+03  0.47227428770E+03  0.12500000000E+03 0.  0.
         21    1    1    2  503  504  0.11741982078E+02 -0.20130159423E+02  0.12225609210E+03  0.12445742049E+03  0.00000000000E+00 0. -1.
         21    1    1    2  504  502  0.34156396037E+03  0.14949462584E+03  0.22020215124E+03  0.43301682368E+03  0.00000000000E+00 0. -1.
<mgrwt>
<rscale>  4 0.39459771E+03</rscale>
<asrwt>0</asrwt>
<pdfrwt beam="1">  1       21 0.12529495E+00 0.39459771E+03</pdfrwt>
<pdfrwt beam="2">  1       21 0.33127896E-01 0.39459771E+03</pdfrwt>
<totfact> 0.36964539E+03</totfact>
</mgrwt>
</event>
<event>
 5    0  0.1200001E+000  0.2412338E+03  0.7546771E-02  0.1118974E+00
         21   -1    0    0  502  501  0.00000000000E+00  0.00000000000E+00  0.64133606782E+03  0.64133606782E+03  0.00000000000E+00 0.  1.
         21   -1    0    0  504  502 -0.00000000000E+00 -0.00000000000E+00 -0.15919446100E+03  0.15919446100E+03  0.00000000000E+00 0. -1.
         25    1    1    2    0    0 -0.17366287820E+03 -0.14304307128E+03 -0.62344624435E+01  0.25745676148E+03  0.12500000000E+03 0.  0.
         21    1    1    2  503  501  0.15751924386E+03  0.12865414456E+03  0.47719575825E+03  0.51872920950E+03  0.00000000000E+00 0.  1.
         21    1    1    2  504  503  0.16143634343E+02  0.14388926718E+02  0.11180311022E+02  0.24344557841E+02  0.00000000000E+00 0. -1.
<mgrwt>
<rscale>  4 0.24123375E+03</rscale>
<asrwt>0</asrwt>
<pdfrwt beam="1">  1       21 0.98667086E-01 0.24123375E+03</pdfrwt>
<pdfrwt beam="2">  1       21 0.24491456E-01 0.24123375E+03</pdfrwt>
<totfact> 0.12951900E+04</totfact>
</mgrwt>
</event>
<event>
 5    0  0.1440814E+000  0.2509015E+03  0.7546771E-02  0.1112736E+00
         21   -1    0    0  503  501  0.00000000000E+00  0.00000000000E+00  0.72819373002E+02  0.72819373002E+02  0.00000000000E+00 0.  1.
         21   -1    0    0  504  502 -0.00000000000E+00 -0.00000000000E+00 -0.77893915961E+03  0.77893915961E+03  0.00000000000E+00 0.  1.
         25    1    1    2    0    0 -0.21233370666E+03 -0.47338618148E+02 -0.42885705553E+03  0.49686006263E+03  0.12500000000E+03 0.  0.
         21    1    1    2  503  502  0.18971555468E+03  0.36863654919E+02 -0.26235582416E+03  0.32585502791E+03  0.00000000000E+00 0.  1.
         21    1    1    2  504  501  0.22618151987E+02  0.10474963229E+02 -0.14906906912E+02  0.29043442076E+02  0.00000000000E+00 0. -1.
<mgrwt>
<rscale>  4 0.25090147E+03</rscale>
<asrwt>0</asrwt>
<pdfrwt beam="1">  1       21 0.11202982E-01 0.25090147E+03</pdfrwt>
<pdfrwt beam="2">  1       21 0.11983678E+00 0.25090147E+03</pdfrwt>
<totfact> 0.34098818E+04</totfact>
</mgrwt>
</event>
<event>
 5    0  0.1200001E+000  0.2689292E+03  0.7546771E-02  0.1101894E+00
         21   -1    0    0  503  501  0.00000000000E+00  0.00000000000E+00  0.14355516986E+03  0.14355516986E+03  0.00000000000E+00 0.  1.
         21   -1    0    0  501  502 -0.00000000000E+00 -0.00000000000E+00 -0.71075866179E+03  0.71075866179E+03  0.00000000000E+00 0.  1.
         25    1    1    2    0    0 -0.22033750556E+03 -0.20988705743E+02 -0.38035770094E+03  0.45747800252E+03  0.12500000000E+03 0.  0.
         21    1    1    2  503  504 -0.41092680407E+02 -0.47725295145E+02  0.81910175178E+01  0.63509093425E+02  0.00000000000E+00 0. -1.
         21    1    1    2  504  502  0.26143018597E+03  0.68714000888E+02 -0.19503680851E+03  0.33332673569E+03  0.00000000000E+00 0.  1.
<mgrwt>
<rscale>  4 0.26892919E+03</rscale>
<asrwt>0</asrwt>
<pdfrwt beam="1">  1       21 0.22085411E-01 0.26892919E+03</pdfrwt>
<pdfrwt beam="2">  1       21 0.10934749E+00 0.26892919E+03</pdfrwt>
<totfact> 0.12129198E+04</totfact>
</mgrwt>
</event>
<event>
 5    0  0.1200001E+000  0.3352214E+03  0.7546771E-02  0.1068850E+00
         21   -1    0    0  503  501  0.00000000000E+00  0.00000000000E+00  0.25892277588E+03  0.25892277588E+03  0.00000000000E+00 0.  1.
         21   -1    0    0  501  502 -0.00000000000E+00 -0.00000000000E+00 -0.46943864759E+03  0.46943864759E+03  0.00000000000E+00 0.  1.
         25    1    1    2    0    0  0.21686577813E+03  0.22847435758E+03 -0.18545579761E+03  0.38632907044E+03  0.12500000000E+03 0.  0.
         21    1    1    2  503  504  0.10895552149E+02 -0.23582259013E+02  0.19456071001E+02  0.32455734402E+02  0.00000000000E+00 0. -1.
         21    1    1    2  504  502 -0.22776133028E+03 -0.20489209857E+03 -0.44516145110E+02  0.30957661863E+03  0.00000000000E+00 0.  1.
<mgrwt>
<rscale>  4 0.33522141E+03</rscale>
<asrwt>0</asrwt>
<pdfrwt beam="1">  1       21 0.39834274E-01 0.33522141E+03</pdfrwt>
<pdfrwt beam="2">  1       21 0.72221330E-01 0.33522141E+03</pdfrwt>
<totfact> 0.97367441E+03</totfact>
</mgrwt>
</event>
<event>
 5    0  0.1200001E+000  0.3158282E+03  0.7546771E-02  0.1077585E+00
         21   -1    0    0  503  501  0.00000000000E+00  0.00000000000E+00  0.71250602104E+03  0.71250602104E+03  0.00000000000E+00 0. -1.
         21   -1    0    0  504  502 -0.00000000000E+00 -0.00000000000E+00 -0.28775629443E+03  0.28775629443E+03  0.00000000000E+00 0.  1.
         25    1    1    2    0    0 -0.82486606915E+02  0.28212964179E+03 -0.14575388356E+03  0.35109880329E+03  0.12500000000E+03 0.  0.
         21    1    1    2  503  502  0.96938953886E+02 -0.25396917817E+03  0.46103832986E+03  0.53521383189E+03  0.00000000000E+00 0. -1.
         21    1    1    2  504  501 -0.14452346971E+02 -0.28160463623E+02  0.10946528032E+03  0.11394968029E+03  0.00000000000E+00 0.  1.
<mgrwt>
<rscale>  4 0.31582816E+03</rscale>
<asrwt>0</asrwt>
<pdfrwt beam="1">  1       21 0.10961631E+00 0.31582816E+03</pdfrwt>
<pdfrwt beam="2">  1       21 0.44270199E-01 0.31582816E+03</pdfrwt>
<totfact> 0.29685081E+03</totfact>
</mgrwt>
</event>
<event>
 5    0  0.1200001E+000  0.1982458E+03  0.7546771E-02  0.1151228E+00
         21   -1    0    0  503  501  0.00000000000E+00  0.00000000000E+00  0.12807784090E+04  0.12807784090E+04  0.00000000000E+00 0. -1.
         21   -1    0    0  501  502 -0.00000000000E+00 -0.00000000000E+00 -0.96662630977E+02  0.96662630977E+02  0.00000000000E+00 0. -1.
         25    1    1    2    0    0  0.13447292667E+03  0.15295774996E+03  0.57946397886E+03  0.62680343336E+03  0.12500000000E+03 0.  0.
         21    1    1    2  503  504 -0.48330873078E+02 -0.32994729941E+02  0.60003102928E+03  0.60287789941E+03  0.00000000000E+00 0. -1.
         21    1    1    2  504  502 -0.86142053592E+02 -0.11996302002E+03  0.46207699183E+01  0.14775970724E+03  0.00000000000E+00 0. -1.
<mgrwt>
<rscale>  4 0.19824580E+03</rscale>
<asrwt>0</asrwt>
<pdfrwt beam="1">  1       21 0.19704282E+00 0.19824580E+03</pdfrwt>
<pdfrwt beam="2">  1       21 0.14871175E-01 0.19824580E+03</pdfrwt>
<totfact> 0.55622951E+03</totfact>
</mgrwt>
</event>
<event>
 5    0  0.1200001E+000  0.2412715E+03  0.7546771E-02  0.1118949E+00
         21   -1    0    0  503  501  0.00000000000E+00  0.00000000000E+00  0.14223490844E+03  0.14223490844E+03  0.00000000000E+00 0. -1.
         21   -1    0    0  504  502 -0.00000000000E+00 -0.00000000000E+00 -0.59776266296E+03  0.59776266296E+03  0.00000000000E+00 0. -1.
         25    1    1    2    0    0 -0.44093483748E+01  0.20892515855E+03 -0.44061573377E+03  0.50342466078E+03  0.12500000000E+03 0.  0.
         21    1    1    2  503  502  0.33509012543E+02 -0.19791468916E+03 -0.28272360991E+02  0.20271261555E+03  0.00000000000E+00 0. -1.
         21    1    1    2  504  501 -0.29099664168E+02 -0.11010469393E+02  0.13360340247E+02  0.33860295074E+02  0.00000000000E+00 0. -1.
<mgrwt>
<rscale>  4 0.24127154E+03</rscale>
<asrwt>0</asrwt>
<pdfrwt beam="1">  1       21 0.21882294E-01 0.24127154E+03</pdfrwt>
<pdfrwt beam="2">  1       21 0.91963486E-01 0.24127154E+03</pdfrwt>
<totfact> 0.18947423E+04</totfact>
</mgrwt>
</event>
<event>
 5    0  0.1200001E+000  0.2477941E+03  0.7546771E-02  0.1114707E+00
         21   -1    0    0  503  501  0.00000000000E+00  0.00000000000E+00  0.13831825932E+04  0.13831825932E+04  0.00000000000E+00 0.  1.
         21   -1    0    0  501  502 -0.00000000000E+00 -0.00000000000E+00 -0.59753035920E+02  0.59753035920E+02  0.00000000000E+00 0.  1.
         25    1    1    2    0    0 -0.18475137869E+03 -0.89871736445E+02  0.55129589253E+03  0.60146667577E+03  0.12500000000E+03 0.  0.
         21    1    1    2  503  504 -0.30553068276E+01 -0.23660467241E+02  0.45603303793E+03  0.45665663719E+03  0.00000000000E+00 0.  1.
         21    1    1    2  504  502  0.18780668551E+03  0.11353220369E+03  0.31610062686E+03  0.38481231620E+03  0.00000000000E+00 0.  1.
<mgrwt>
<rscale>  4 0.24779410E+03</rscale>
<asrwt>0</asrwt>
<pdfrwt beam="1">  1       21 0.21279730E+00 0.24779410E+03</pdfrwt>
<pdfrwt beam="2">  1       21 0.91927758E-02 0.24779410E+03</pdfrwt>
<totfact> 0.10047248E+04</totfact>
</mgrwt>
</event>
<event>
 5    0  0.1200001E+000  0.2319214E+03  0.7546771E-02  0.1125295E+00
         21   -1    0    0  503  501  0.00000000000E+00  0.00000000000E+00  0.15242269666E+04  0.15242269666E+04  0.00000000000E+00 0. -1.
         21   -1    0    0  501  502 -0.00000000000E+00 -0.00000000000E+00 -0.20250439430E+03  0.20250439430E+03  0.00000000000E+00 0. -1.
         25    1    1    2    0    0 -0.18994245943E+03  0.17454465076E+03  0.16651041011E+03  0.33150367974E+03  0.12500000000E+03 0.  0.
         21    1    1    2  503  504  0.54758949858E+02 -0.57974319645E+02  0.12067905063E+04  0.12094225442E+04  0.00000000000E+00 0. -1.
         21    1    1    2  504  502  0.13518350958E+03 -0.11657033111E+03 -0.51578344073E+02  0.18580513700E+03  0.00000000000E+00 0. -1.
<mgrwt>
<rscale>  4 0.23192142E+03</rscale>
<asrwt>0</asrwt>
<pdfrwt beam="1">  1       21 0.23449645E+00 0.23192142E+03</pdfrwt>
<pdfrwt beam="2">  1       21 0.31154523E-01 0.23192142E+03</pdfrwt>
<totfact> 0.77777972E+02</totfact>
</mgrwt>
</event>
<event>
 5    0  0.1200001E+000  0.3732177E+03  0.7546771E-02  0.1053469E+00
         21   -1    0    0  503  501  0.00000000000E+00  0.00000000000E+00  0.42577045237E+03  0.42577045237E+03  0.00000000000E+00 0. -1.
         21   -1    0    0  504  502 -0.00000000000E+00 -0.00000000000E+00 -0.81746292145E+03  0.81746292145E+03  0.00000000000E+00 0.  1.
         25    1    1    2    0    0 -0.33469283763E+03 -0.11031059348E+03 -0.66781161567E+03  0.76536597561E+03  0.12500000000E+03 0.  0.
         21    1    1    2  503  502  0.34077111661E+03  0.73085510698E+02  0.22695943292E+03  0.41590507328E+03  0.00000000000E+00 0. -1.
         21    1    1    2  504  501 -0.60782789706E+01  0.37225082777E+02  0.49159713668E+02  0.61962324931E+02  0.00000000000E+00 0.  1.
<mgrwt>
<rscale>  4 0.37321768E+03</rscale>
<asrwt>0</asrwt>
<pdfrwt beam="1">  1       21 0.65503146E-01 0.37321768E+03</pdfrwt>
<pdfrwt beam="2">  1       21 0.12576353E+00 0.37321768E+03</pdfrwt>
<totfact> 0.88251806E+02</totfact>
</mgrwt>
</event>
<event>
 5    0  0.1200001E+000  0.2573576E+03  0.7546771E-02  0.1108741E+00
         21   -1    0    0  503  501  0.00000000000E+00  0.00000000000E+00  0.58879588875E+03  0.58879588875E+03  0.00000000000E+00 0. -1.
         21   -1    0    0  504  502 -0.00000000000E+00 -0.00000000000E+00 -0.39027271901E+03  0.39027271901E+03  0.00000000000E+00 0.  1.
         25    1    1    2    0    0 -0.19063342519E+03  0.11744898246E+03 -0.30643921622E+03  0.39958148045E+03  0.12500000000E+03 0.  0.
         21    1    1    2  503  502  0.18500967834E+03 -0.14476495004E+03  0.34673375363E+03  0.41881949304E+03  0.00000000000E+00 0. -1.
         21    1    1    2  504  501  0.56237468492E+01  0.27315967585E+02  0.15822863234E+03  0.16066763428E+03  0.00000000000E+00 0.  1.
<mgrwt>
<rscale>  4 0.25735760E+03</rscale>
<asrwt>0</asrwt>
<pdfrwt beam="1">  1       21 0.90583983E-01 0.25735760E+03</pdfrwt>
<pdfrwt beam="2">  1       21 0.60041957E-01 0.25735760E+03</pdfrwt>
<totfact> 0.25473697E+03</totfact>
</mgrwt>
</event>
<event>
 5    0  0.1200001E+000  0.2359451E+03  0.7546771E-02  0.1122524E+00
         21   -1    0    0  502  501  0.00000000000E+00  0.00000000000E+00  0.15319422685E+04  0.15319422685E+04  0.00000000000E+00 0. -1.
         21   -1    0    0  504  502 -0.00000000000E+00 -0.00000000000E+00 -0.69834058471E+02  0.69834058471E+02  0.00000000000E+00 0. -1.
         25    1    1    2    0    0 -0.16564719556E+03  0.11227685965E+03  0.16720663013E+03  0.28918531043E+03  0.12500000000E+03 0.  0.
         21    1    1    2  503  501  0.27807263226E+02 -0.54564829786E+02  0.27039534370E+03  0.27724394751E+03  0.00000000000E+00 0.  1.
         21    1    1    2  504  503  0.13783993233E+03 -0.57712029862E+02  0.10245062363E+04  0.10353470691E+04  0.00000000000E+00 0. -1.
<mgrwt>
<rscale>  4 0.23594509E+03</rscale>
<asrwt>0</asrwt>
<pdfrwt beam="1">  1       21 0.23568340E+00 0.23594509E+03</pdfrwt>
<pdfrwt beam="2">  1       21 0.10743702E-01 0.23594509E+03</pdfrwt>
<totfact> 0.55529830E+03</totfact>
</mgrwt>
</event>
<event>
 5    0  0.1200001E+000  0.2613452E+03  0.7546771E-02  0.1106338E+00
         21   -1    0    0  503  501  0.00000000000E+00  0.00000000000E+00  0.47860817779E+03  0.47860817779E+03  0.00000000000E+00 0. -1.
         21   -1    0    0  504  502 -0.00000000000E+00 -0.00000000000E+00 -0.26792957443E+03  0.26792957443E+03  0.00000000000E+00 0. -1.
         25    1    1    2    0    0  0.18246898714E+03  0.11363790775E+03 -0.58316577559E+02  0.25541011837E+03  0.12500000000E+03 0.  0.
         21    1    1    2  503  502 -0.15540310318E+03 -0.22469693322E+03  0.10821203851E+03  0.29385146172E+03  0.00000000000E+00 0. -1.
         21    1    1    2  504  501 -0.27065883957E+02  0.11105902547E+03  0.16078314241E+03  0.19727617214E+03  0.00000000000E+00 0. -1.
<mgrwt>
<rscale>  4 0.26134524E+03</rscale>
<asrwt>0</asrwt>
<pdfrwt beam="1">  1       21 0.73632027E-01 0.26134524E+03</pdfrwt>
<pdfrwt beam="2">  1       21 0.41219935E-01 0.26134524E+03</pdfrwt>
<totfact> 0.89966459E+03</totfact>
</mgrwt>
</event>
<event>
 5    0  0.1200001E+000  0.2669886E+03  0.7546771E-02  0.1103016E+00
         21   -1    0    0  503  501  0.00000000000E+00  0.00000000000E+00  0.34348288059E+03  0.34348288059E+03  0.00000000000E+00 0.  1.
         21   -1    0    0  504  502 -0.00000000000E+00 -0.00000000000E+00 -0.92240092889E+03  0.92240092889E+03  0.00000000000E+00 0. -1.
         25    1    1    2    0    0 -0.17194827577E+03 -0.16152922325E+03 -0.85416333699E+03  0.89491782067E+03  0.12500000000E+03 0.  0.
         21    1    1    2  503  502  0.95261880293E+02  0.10921751786E+03  0.11194788649E+03  0.18312733639E+03  0.00000000000E+00 0.  1.
         21    1    1    2  504  501  0.76686395477E+02  0.52311705391E+02  0.16329740220E+03  0.18783865240E+03  0.00000000000E+00 0.  1.
<mgrwt>
<rscale>  4 0.26698858E+03</rscale>
<asrwt>0</asrwt>
<pdfrwt beam="1">  1       21 0.52843520E-01 0.26698858E+03</pdfrwt>
<pdfrwt beam="2">  1       21 0.14190784E+00 0.26698858E+03</pdfrwt>
<totfact> 0.10982449E+03</totfact>
</mgrwt>
</event>
<event>
 5    0  0.1200001E+000  0.3130392E+03  0.7546771E-02  0.1078898E+00
         21   -1    0    0  503  501  0.00000000000E+00  0.00000000000E+00  0.94415026184E+03  0.94415026184E+03  0.00000000000E+00 0.  1.
         21   -1    0    0  504  502 -0.00000000000E+00 -0.00000000000E+00 -0.28975841594E+03  0.28975841594E+03  0.00000000000E+00 0.  1.
         25    1    1    2    0    0  0.25951429354E+02  0.28218853903E+03 -0.15732989284E+03  0.34739249190E+03  0.12500000000E+03 0.  0.
         21    1    1    2  503  502 -0.17039980851E+02 -0.31278121511E+03  0.64822218838E+03  0.71994059129E+03  0.00000000000E+00 0.  1.
         21    1    1    2  504  501 -0.89114485031E+01  0.30592676082E+02  0.16349955036E+03  0.16657559459E+03  0.00000000000E+00 0. -1.
<mgrwt>
<rscale>  4 0.31303915E+03</rscale>
<asrwt>0</asrwt>
<pdfrwt beam="1">  1       21 0.14525389E+00 0.31303915E+03</pdfrwt>
<pdfrwt beam="2">  1       21 0.44578218E-01 0.31303915E+03</pdfrwt>
<totfact> 0.14302667E+03</totfact>
</mgrwt>
</event>
<event>
 5    0  0.1200001E+000  0.2622057E+03  0.7546771E-02  0.1105825E+00
         21   -1    0    0  503  501  0.00000000000E+00  0.00000000000E+00  0.63398081187E+03  0.63398081187E+03  0.00000000000E+00 0. -1.
         21   -1    0    0  504  502 -0.00000000000E+00 -0.00000000000E+00 -0.16042415344E+03  0.16042415344E+03  0.00000000000E+00 0. -1.
         25    1    1    2    0    0 -0.17452561231E+03  0.15411206637E+03  0.89273777638E+01  0.26441334389E+03  0.12500000000E+03 0.  0.
         21    1    1    2  503  502  0.18535356320E+03 -0.12609119344E+03  0.42189193177E+03  0.47775279648E+03  0.00000000000E+00 0. -1.
         21    1    1    2  504  501 -0.10827950888E+02 -0.28020872924E+02  0.42737348900E+02  0.52238824937E+02  0.00000000000E+00 0.  1.
<mgrwt>
<rscale>  4 0.26220574E+03</rscale>
<asrwt>0</asrwt>
<pdfrwt beam="1">  1       21 0.97535508E-01 0.26220574E+03</pdfrwt>
<pdfrwt beam="2">  1       21 0.24680639E-01 0.26220574E+03</pdfrwt>
<totfact> 0.12971324E+04</totfact>
</mgrwt>
</event>
<event>
 5    0  0.1200001E+000  0.3197450E+03  0.7546771E-02  0.1075767E+00
         21   -1    0    0  502  501  0.00000000000E+00  0.00000000000E+00  0.25299718615E+03  0.25299718615E+03  0.00000000000E+00 0. -1.
         21   -1    0    0  503  502 -0.00000000000E+00 -0.00000000000E+00 -0.54406361856E+03  0.54406361856E+03  0.00000000000E+00 0.  1.
         25    1    1    2    0    0  0.18121550424E+03  0.23272389654E+03 -0.32465085540E+03  0.45609499987E+03  0.12500000000E+03 0.  0.
         21    1    1    2  503  504 -0.36438459339E+02  0.24316805894E+02  0.10545243444E+02  0.45058523358E+02  0.00000000000E+00 0.  1.
         21    1    1    2  504  501 -0.14477704490E+03 -0.25704070244E+03  0.23039179544E+02  0.29590728148E+03  0.00000000000E+00 0. -1.
<mgrwt>
<rscale>  4 0.31974499E+03</rscale>
<asrwt>0</asrwt>
<pdfrwt beam="1">  1       21 0.38922644E-01 0.31974499E+03</pdfrwt>
<pdfrwt beam="2">  1       21 0.83702095E-01 0.31974499E+03</pdfrwt>
<totfact> 0.73409724E+03</totfact>
</mgrwt>
</event>
<event>
 5    0  0.1200001E+000  0.2683455E+03  0.7546771E-02  0.1102230E+00
         21   -1    0    0  502  501  0.00000000000E+00  0.00000000000E+00  0.56936416070E+03  0.56936416070E+03  0.00000000000E+00 0.  1.
         21   -1    0    0  503  502 -0.00000000000E+00 -0.00000000000E+00 -0.11618600892E+03  0.11618600892E+03  0.00000000000E+00 0.  1.
         25    1    1    2    0    0  0.87632594742E+02  0.22069175028E+03  0.27590400958E+03  0.38487964717E+03  0.12500000000E+03 0.  0.
         21    1    1    2  503  504 -0.10044772636E+02 -0.20648525456E+02  0.99959691741E+00  0.22983869448E+02  0.00000000000E+00 0. -1.
         21    1    1    2  504  501 -0.77587822106E+02 -0.20004322483E+03  0.17627454529E+03  0.27768665300E+03  0.00000000000E+00 0.  1.
<mgrwt>
<rscale>  4 0.26834552E+03</rscale>
<asrwt>0</asrwt>
<pdfrwt beam="1">  1       21 0.87594485E-01 0.26834552E+03</pdfrwt>
<pdfrwt beam="2">  1       21 0.17874771E-01 0.26834552E+03</pdfrwt>
<totfact> 0.30644196E+04</totfact>
</mgrwt>
</event>
<event>
 5    0  0.1200001E+000  0.3060333E+03  0.7546771E-02  0.1082263E+00
         21   -1    0    0  503  501  0.00000000000E+00  0.00000000000E+00  0.36426369336E+03  0.36426369336E+03  0.00000000000E+00 0. -1.
         21   -1    0    0  504  502 -0.00000000000E+00 -0.00000000000E+00 -0.30247073854E+03  0.30247073854E+03  0.00000000000E+00 0. -1.
         25    1    1    2    0    0  0.35324115224E+02 -0.28605888007E+03 -0.54171075821E+02  0.31880555428E+03  0.12500000000E+03 0.  0.
         21    1    1    2  503  502 -0.25376448337E+01  0.26934050578E+03  0.52285612914E+02  0.27438027081E+03  0.00000000000E+00 0. -1.
         21    1    1    2  504  501 -0.32786470390E+02  0.16718374292E+02  0.63678417725E+02  0.73548606809E+02  0.00000000000E+00 0.  1.
<mgrwt>
<rscale>  4 0.30603331E+03</rscale>
<asrwt>0</asrwt>
<pdfrwt beam="1">  1       21 0.56040568E-01 0.30603331E+03</pdfrwt>
<pdfrwt beam="2">  1       21 0.46533960E-01 0.30603331E+03</pdfrwt>
<totfact> 0.12479851E+04</totfact>
</mgrwt>
</event>
<event>
 5    0  0.1200001E+000  0.2545374E+03  0.7546771E-02  0.1110470E+00
         21   -1    0    0  503  501  0.00000000000E+00  0.00000000000E+00  0.48894534432E+03  0.48894534432E+03  0.00000000000E+00 0.  1.
         21   -1    0    0  504  502 -0.00000000000E+00 -0.00000000000E+00 -0.24149751055E+03  0.24149751055E+03  0.00000000000E+00 0.  1.
         25    1    1    2    0    0  0.21354316147E+03  0.10533069814E+02  0.19144346446E+03  0.31302911599E+03  0.12500000000E+03 0.  0.
         21    1    1    2  503  502 -0.22381889228E+03  0.13039782723E+02 -0.10978977851E+03  0.24963719262E+03  0.00000000000E+00 0.  1.
         21    1    1    2  504  501  0.10275730804E+02 -0.23572852537E+02  0.16579414783E+03  0.16777654626E+03  0.00000000000E+00 0.  1.
<mgrwt>
<rscale>  4 0.25453738E+03</rscale>
<asrwt>0</asrwt>
<pdfrwt beam="1">  1       21 0.75222360E-01 0.25453738E+03</pdfrwt>
<pdfrwt beam="2">  1       21 0.37153463E-01 0.25453738E+03</pdfrwt>
<totfact> 0.10624363E+04</totfact>
</mgrwt>
</event>
<event>
 5    0  0.1340267E+000  0.2311347E+03  0.7546771E-02  0.1125844E+00
         21   -1    0    0  503  501  0.00000000000E+00  0.00000000000E+00  0.39100645288E+03  0.39100645288E+03  0.00000000000E+00 0. -1.
         21   -1    0    0  504  502 -0.00000000000E+00 -0.00000000000E+00 -0.62706668486E+03  0.62706668486E+03  0.00000000000E+00 0.  1.
         25    1    1    2    0    0 -0.20531122253E+03 -0.68616576925E+02 -0.21410901195E+03  0.32913310640E+03  0.12500000000E+03 0.  0.
         21    1    1    2  503  502  0.17328565760E+03  0.65323456391E+02 -0.33042974133E+03  0.37878607029E+03  0.00000000000E+00 0.  1.
         21    1    1    2  504  501  0.32025564930E+02  0.32931205336E+01  0.30847852131E+03  0.31015396106E+03  0.00000000000E+00 0. -1.
<mgrwt>
<rscale>  4 0.23113473E+03</rscale>
<asrwt>0</asrwt>
<pdfrwt beam="1">  1       21 0.60154840E-01 0.23113473E+03</pdfrwt>
<pdfrwt beam="2">  1       21 0.96471796E-01 0.23113473E+03</pdfrwt>
<totfact> 0.22293519E+03</totfact>
</mgrwt>
</event>
<event>
 5    0  0.1200001E+000  0.2364922E+03  0.7546771E-02  0.1122152E+00
         21   -1    0    0  503  501  0.00000000000E+00  0.00000000000E+00  0.11756124332E+03  0.11756124332E+03  0.00000000000E+00 0. -1.
         21   -1    0    0  504  502 -0.00000000000E+00 -0.00000000000E+00 -0.76064223571E+03  0.76064223571E+03  0.00000000000E+00 0. -1.
         25    1    1    2    0    0  0.20241445036E+03  0.43121283656E+02 -0.59254326192E+03  0.63997154004E+03  0.12500000000E+03 0.  0.
         21    1    1    2  503  502 -0.17955664175E+03 -0.44175556852E+02 -0.79537683986E+02  0.20129160587E+03  0.00000000000E+00 0. -1.
         21    1    1    2  504  501 -0.22857808615E+02  0.10542731965E+01  0.28999953514E+02  0.36940333113E+02  0.00000000000E+00 0.  1.
<mgrwt>
<rscale>  4 0.23649224E+03</rscale>
<asrwt>0</asrwt>
<pdfrwt beam="1">  1       21 0.18086346E-01 0.23649224E+03</pdfrwt>
<pdfrwt beam="2">  1       21 0.11702188E+00 0.23649224E+03</pdfrwt>
<totfact> 0.15212534E+04</totfact>
</mgrwt>
</event>
<event>
 5    0  0.1200001E+000  0.2467462E+03  0.7546771E-02  0.1115379E+00
         21   -1    0    0  503  501  0.00000000000E+00  0.00000000000E+00  0.93432314660E+03  0.93432314660E+03  0.00000000000E+00 0. -1.
         21   -1    0    0  504  502 -0.00000000000E+00 -0.00000000000E+00 -0.11993098208E+03  0.11993098208E+03  0.00000000000E+00 0. -1.
         25    1    1    2    0    0  0.16695562392E+03  0.13068071720E+03  0.46996777450E+02  0.25057000478E+03  0.12500000000E+03 0.  0.
         21    1    1    2  503  502 -0.18325250645E+03 -0.11637762381E+03  0.69933808039E+03  0.73225609122E+03  0.00000000000E+00 0. -1.
         21    1    1    2  504  501  0.16296882533E+02 -0.14303093383E+02  0.68057306675E+02  0.71428032680E+02  0.00000000000E+00 0. -1.
<mgrwt>
<rscale>  4 0.24674621E+03</rscale>
<asrwt>0</asrwt>
<pdfrwt beam="1">  1       21 0.14374202E+00 0.24674621E+03</pdfrwt>
<pdfrwt beam="2">  1       21 0.18450921E-01 0.24674621E+03</pdfrwt>
<totfact> 0.86305732E+03</totfact>
</mgrwt>
</event>
<event>
 5    0  0.1200001E+000  0.2932381E+03  0.7546771E-02  0.1088671E+00
         21   -1    0    0  503  501  0.00000000000E+00  0.00000000000E+00  0.10090871678E+03  0.10090871678E+03  0.00000000000E+00 0.  1.
         21   -1    0    0  501  502 -0.00000000000E+00 -0.00000000000E+00 -0.17811232710E+04  0.17811232710E+04  0.00000000000E+00 0. -1.
         25    1    1    2    0    0  0.74692741351E+02  0.25350972462E+03 -0.12531746615E+04  0.12868247427E+04  0.12500000000E+03 0.  0.
         21    1    1    2  503  504  0.22481609215E+02 -0.37931686656E+01  0.46116331460E+02  0.51444406001E+02  0.00000000000E+00 0.  1.
         21    1    1    2  504  502 -0.97174350566E+02 -0.24971655596E+03 -0.47315622414E+03  0.54376283908E+03  0.00000000000E+00 0. -1.
<mgrwt>
<rscale>  4 0.29323808E+03</rscale>
<asrwt>0</asrwt>
<pdfrwt beam="1">  1       21 0.15524418E-01 0.29323808E+03</pdfrwt>
<pdfrwt beam="2">  1       21 0.27401896E+00 0.29323808E+03</pdfrwt>
<totfact> 0.16068186E+03</totfact>
</mgrwt>
</event>
<event>
 5    0  0.1200001E+000  0.2600805E+03  0.7546771E-02  0.1107095E+00
         21   -1    0    0  502  501  0.00000000000E+00  0.00000000000E+00  0.23182091145E+04  0.23182091145E+04  0.00000000000E+00 0. -1.
         21   -1    0    0  503  502 -0.00000000000E+00 -0.00000000000E+00 -0.31600529799E+02  0.31600529799E+02  0.00000000000E+00 0.  1.
         25    1    1    2    0    0  0.10079842497E+03  0.20458872922E+03  0.70742077822E+03  0.75371481879E+03  0.12500000000E+03 0.  0.
         21    1    1    2  503  504 -0.16101391616E+02 -0.25198279340E+02  0.31765042812E+03  0.31905485826E+03  0.00000000000E+00 0. -1.
         21    1    1    2  504  501 -0.84697033354E+02 -0.17939044988E+03  0.12615373784E+04  0.12770399673E+04  0.00000000000E+00 0. -1.
<mgrwt>
<rscale>  4 0.26008051E+03</rscale>
<asrwt>0</asrwt>
<pdfrwt beam="1">  1       21 0.35664742E+00 0.26008051E+03</pdfrwt>
<pdfrwt beam="2">  1       21 0.48616218E-02 0.26008051E+03</pdfrwt>
<totfact> 0.41779933E+03</totfact>
</mgrwt>
</event>
<event>
 5    0  0.1200001E+000  0.2631946E+03  0.7546771E-02  0.1105239E+00
         21   -1    0    0  503  501  0.00000000000E+00  0.00000000000E+00  0.20603056724E+03  0.20603056724E+03  0.00000000000E+00 0.  1.
         21   -1    0    0  504  502 -0.00000000000E+00 -0.00000000000E+00 -0.48316295776E+03  0.48316295776E+03  0.00000000000E+00 0.  1.
         25    1    1    2    0    0  0.61861260823E+02 -0.20865850553E+03 -0.87967574551E+02  0.26594826883E+03  0.12500000000E+03 0.  0.
         21    1    1    2  503  502 -0.71882160004E+02  0.22792968032E+03 -0.25763152423E+03  0.35141568886E+03  0.00000000000E+00 0.  1.
         21    1    1    2  504  501  0.10020899181E+02 -0.19271174795E+02  0.68466708266E+02  0.71829567304E+02  0.00000000000E+00 0.  1.
<mgrwt>
<rscale>  4 0.26319458E+03</rscale>
<asrwt>0</asrwt>
<pdfrwt beam="1">  1       21 0.31697011E-01 0.26319458E+03</pdfrwt>
<pdfrwt beam="2">  1       21 0.74332762E-01 0.26319458E+03</pdfrwt>
<totfact> 0.14913290E+04</totfact>
</mgrwt>
</event>
<event>
 5    0  0.1200001E+000  0.2900066E+03  0.7546771E-02  0.1090346E+00
         21   -1    0    0  502  501  0.00000000000E+00  0.00000000000E+00  0.19687136619E+03  0.19687136619E+03  0.00000000000E+00 0. -1.
         21   -1    0    0  503  502 -0.00000000000E+00 -0.00000000000E+00 -0.72561453964E+03  0.72561453964E+03  0.00000000000E+00 0. -1.
         25    1    1    2    0    0  0.19488050425E+03 -0.21501048555E+03 -0.43493782821E+03  0.53759076837E+03  0.12500000000E+03 0.  0.
         21    1    1    2  503  504 -0.96958210784E+02 -0.23010174599E+02 -0.78869656645E+02  0.12708574079E+03  0.00000000000E+00 0. -1.
         21    1    1    2  504  501 -0.97922293461E+02  0.23802066015E+03 -0.14935688596E+02  0.25780939667E+03  0.00000000000E+00 0. -1.
<mgrwt>
<rscale>  4 0.29000661E+03</rscale>
<asrwt>0</asrwt>
<pdfrwt beam="1">  1       21 0.30287902E-01 0.29000661E+03</pdfrwt>
<pdfrwt beam="2">  1       21 0.11163301E+00 0.29000661E+03</pdfrwt>
<totfact> 0.61921355E+03</totfact>
</mgrwt>
</event>
<event>
 5    0  0.1200001E+000  0.2867004E+03  0.7546771E-02  0.1092085E+00
         21   -1    0    0  503  501  0.00000000000E+00  0.00000000000E+00  0.10573827256E+04  0.10573827256E+04  0.00000000000E+00 0.  1.
         21   -1    0    0  501  502 -0.00000000000E+00 -0.00000000000E+00 -0.29766477815E+03  0.29766477815E+03  0.00000000000E+00 0. -1.
         25    1    1    2    0    0  0.13184454256E+03 -0.23177334620E+03 -0.19195889857E+03  0.35153248236E+03  0.12500000000E+03 0.  0.
         21    1    1    2  503  504 -0.21950241968E+02  0.19574055003E+03  0.68690967737E+03  0.71459154831E+03  0.00000000000E+00 0.  1.
         21    1    1    2  504  502 -0.10989430060E+03  0.36032796168E+02  0.26476716861E+03  0.28892347305E+03  0.00000000000E+00 0.  1.
<mgrwt>
<rscale>  4 0.28670039E+03</rscale>
<asrwt>0</asrwt>
<pdfrwt beam="1">  1       21 0.16267426E+00 0.28670039E+03</pdfrwt>
<pdfrwt beam="2">  1       21 0.45794582E-01 0.28670039E+03</pdfrwt>
<totfact> 0.10131382E+03</totfact>
</mgrwt>
</event>
<event>
 5    0  0.1200001E+000  0.2427955E+03  0.7546771E-02  0.1117944E+00
         21   -1    0    0  502  501  0.00000000000E+00  0.00000000000E+00  0.20324156915E+04  0.20324156915E+04  0.00000000000E+00 0.  1.
         21   -1    0    0  504  502 -0.00000000000E+00 -0.00000000000E+00 -0.75314799763E+02  0.75314799763E+02  0.00000000000E+00 0. -1.
         25    1    1    2    0    0 -0.19540223081E+03 -0.49805070328E+02  0.19014398427E+03  0.30404327256E+03  0.12500000000E+03 0.  0.
         21    1    1    2  503  501  0.20164330749E+03  0.15305541615E+03  0.10998095203E+04  0.11285685468E+04  0.00000000000E+00 0.  1.
         21    1    1    2  504  503 -0.62410766827E+01 -0.10325034583E+03  0.66714738716E+03  0.67511867189E+03  0.00000000000E+00 0.  1.
<mgrwt>
<rscale>  4 0.24279554E+03</rscale>
<asrwt>0</asrwt>
<pdfrwt beam="1">  1       21 0.31267930E+00 0.24279554E+03</pdfrwt>
<pdfrwt beam="2">  1       21 0.11586894E-01 0.24279554E+03</pdfrwt>
<totfact> 0.16989158E+03</totfact>
</mgrwt>
</event>
<event>
 5    0  0.1200001E+000  0.2291468E+03  0.7546771E-02  0.1127242E+00
         21   -1    0    0  503  501  0.00000000000E+00  0.00000000000E+00  0.10835868421E+04  0.10835868421E+04  0.00000000000E+00 0.  1.
         21   -1    0    0  501  502 -0.00000000000E+00 -0.00000000000E+00 -0.10290559519E+04  0.10290559519E+04  0.00000000000E+00 0.  1.
         25    1    1    2    0    0  0.16984344321E+03  0.11117932183E+03 -0.85497918102E+03  0.88759339609E+03  0.12500000000E+03 0.  0.
         21    1    1    2  503  504 -0.76629919876E+02 -0.17634383012E+03  0.10367267014E+04  0.10544057779E+04  0.00000000000E+00 0.  1.
         21    1    1    2  504  502 -0.93213523332E+02  0.65164508293E+02 -0.12721663021E+03  0.17064362008E+03  0.00000000000E+00 0.  1.
<mgrwt>
<rscale>  4 0.22914679E+03</rscale>
<asrwt>0</asrwt>
<pdfrwt beam="1">  1       21 0.16670567E+00 0.22914679E+03</pdfrwt>
<pdfrwt beam="2">  1       21 0.15831630E+00 0.22914679E+03</pdfrwt>
<totfact> 0.55377643E+01</totfact>
</mgrwt>
</event>
<event>
 5    0  0.1200001E+000  0.1796238E+03  0.7546771E-02  0.1168168E+00
         21   -1    0    0  503  501  0.00000000000E+00  0.00000000000E+00  0.75954321179E+03  0.75954321179E+03  0.00000000000E+00 0. -1.
         21   -1    0    0  501  502 -0.00000000000E+00 -0.00000000000E+00 -0.16784796155E+03  0.16784796155E+03  0.00000000000E+00 0. -1.
         25    1    1    2    0    0  0.17382544962E+02 -0.20158679914E+03  0.13998044931E+02  0.23824427741E+03  0.12500000000E+03 0.  0.
         21    1    1    2  503  504 -0.81261385275E+02  0.96874790135E+02  0.54873594704E+03  0.56311568729E+03  0.00000000000E+00 0. -1.
         21    1    1    2  504  502  0.63878840313E+02  0.10471200901E+03  0.28961258280E+02  0.12603120864E+03  0.00000000000E+00 0.  1.
<mgrwt>
<rscale>  4 0.17962383E+03</rscale>
<asrwt>0</asrwt>
<pdfrwt beam="1">  1       21 0.11685280E+00 0.17962383E+03</pdfrwt>
<pdfrwt beam="2">  1       21 0.25822764E-01 0.17962383E+03</pdfrwt>
<totfact> 0.81066704E+03</totfact>
</mgrwt>
</event>
<event>
 5    0  0.1200001E+000  0.2332240E+03  0.7546771E-02  0.1124391E+00
         21   -1    0    0  502  501  0.00000000000E+00  0.00000000000E+00  0.76430193245E+03  0.76430193245E+03  0.00000000000E+00 0. -1.
         21   -1    0    0  503  502 -0.00000000000E+00 -0.00000000000E+00 -0.32202162055E+03  0.32202162055E+03  0.00000000000E+00 0. -1.
         25    1    1    2    0    0  0.98456276729E+02 -0.19557989126E+03 -0.23448614091E+03  0.34431654415E+03  0.12500000000E+03 0.  0.
         21    1    1    2  503  504 -0.79087510149E+02  0.10966084366E+03  0.12788665104E+03  0.18610569687E+03  0.00000000000E+00 0. -1.
         21    1    1    2  504  501 -0.19368766579E+02  0.85919047601E+02  0.54887980178E+03  0.55590131198E+03  0.00000000000E+00 0. -1.
<mgrwt>
<rscale>  4 0.23322400E+03</rscale>
<asrwt>0</asrwt>
<pdfrwt beam="1">  1       21 0.11758491E+00 0.23322400E+03</pdfrwt>
<pdfrwt beam="2">  1       21 0.49541788E-01 0.23322400E+03</pdfrwt>
<totfact> 0.20831399E+03</totfact>
</mgrwt>
</event>
<event>
 5    0  0.1200001E+000  0.2509662E+03  0.7546771E-02  0.1112696E+00
         21   -1    0    0  503  501  0.00000000000E+00  0.00000000000E+00  0.27704284404E+03  0.27704284404E+03  0.00000000000E+00 0.  1.
         21   -1    0    0  504  502 -0.00000000000E+00 -0.00000000000E+00 -0.23626489314E+03  0.23626489314E+03  0.00000000000E+00 0.  1.
         25    1    1    2    0    0  0.55559819496E+02  0.20301894372E+03 -0.16425678360E+02  0.24535359781E+03  0.12500000000E+03 0.  0.
         21    1    1    2  503  502 -0.42151112903E+02 -0.22181598032E+03  0.23368475539E+02  0.22699147802E+03  0.00000000000E+00 0.  1.
         21    1    1    2  504  501 -0.13408706593E+02  0.18797036599E+02  0.33835153725E+02  0.40962661352E+02  0.00000000000E+00 0.  1.
<mgrwt>
<rscale>  4 0.25096623E+03</rscale>
<asrwt>0</asrwt>
<pdfrwt beam="1">  1       21 0.42621976E-01 0.25096623E+03</pdfrwt>
<pdfrwt beam="2">  1       21 0.36348445E-01 0.25096623E+03</pdfrwt>
<totfact> 0.37598320E+04</totfact>
</mgrwt>
</event>
<event>
 5    0  0.1235481E+000  0.2490547E+03  0.7546771E-02  0.1113904E+00
         21   -1    0    0  503  501  0.00000000000E+00  0.00000000000E+00  0.20633635602E+03  0.20633635602E+03  0.00000000000E+00 0. -1.
         21   -1    0    0  504  502 -0.00000000000E+00 -0.00000000000E+00 -0.50160626096E+03  0.50160626096E+03  0.00000000000E+00 0. -1.
         25    1    1    2    0    0 -0.16944904696E+03 -0.13769273129E+03 -0.38715253209E+03  0.46171890894E+03  0.12500000000E+03 0.  0.
         21    1    1    2  503  502  0.16874421000E+03  0.11565248131E+03  0.73048515596E+02  0.21722382575E+03  0.00000000000E+00 0. -1.
         21    1    1    2  504  501  0.70483695834E+00  0.22040249988E+02  0.18834111560E+02  0.28999882291E+02  0.00000000000E+00 0.  1.
<mgrwt>
<rscale>  4 0.24905472E+03</rscale>
<asrwt>0</asrwt>
<pdfrwt beam="1">  1       21 0.31744055E-01 0.24905472E+03</pdfrwt>
<pdfrwt beam="2">  1       21 0.77170194E-01 0.24905472E+03</pdfrwt>
<totfact> 0.13763583E+04</totfact>
</mgrwt>
</event>
<event>
 5    0  0.1200001E+000  0.4074914E+03  0.7546771E-02  0.1041216E+00
         21   -1    0    0  503  501  0.00000000000E+00  0.00000000000E+00  0.13112267307E+04  0.13112267307E+04  0.00000000000E+00 0. -1.
         21   -1    0    0  501  502 -0.00000000000E+00 -0.00000000000E+00 -0.41434416550E+03  0.41434416550E+03  0.00000000000E+00 0. -1.
         25    1    1    2    0    0 -0.38414653658E+03 -0.12285804544E+02 -0.24884417226E+03  0.47462398235E+03  0.12500000000E+03 0.  0.
         21    1    1    2  503  504 -0.28908283954E+02 -0.58513627475E+02  0.30080069949E+03  0.30779960087E+03  0.00000000000E+00 0. -1.
         21    1    1    2  504  502  0.41305482053E+03  0.70799432019E+02  0.84492603794E+03  0.94314731295E+03  0.00000000000E+00 0. -1.
<mgrwt>
<rscale>  4 0.40749144E+03</rscale>
<asrwt>0</asrwt>
<pdfrwt beam="1">  1       21 0.20172719E+00 0.40749144E+03</pdfrwt>
<pdfrwt beam="2">  1       21 0.63745257E-01 0.40749144E+03</pdfrwt>
<totfact> 0.24713571E+02</totfact>
</mgrwt>
</event>
<event>
 5    0  0.1200001E+000  0.2470329E+03  0.7546771E-02  0.1115194E+00
         21   -1    0    0  503  501  0.00000000000E+00  0.00000000000E+00  0.60048653400E+03  0.60048653400E+03  0.00000000000E+00 0.  1.
         21   -1    0    0  501  502 -0.00000000000E+00 -0.00000000000E+00 -0.23004183672E+03  0.23004183672E+03  0.00000000000E+00 0. -1.
         25    1    1    2    0    0 -0.37684619964E+01 -0.21304003475E+03 -0.13342557230E+03  0.28076260623E+03  0.12500000000E+03 0.  0.
         21    1    1    2  503  504 -0.68764133232E+01  0.24326804384E+02  0.11031727765E+03  0.11317676537E+03  0.00000000000E+00 0.  1.
         21    1    1    2  504  502  0.10644875320E+02  0.18871323037E+03  0.39355299193E+03  0.43658899911E+03  0.00000000000E+00 0.  1.
<mgrwt>
<rscale>  4 0.24703291E+03</rscale>
<asrwt>0</asrwt>
<pdfrwt beam="1">  1       21 0.92382543E-01 0.24703291E+03</pdfrwt>
<pdfrwt beam="2">  1       21 0.35391052E-01 0.24703291E+03</pdfrwt>
<totfact> 0.73382088E+03</totfact>
</mgrwt>
</event>
<event>
 5    0  0.1200001E+000  0.2559153E+03  0.7546771E-02  0.1109623E+00
         21   -1    0    0  503  501  0.00000000000E+00  0.00000000000E+00  0.11014642412E+04  0.11014642412E+04  0.00000000000E+00 0.  1.
         21   -1    0    0  501  502 -0.00000000000E+00 -0.00000000000E+00 -0.78942411932E+02  0.78942411932E+02  0.00000000000E+00 0.  1.
         25    1    1    2    0    0  0.19541644639E+03 -0.86681894008E+02  0.29205883637E+03  0.38291605107E+03  0.12500000000E+03 0.  0.
         21    1    1    2  503  504  0.20586685805E+02 -0.60794750383E+01  0.34729544872E+03  0.34795818765E+03  0.00000000000E+00 0. -1.
         21    1    1    2  504  502 -0.21600313219E+03  0.92761369046E+02  0.38316754423E+03  0.44953241447E+03  0.00000000000E+00 0.  1.
<mgrwt>
<rscale>  4 0.25591533E+03</rscale>
<asrwt>0</asrwt>
<pdfrwt beam="1">  1       21 0.16945603E+00 0.25591533E+03</pdfrwt>
<pdfrwt beam="2">  1       21 0.12144987E-01 0.25591533E+03</pdfrwt>
<totfact> 0.11841295E+04</totfact>
</mgrwt>
</event>
<event>
 5    0  0.1200001E+000  0.3663551E+03  0.7546771E-02  0.1056095E+00
         21   -1    0    0  502  501  0.00000000000E+00  0.00000000000E+00  0.61804216330E+03  0.61804216330E+03  0.00000000000E+00 0. -1.
         21   -1    0    0  503  502 -0.00000000000E+00 -0.00000000000E+00 -0.51628433979E+03  0.51628433979E+03  0.00000000000E+00 0. -1.
         25    1    1    2    0    0  0.65120929520E+02 -0.28563598870E+03 -0.13346435717E+03  0.34534966069E+03  0.12500000000E+03 0.  0.
         21    1    1    2  503  504 -0.30987366684E+02 -0.14861518362E+03  0.31171828357E+03  0.34672031670E+03  0.00000000000E+00 0. -1.
         21    1    1    2  504  501 -0.34133562836E+02  0.43425117232E+03 -0.76496102887E+02  0.44225652570E+03  0.00000000000E+00 0. -1.
<mgrwt>
<rscale>  4 0.36635513E+03</rscale>
<asrwt>0</asrwt>
<pdfrwt beam="1">  1       21 0.95083410E-01 0.36635513E+03</pdfrwt>
<pdfrwt beam="2">  1       21 0.79428360E-01 0.36635513E+03</pdfrwt>
<totfact> 0.11437475E+03</totfact>
</mgrwt>
</event>
<event>
 5    0  0.1200001E+000  0.2623783E+03  0.7546771E-02  0.1105723E+00
         21   -1    0    0  503  501  0.00000000000E+00  0.00000000000E+00  0.58524956250E+03  0.58524956250E+03  0.00000000000E+00 0.  1.
         21   -1    0    0  501  502 -0.00000000000E+00 -0.00000000000E+00 -0.18891399796E+03  0.18891399796E+03  0.00000000000E+00 0.  1.
         25    1    1    2    0    0 -0.22352317609E+03 -0.63270140408E+02 -0.41484009990E+02  0.26704240113E+03  0.12500000000E+03 0.  0.
         21    1    1    2  503  504  0.12187577260E+02 -0.16431034127E+02  0.90762504798E+02  0.93039498059E+02  0.00000000000E+00 0.  1.
         21    1    1    2  504  502  0.21133559883E+03  0.79701174535E+02  0.34705706973E+03  0.41408166127E+03  0.00000000000E+00 0.  1.
<mgrwt>
<rscale>  4 0.26237833E+03</rscale>
<asrwt>0</asrwt>
<pdfrwt beam="1">  1       21 0.90038394E-01 0.26237833E+03</pdfrwt>
<pdfrwt beam="2">  1       21 0.29063692E-01 0.26237833E+03</pdfrwt>
<totfact> 0.11407029E+04</totfact>
</mgrwt>
</event>
<event>
 5    0  0.1200001E+000  0.2347431E+03  0.7546771E-02  0.1123345E+00
         21   -1    0    0  503  501  0.00000000000E+00  0.00000000000E+00  0.18854998937E+03  0.18854998937E+03  0.00000000000E+00 0. -1.
         21   -1    0    0  501  502 -0.00000000000E+00 -0.00000000000E+00 -0.15892429132E+04  0.15892429132E+04  0.00000000000E+00 0. -1.
         25    1    1    2    0    0 -0.10674074198E+03 -0.18229423180E+03 -0.14227735770E+04  0.14437916831E+04  0.12500000000E+03 0.  0.
         21    1    1    2  503  504 -0.23034275332E+02  0.92523426304E+02  0.11616408707E+03  0.15028392256E+03  0.00000000000E+00 0. -1.
         21    1    1    2  504  502  0.12977501731E+03  0.89770805495E+02 -0.94083433939E+02  0.18371729690E+03  0.00000000000E+00 0. -1.
<mgrwt>
<rscale>  4 0.23474310E+03</rscale>
<asrwt>0</asrwt>
<pdfrwt beam="1">  1       21 0.29007691E-01 0.23474310E+03</pdfrwt>
<pdfrwt beam="2">  1       21 0.24449890E+00 0.23474310E+03</pdfrwt>
<totfact> 0.77655780E+02</totfact>
</mgrwt>
</event>
<event>
 5    0  0.1200001E+000  0.3048772E+03  0.7546771E-02  0.1082828E+00
         21   -1    0    0  503  501  0.00000000000E+00  0.00000000000E+00  0.19040996354E+03  0.19040996354E+03  0.00000000000E+00 0.  1.
         21   -1    0    0  501  502 -0.00000000000E+00 -0.00000000000E+00 -0.11535617798E+04  0.11535617798E+04  0.00000000000E+00 0.  1.
         25    1    1    2    0    0 -0.13706567964E+03 -0.19190439122E+03 -0.55041695105E+03  0.61171734969E+03  0.12500000000E+03 0.  0.
         21    1    1    2  503  504 -0.22072832841E+02 -0.16369575433E+03 -0.66876650117E+00  0.16517856152E+03  0.00000000000E+00 0.  1.
         21    1    1    2  504  502  0.15913851249E+03  0.35560014556E+03 -0.41206609872E+03  0.56707583213E+03  0.00000000000E+00 0.  1.
<mgrwt>
<rscale>  4 0.30487715E+03</rscale>
<asrwt>0</asrwt>
<pdfrwt beam="1">  1       21 0.29293841E-01 0.30487715E+03</pdfrwt>
<pdfrwt beam="2">  1       21 0.17747104E+00 0.30487715E+03</pdfrwt>
<totfact> 0.19323666E+03</totfact>
</mgrwt>
</event>
<event>
 5    0  0.1200001E+000  0.2645962E+03  0.7546771E-02  0.1104413E+00
         21   -1    0    0  503  501  0.00000000000E+00  0.00000000000E+00  0.47488999571E+03  0.47488999571E+03  0.00000000000E+00 0. -1.
         21   -1    0    0  501  502 -0.00000000000E+00 -0.00000000000E+00 -0.26756243632E+03  0.26756243632E+03  0.00000000000E+00 0.  1.
         25    1    1    2    0    0 -0.14291650251E+03  0.17131173092E+03  0.30949944023E+03  0.40148192903E+03  0.12500000000E+03 0.  0.
         21    1    1    2  503  504  0.11352783807E+02  0.23629875824E+02  0.53055160122E+02  0.59178600416E+02  0.00000000000E+00 0. -1.
         21    1    1    2  504  502  0.13156371870E+03 -0.19494160674E+03 -0.15522704096E+03  0.28179190259E+03  0.00000000000E+00 0.  1.
<mgrwt>
<rscale>  4 0.26459621E+03</rscale>
<asrwt>0</asrwt>
<pdfrwt beam="1">  1       21 0.73059999E-01 0.26459621E+03</pdfrwt>
<pdfrwt beam="2">  1       21 0.41163452E-01 0.26459621E+03</pdfrwt>
<totfact> 0.91651606E+03</totfact>
</mgrwt>
</event>
<event>
 5    0  0.1200001E+000  0.2991505E+03  0.7546771E-02  0.1085666E+00
         21   -1    0    0  503  501  0.00000000000E+00  0.00000000000E+00  0.21914236545E+04  0.21914236545E+04  0.00000000000E+00 0. -1.
         21   -1    0    0  504  502 -0.00000000000E+00 -0.00000000000E+00 -0.47305208706E+03  0.47305208706E+03  0.00000000000E+00 0.  1.
         25    1    1    2    0    0  0.31016258504E+03  0.18144134646E+03 -0.33027162400E+03  0.50381160862E+03  0.12500000000E+03 0.  0.
         21    1    1    2  503  502 -0.55091870429E+02 -0.92749139495E+02  0.14703030595E+02  0.10887468105E+03  0.00000000000E+00 0. -1.
         21    1    1    2  504  501 -0.25507071461E+03 -0.88692206963E+02  0.20339401609E+04  0.20517894519E+04  0.00000000000E+00 0. -1.
<mgrwt>
<rscale>  4 0.29915050E+03</rscale>
<asrwt>0</asrwt>
<pdfrwt beam="1">  1       21 0.33714209E+00 0.29915050E+03</pdfrwt>
<pdfrwt beam="2">  1       21 0.72777245E-01 0.29915050E+03</pdfrwt>
<totfact> 0.30237558E+01</totfact>
</mgrwt>
</event>
<event>
 5    0  0.1200001E+000  0.3296827E+03  0.7546771E-02  0.1071277E+00
         21   -1    0    0  503  501  0.00000000000E+00  0.00000000000E+00  0.87330631668E+02  0.87330631668E+02  0.00000000000E+00 0.  1.
         21   -1    0    0  501  502 -0.00000000000E+00 -0.00000000000E+00 -0.24904987398E+04  0.24904987398E+04  0.00000000000E+00 0.  1.
         25    1    1    2    0    0  0.19754686839E+03  0.20594373551E+03 -0.26760656885E+03  0.41070167165E+03  0.12500000000E+03 0.  0.
         21    1    1    2  503  504  0.12465700779E+02  0.19558455059E+02 -0.24661744160E+02  0.33854519421E+02  0.00000000000E+00 0.  1.
         21    1    1    2  504  502 -0.21001256916E+03 -0.22550219057E+03 -0.21108997952E+04  0.21332731804E+04  0.00000000000E+00 0.  1.
<mgrwt>
<rscale>  4 0.32968271E+03</rscale>
<asrwt>0</asrwt>
<pdfrwt beam="1">  1       21 0.13435482E-01 0.32968271E+03</pdfrwt>
<pdfrwt beam="2">  1       21 0.38315363E+00 0.32968271E+03</pdfrwt>
<totfact> 0.44985165E+02</totfact>
</mgrwt>
</event>
<event>
 5    0  0.1200001E+000  0.3626760E+03  0.7546771E-02  0.1057529E+00
         21   -1    0    0  503  501  0.00000000000E+00  0.00000000000E+00  0.25993007353E+03  0.25993007353E+03  0.00000000000E+00 0.  1.
         21   -1    0    0  501  502 -0.00000000000E+00 -0.00000000000E+00 -0.70769386003E+03  0.70769386003E+03  0.00000000000E+00 0.  1.
         25    1    1    2    0    0  0.33970615023E+03 -0.22552200767E+02 -0.50281929687E+03  0.61996864079E+03  0.12500000000E+03 0.  0.
         21    1    1    2  503  504 -0.20088548710E+02  0.67499309745E+01 -0.56675004881E+01  0.21936998866E+02  0.00000000000E+00 0.  1.
         21    1    1    2  504  502 -0.31961760152E+03  0.15802269792E+02  0.60723010860E+02  0.32571829390E+03  0.00000000000E+00 0.  1.
<mgrwt>
<rscale>  4 0.36267599E+03</rscale>
<asrwt>0</asrwt>
<pdfrwt beam="1">  1       21 0.39989242E-01 0.36267599E+03</pdfrwt>
<pdfrwt beam="2">  1       21 0.10887598E+00 0.36267599E+03</pdfrwt>
<totfact> 0.36391810E+03</totfact>
</mgrwt>
</event>
<event>
 5    0  0.1200001E+000  0.4702730E+03  0.7546771E-02  0.1021843E+00
         21   -1    0    0  503  501  0.00000000000E+00  0.00000000000E+00  0.34137697093E+03  0.34137697093E+03  0.00000000000E+00 0. -1.
         21   -1    0    0  504  502 -0.00000000000E+00 -0.00000000000E+00 -0.12282760928E+04  0.12282760928E+04  0.00000000000E+00 0. -1.
         25    1    1    2    0    0 -0.43387236347E+03  0.14231298474E+02 -0.81454663591E+03  0.93142846194E+03  0.12500000000E+03 0.  0.
         21    1    1    2  503  502  0.53113516496E+03  0.17918510178E+02 -0.67029407156E+02  0.53564781143E+03  0.00000000000E+00 0. -1.
         21    1    1    2  504  501 -0.97262801490E+02 -0.32149808652E+02 -0.53230787797E+01  0.10257679035E+03  0.00000000000E+00 0. -1.
<mgrwt>
<rscale>  4 0.47027297E+03</rscale>
<asrwt>0</asrwt>
<pdfrwt beam="1">  1       21 0.52519535E-01 0.47027297E+03</pdfrwt>
<pdfrwt beam="2">  1       21 0.18896555E+00 0.47027297E+03</pdfrwt>
<totfact> 0.44448543E+02</totfact>
</mgrwt>
</event>
<event>
 5    0  0.1200001E+000  0.3629111E+03  0.7546771E-02  0.1057437E+00
         21   -1    0    0  503  501  0.00000000000E+00  0.00000000000E+00  0.27238512797E+03  0.27238512797E+03  0.00000000000E+00 0. -1.
         21   -1    0    0  504  502 -0.00000000000E+00 -0.00000000000E+00 -0.57388127472E+03  0.57388127472E+03  0.00000000000E+00 0. -1.
         25    1    1    2    0    0  0.31881192446E+03  0.12206828088E+03 -0.18942816000E+03  0.40993869807E+03  0.12500000000E+03 0.  0.
         21    1    1    2  503  502 -0.33962333419E+03 -0.51390989967E+02 -0.67011235770E+02  0.34996506782E+03  0.00000000000E+00 0. -1.
         21    1    1    2  504  501  0.20811409726E+02 -0.70677290918E+02 -0.45056750983E+02  0.86362636802E+02  0.00000000000E+00 0. -1.
<mgrwt>
<rscale>  4 0.36291113E+03</rscale>
<asrwt>0</asrwt>
<pdfrwt beam="1">  1       21 0.41905405E-01 0.36291113E+03</pdfrwt>
<pdfrwt beam="2">  1       21 0.88289425E-01 0.36291113E+03</pdfrwt>
<totfact> 0.54699864E+03</totfact>
</mgrwt>
</event>
<event>
 5    0  0.1200001E+000  0.2868788E+03  0.7546771E-02  0.1091990E+00
         21   -1    0    0  503  501  0.00000000000E+00  0.00000000000E+00  0.10255612957E+04  0.10255612957E+04  0.00000000000E+00 0.  1.
         21   -1    0    0  504  502 -0.00000000000E+00 -0.00000000000E+00 -0.54618881383E+03  0.54618881383E+03  0.00000000000E+00 0. -1.
         25    1    1    2    0    0 -0.17373184641E+03 -0.22871600845E+03 -0.33439027351E+03  0.45818732195E+03  0.12500000000E+03 0.  0.
         21    1    1    2  503  502  0.15015322007E+03  0.16151552553E+03 -0.66566934142E+02  0.23035713839E+03  0.00000000000E+00 0. -1.
         21    1    1    2  504  501  0.23578626347E+02  0.67200482916E+02  0.88032968955E+03  0.88320564922E+03  0.00000000000E+00 0.  1.
<mgrwt>
<rscale>  4 0.28687883E+03</rscale>
<asrwt>0</asrwt>
<pdfrwt beam="1">  1       21 0.15777866E+00 0.28687883E+03</pdfrwt>
<pdfrwt beam="2">  1       21 0.84029049E-01 0.28687883E+03</pdfrwt>
<totfact> 0.29249393E+02</totfact>
</mgrwt>
</event>
<event>
 5    0  0.1200001E+000  0.2315416E+03  0.7546771E-02  0.1125559E+00
         21   -1    0    0  503  501  0.00000000000E+00  0.00000000000E+00  0.10034627840E+04  0.10034627840E+04  0.00000000000E+00 0.  1.
         21   -1    0    0  504  502 -0.00000000000E+00 -0.00000000000E+00 -0.53154067864E+03  0.53154067864E+03  0.00000000000E+00 0.  1.
         25    1    1    2    0    0  0.20316176961E+03  0.58560197672E+01 -0.47055765531E+03  0.52759691486E+03  0.12500000000E+03 0.  0.
         21    1    1    2  503  502 -0.14470230903E+03  0.24658017840E+02  0.14205655354E+03  0.20427148721E+03  0.00000000000E+00 0.  1.
         21    1    1    2  504  501 -0.58459460573E+02 -0.30514037607E+02  0.80042320712E+03  0.80313506057E+03  0.00000000000E+00 0.  1.
<mgrwt>
<rscale>  4 0.23154156E+03</rscale>
<asrwt>0</asrwt>
<pdfrwt beam="1">  1       21 0.15437889E+00 0.23154156E+03</pdfrwt>
<pdfrwt beam="2">  1       21 0.81775489E-01 0.23154156E+03</pdfrwt>
<totfact> 0.34716845E+02</totfact>
</mgrwt>
</event>
<event>
 5    0  0.1200001E+000  0.2858609E+03  0.7546771E-02  0.1092530E+00
         21   -1    0    0  503  501  0.00000000000E+00  0.00000000000E+00  0.10739399473E+04  0.10739399473E+04  0.00000000000E+00 0.  1.
         21   -1    0    0  501  502 -0.00000000000E+00 -0.00000000000E+00 -0.10241603294E+03  0.10241603294E+03  0.00000000000E+00 0.  1.
         25    1    1    2    0    0  0.24174665443E+03  0.64983758853E+02  0.69175368783E+03  0.74619869905E+03  0.12500000000E+03 0.  0.
         21    1    1    2  503  504  0.15396341872E+02 -0.28583143665E+02  0.12208504034E+03  0.12632814619E+03  0.00000000000E+00 0. -1.
         21    1    1    2  504  502 -0.25714299630E+03 -0.36400615188E+02  0.15768518622E+03  0.30382913502E+03  0.00000000000E+00 0.  1.
<mgrwt>
<rscale>  4 0.28586094E+03</rscale>
<asrwt>0</asrwt>
<pdfrwt beam="1">  1       21 0.16522152E+00 0.28586094E+03</pdfrwt>
<pdfrwt beam="2">  1       21 0.15756313E-01 0.28586094E+03</pdfrwt>
<totfact> 0.77669039E+03</totfact>
</mgrwt>
</event>
<event>
 5    0  0.1200001E+000  0.2559896E+03  0.7546771E-02  0.1109577E+00
         21   -1    0    0  503  501  0.00000000000E+00  0.00000000000E+00  0.19187863397E+03  0.19187863397E+03  0.00000000000E+00 0. -1.
         21   -1    0    0  504  502 -0.00000000000E+00 -0.00000000000E+00 -0.54601734851E+03  0.54601734851E+03  0.00000000000E+00 0. -1.
         25    1    1    2    0    0 -0.78898464053E+02 -0.20651267897E+03 -0.28448789994E+02  0.25555192790E+03  0.12500000000E+03 0.  0.
         21    1    1    2  503  502  0.46776846329E+02  0.21970361072E+03 -0.36581698246E+03  0.42927824843E+03  0.00000000000E+00 0. -1.
         21    1    1    2  504  501  0.32121617724E+02 -0.13190931759E+02  0.40127057914E+02  0.53065806153E+02  0.00000000000E+00 0. -1.
<mgrwt>
<rscale>  4 0.25598960E+03</rscale>
<asrwt>0</asrwt>
<pdfrwt beam="1">  1       21 0.29519790E-01 0.25598960E+03</pdfrwt>
<pdfrwt beam="2">  1       21 0.84002668E-01 0.25598960E+03</pdfrwt>
<totfact> 0.13037883E+04</totfact>
</mgrwt>
</event>
<event>
 5    0  0.1200001E+000  0.2615858E+03  0.7546771E-02  0.1106194E+00
         21   -1    0    0  502  501  0.00000000000E+00  0.00000000000E+00  0.27429034756E+03  0.27429034756E+03  0.00000000000E+00 0.  1.
         21   -1    0    0  503  502 -0.00000000000E+00 -0.00000000000E+00 -0.45491986766E+03  0.45491986766E+03  0.00000000000E+00 0.  1.
         25    1    1    2    0    0 -0.40907666926E+02  0.20647272175E+03 -0.30790986425E+03  0.39336739385E+03  0.12500000000E+03 0.  0.
         21    1    1    2  503  504 -0.33047039839E+02  0.14887114717E+02 -0.35940578803E+02  0.51043689437E+02  0.00000000000E+00 0.  1.
         21    1    1    2  504  501  0.73954706765E+02 -0.22135983647E+03  0.16322092296E+03  0.28479913193E+03  0.00000000000E+00 0.  1.
<mgrwt>
<rscale>  4 0.26158583E+03</rscale>
<asrwt>0</asrwt>
<pdfrwt beam="1">  1       21 0.42198515E-01 0.26158583E+03</pdfrwt>
<pdfrwt beam="2">  1       21 0.69987672E-01 0.26158583E+03</pdfrwt>
<totfact> 0.96024626E+03</totfact>
</mgrwt>
</event>
<event>
 5    0  0.1200001E+000  0.2707998E+03  0.7546771E-02  0.1100823E+00
         21   -1    0    0  502  501  0.00000000000E+00  0.00000000000E+00  0.14309450376E+03  0.14309450376E+03  0.00000000000E+00 0. -1.
         21   -1    0    0  503  502 -0.00000000000E+00 -0.00000000000E+00 -0.52836132523E+03  0.52836132523E+03  0.00000000000E+00 0. -1.
         25    1    1    2    0    0  0.19060964336E+03  0.14620355399E+03 -0.31355041856E+03  0.41430228134E+03  0.12500000000E+03 0.  0.
         21    1    1    2  503  504 -0.21804483664E+02  0.18856726134E+01 -0.17782217586E+01  0.21957990384E+02  0.00000000000E+00 0. -1.
         21    1    1    2  504  501 -0.16880515969E+03 -0.14808922660E+03 -0.69938181150E+02  0.23519555727E+03  0.00000000000E+00 0. -1.
<mgrwt>
<rscale>  4 0.27079977E+03</rscale>
<asrwt>0</asrwt>
<pdfrwt beam="1">  1       21 0.22014539E-01 0.27079977E+03</pdfrwt>
<pdfrwt beam="2">  1       21 0.81286358E-01 0.27079977E+03</pdfrwt>
<totfact> 0.24578331E+04</totfact>
</mgrwt>
</event>
<event>
 5    0  0.1200001E+000  0.3051773E+03  0.7546771E-02  0.1082681E+00
         21   -1    0    0  502  501  0.00000000000E+00  0.00000000000E+00  0.64386235449E+03  0.64386235449E+03  0.00000000000E+00 0.  1.
         21   -1    0    0  503  502 -0.00000000000E+00 -0.00000000000E+00 -0.44903374048E+03  0.44903374048E+03  0.00000000000E+00 0.  1.
         25    1    1    2    0    0 -0.12810748729E+03 -0.24787885048E+03 -0.28782868623E+03  0.41991166384E+03  0.12500000000E+03 0.  0.
         21    1    1    2  503  504  0.25504138651E+03  0.17112354113E+03  0.39616301411E+03  0.50127288866E+03  0.00000000000E+00 0.  1.
         21    1    1    2  504  501 -0.12693389921E+03  0.76755309350E+02  0.86494286132E+02  0.17171154247E+03  0.00000000000E+00 0. -1.
<mgrwt>
<rscale>  4 0.30517732E+03</rscale>
<asrwt>0</asrwt>
<pdfrwt beam="1">  1       21 0.99055746E-01 0.30517732E+03</pdfrwt>
<pdfrwt beam="2">  1       21 0.69082114E-01 0.30517732E+03</pdfrwt>
<totfact> 0.14705527E+03</totfact>
</mgrwt>
</event>
<event>
 5    0  0.1200001E+000  0.2870261E+03  0.7546771E-02  0.1091912E+00
         21   -1    0    0  503  501  0.00000000000E+00  0.00000000000E+00  0.15869010814E+03  0.15869010814E+03  0.00000000000E+00 0. -1.
         21   -1    0    0  504  502 -0.00000000000E+00 -0.00000000000E+00 -0.10705294392E+04  0.10705294392E+04  0.00000000000E+00 0. -1.
         25    1    1    2    0    0  0.30161215508E+02 -0.26484682042E+03 -0.47384957510E+03  0.55786374414E+03  0.12500000000E+03 0.  0.
         21    1    1    2  503  502 -0.11640250703E+03  0.23160700879E+03 -0.49781470427E+03  0.56125825602E+03  0.00000000000E+00 0. -1.
         21    1    1    2  504  501  0.86241291523E+02  0.33239811626E+02  0.59824948352E+02  0.11009754714E+03  0.00000000000E+00 0. -1.
<mgrwt>
<rscale>  4 0.28702613E+03</rscale>
<asrwt>0</asrwt>
<pdfrwt beam="1">  1       21 0.24413862E-01 0.28702613E+03</pdfrwt>
<pdfrwt beam="2">  1       21 0.16469684E+00 0.28702613E+03</pdfrwt>
<totfact> 0.34343661E+03</totfact>
</mgrwt>
</event>
<event>
 5    0  0.1200001E+000  0.2458838E+03  0.7546771E-02  0.1115934E+00
         21   -1    0    0  502  501  0.00000000000E+00  0.00000000000E+00  0.55369764285E+02  0.55369764285E+02  0.00000000000E+00 0.  1.
         21   -1    0    0  504  502 -0.00000000000E+00 -0.00000000000E+00 -0.13315114783E+04  0.13315114783E+04  0.00000000000E+00 0.  1.
         25    1    1    2    0    0  0.19661612048E+03 -0.78587212981E+02 -0.10234406252E+04  0.10525633293E+04  0.12500000000E+03 0.  0.
         21    1    1    2  503  501 -0.17259446889E+03  0.85678357192E+02 -0.23360811713E+03  0.30282401486E+03  0.00000000000E+00 0.  1.
         21    1    1    2  504  503 -0.24021651589E+02 -0.70911442109E+01 -0.19092971710E+02  0.31493898457E+02  0.00000000000E+00 0. -1.
<mgrwt>
<rscale>  4 0.24588381E+03</rscale>
<asrwt>0</asrwt>
<pdfrwt beam="1">  1       21 0.85184257E-02 0.24588381E+03</pdfrwt>
<pdfrwt beam="2">  1       21 0.20484791E+00 0.24588381E+03</pdfrwt>
<totfact> 0.12925449E+04</totfact>
</mgrwt>
</event>
<event>
 5    0  0.1200001E+000  0.2636007E+03  0.7546771E-02  0.1104999E+00
         21   -1    0    0  503  501  0.00000000000E+00  0.00000000000E+00  0.21542290854E+03  0.21542290854E+03  0.00000000000E+00 0.  1.
         21   -1    0    0  501  502 -0.00000000000E+00 -0.00000000000E+00 -0.62790891852E+03  0.62790891852E+03  0.00000000000E+00 0.  1.
         25    1    1    2    0    0  0.41616407630E+02  0.23519335232E+03 -0.20171759857E+03  0.33669396777E+03  0.12500000000E+03 0.  0.
         21    1    1    2  503  504  0.24998098163E+02 -0.16106775631E+02  0.10919674980E+03  0.11317359807E+03  0.00000000000E+00 0.  1.
         21    1    1    2  504  502 -0.66614505793E+02 -0.21908657669E+03 -0.31996516120E+03  0.39346426122E+03  0.00000000000E+00 0.  1.
<mgrwt>
<rscale>  4 0.26360072E+03</rscale>
<asrwt>0</asrwt>
<pdfrwt beam="1">  1       21 0.33141986E-01 0.26360072E+03</pdfrwt>
<pdfrwt beam="2">  1       21 0.96601371E-01 0.26360072E+03</pdfrwt>
<totfact> 0.74571695E+03</totfact>
</mgrwt>
</event>
<event>
 5    0  0.1200001E+000  0.2571604E+03  0.7546771E-02  0.1108861E+00
         21   -1    0    0  503  501  0.00000000000E+00  0.00000000000E+00  0.30156527005E+03  0.30156527005E+03  0.00000000000E+00 0. -1.
         21   -1    0    0  501  502 -0.00000000000E+00 -0.00000000000E+00 -0.41246981116E+03  0.41246981116E+03  0.00000000000E+00 0. -1.
         25    1    1    2    0    0 -0.12525767516E+03 -0.18068038597E+03 -0.12192327873E+03  0.28075821084E+03  0.12500000000E+03 0.  0.
         21    1    1    2  503  504  0.29991294583E+02 -0.28944498801E+02  0.15580365082E+03  0.16128248315E+03  0.00000000000E+00 0. -1.
         21    1    1    2  504  502  0.95266380576E+02  0.20962488477E+03 -0.14478491321E+03  0.27199438721E+03  0.00000000000E+00 0. -1.
<mgrwt>
<rscale>  4 0.25716041E+03</rscale>
<asrwt>0</asrwt>
<pdfrwt beam="1">  1       21 0.46394657E-01 0.25716041E+03</pdfrwt>
<pdfrwt beam="2">  1       21 0.63456894E-01 0.25716041E+03</pdfrwt>
<totfact> 0.98208048E+03</totfact>
</mgrwt>
</event>
<event>
 5    0  0.1200001E+000  0.2843006E+03  0.7546771E-02  0.1093363E+00
         21   -1    0    0  503  501  0.00000000000E+00  0.00000000000E+00  0.20272053664E+03  0.20272053664E+03  0.00000000000E+00 0. -1.
         21   -1    0    0  504  502 -0.00000000000E+00 -0.00000000000E+00 -0.41689181555E+03  0.41689181555E+03  0.00000000000E+00 0. -1.
         25    1    1    2    0    0  0.13132494261E+03 -0.21898760411E+03 -0.20867024620E+03  0.35266142822E+03  0.12500000000E+03 0.  0.
         21    1    1    2  503  502 -0.22612083798E+02  0.21693865627E+02  0.24396275738E+02  0.39712824244E+02  0.00000000000E+00 0. -1.
         21    1    1    2  504  501 -0.10871285881E+03  0.19729373848E+03 -0.29897308439E+02  0.22723809972E+03  0.00000000000E+00 0. -1.
<mgrwt>
<rscale>  4 0.28430057E+03</rscale>
<asrwt>0</asrwt>
<pdfrwt beam="1">  1       21 0.31187775E-01 0.28430057E+03</pdfrwt>
<pdfrwt beam="2">  1       21 0.64137201E-01 0.28430057E+03</pdfrwt>
<totfact> 0.21161678E+04</totfact>
</mgrwt>
</event>
<event>
 5    0  0.1200001E+000  0.2423043E+03  0.7546771E-02  0.1118267E+00
         21   -1    0    0  503  501  0.00000000000E+00  0.00000000000E+00  0.93530627624E+02  0.93530627624E+02  0.00000000000E+00 0.  1.
         21   -1    0    0  504  502 -0.00000000000E+00 -0.00000000000E+00 -0.91142278234E+03  0.91142278234E+03  0.00000000000E+00 0.  1.
         25    1    1    2    0    0 -0.20543110517E+03  0.10575351506E+02 -0.69651608337E+03  0.73693516094E+03  0.12500000000E+03 0.  0.
         21    1    1    2  503  502  0.21429418530E+03  0.12057856155E+02 -0.10798274626E+03  0.24026581787E+03  0.00000000000E+00 0.  1.
         21    1    1    2  504  501 -0.88630801247E+01 -0.22633207660E+02 -0.13393325093E+02  0.27752431161E+02  0.00000000000E+00 0.  1.
<mgrwt>
<rscale>  4 0.24230427E+03</rscale>
<asrwt>0</asrwt>
<pdfrwt beam="1">  1       21 0.14389326E-01 0.24230427E+03</pdfrwt>
<pdfrwt beam="2">  1       21 0.14021890E+00 0.24230427E+03</pdfrwt>
<totfact> 0.14603626E+04</totfact>
</mgrwt>
</event>
<event>
 5    0  0.1200001E+000  0.2477912E+03  0.7546771E-02  0.1114709E+00
         21   -1    0    0  503  501  0.00000000000E+00  0.00000000000E+00  0.47044813677E+03  0.47044813677E+03  0.00000000000E+00 0.  1.
         21   -1    0    0  504  502 -0.00000000000E+00 -0.00000000000E+00 -0.31737088929E+03  0.31737088929E+03  0.00000000000E+00 0.  1.
         25    1    1    2    0    0 -0.15342926914E+03 -0.14836363870E+03 -0.22570957688E+03  0.33484641705E+03  0.12500000000E+03 0.  0.
         21    1    1    2  503  502  0.13619108576E+03  0.17171423789E+03  0.34028876294E+03  0.40475947613E+03  0.00000000000E+00 0.  1.
         21    1    1    2  504  501  0.17238183376E+02 -0.23350599185E+02  0.38498061419E+02  0.48213132873E+02  0.00000000000E+00 0. -1.
<mgrwt>
<rscale>  4 0.24779121E+03</rscale>
<asrwt>0</asrwt>
<pdfrwt beam="1">  1       21 0.72376636E-01 0.24779121E+03</pdfrwt>
<pdfrwt beam="2">  1       21 0.48826291E-01 0.24779121E+03</pdfrwt>
<totfact> 0.66388309E+03</totfact>
</mgrwt>
</event>
<event>
 5    0  0.1200001E+000  0.2385804E+03  0.7546771E-02  0.1120742E+00
         21   -1    0    0  502  501  0.00000000000E+00  0.00000000000E+00  0.62939973311E+03  0.62939973311E+03  0.00000000000E+00 0. -1.
         21   -1    0    0  503  502 -0.00000000000E+00 -0.00000000000E+00 -0.14936008275E+03  0.14936008275E+03  0.00000000000E+00 0.  1.
         25    1    1    2    0    0  0.17794586468E+03 -0.92989387511E+02 -0.81112225933E+01  0.23664857675E+03  0.12500000000E+03 0.  0.
         21    1    1    2  503  504  0.18481680685E+02  0.80381386721E+01  0.26733936790E+02  0.33479659057E+02  0.00000000000E+00 0.  1.
         21    1    1    2  504  501 -0.19642754536E+03  0.84951248839E+02  0.46141693616E+03  0.50863158006E+03  0.00000000000E+00 0. -1.
<mgrwt>
<rscale>  4 0.23858044E+03</rscale>
<asrwt>0</asrwt>
<pdfrwt beam="1">  1       21 0.96830727E-01 0.23858044E+03</pdfrwt>
<pdfrwt beam="2">  1       21 0.22978475E-01 0.23858044E+03</pdfrwt>
<totfact> 0.15316997E+04</totfact>
</mgrwt>
</event>
<event>
 5    0  0.1200001E+000  0.2201157E+03  0.7546771E-02  0.1133797E+00
         21   -1    0    0  503  501  0.00000000000E+00  0.00000000000E+00  0.10337308510E+04  0.10337308510E+04  0.00000000000E+00 0. -1.
         21   -1    0    0  504  502 -0.00000000000E+00 -0.00000000000E+00 -0.73324196510E+02  0.73324196510E+02  0.00000000000E+00 0. -1.
         25    1    1    2    0    0 -0.50640675633E+02 -0.22812925553E+03  0.41046717336E+03  0.48858544356E+03  0.12500000000E+03 0.  0.
         21    1    1    2  503  502 -0.46788387736E+02  0.14962956413E+03  0.27884213992E+03  0.31989232358E+03  0.00000000000E+00 0. -1.
         21    1    1    2  504  501  0.97429063369E+02  0.78499691395E+02  0.27109734117E+03  0.29857728033E+03  0.00000000000E+00 0. -1.
<mgrwt>
<rscale>  4 0.22011572E+03</rscale>
<asrwt>0</asrwt>
<pdfrwt beam="1">  1       21 0.15903550E+00 0.22011572E+03</pdfrwt>
<pdfrwt beam="2">  1       21 0.11280646E-01 0.22011572E+03</pdfrwt>
<totfact> 0.16450723E+04</totfact>
</mgrwt>
</event>
<event>
 5    0  0.1200001E+000  0.2934508E+03  0.7546771E-02  0.1088561E+00
         21   -1    0    0  503  501  0.00000000000E+00  0.00000000000E+00  0.14453384161E+03  0.14453384161E+03  0.00000000000E+00 0. -1.
         21   -1    0    0  501  502 -0.00000000000E+00 -0.00000000000E+00 -0.88865565061E+03  0.88865565061E+03  0.00000000000E+00 0.  1.
         25    1    1    2    0    0  0.24797630031E+03 -0.77799575711E+02 -0.56473124630E+03  0.63410677338E+03  0.12500000000E+03 0.  0.
         21    1    1    2  503  504  0.93021781238E+01 -0.24403103543E+02  0.38681597588E+02  0.46672346977E+02  0.00000000000E+00 0.  1.
         21    1    1    2  504  502 -0.25727847843E+03  0.10220267925E+03 -0.21807216028E+03  0.35241037187E+03  0.00000000000E+00 0. -1.
<mgrwt>
<rscale>  4 0.29345079E+03</rscale>
<asrwt>0</asrwt>
<pdfrwt beam="1">  1       21 0.22235977E-01 0.29345079E+03</pdfrwt>
<pdfrwt beam="2">  1       21 0.13671625E+00 0.29345079E+03</pdfrwt>
<totfact> 0.67406143E+03</totfact>
</mgrwt>
</event>
<event>
 5    0  0.1200001E+000  0.2539597E+03  0.7546771E-02  0.1110828E+00
         21   -1    0    0  503  501  0.00000000000E+00  0.00000000000E+00  0.53838504481E+03  0.53838504481E+03  0.00000000000E+00 0.  1.
         21   -1    0    0  504  502 -0.00000000000E+00 -0.00000000000E+00 -0.36078436271E+03  0.36078436271E+03  0.00000000000E+00 0.  1.
         25    1    1    2    0    0  0.85472606003E+02 -0.21482456492E+03 -0.25882530960E+03  0.36887762328E+03  0.12500000000E+03 0.  0.
         21    1    1    2  503  502 -0.31699832830E+02  0.14124410494E+03  0.41089464273E+03  0.43564800471E+03  0.00000000000E+00 0.  1.
         21    1    1    2  504  501 -0.53772773173E+02  0.73580459975E+02  0.25531348974E+02  0.94643779538E+02  0.00000000000E+00 0.  1.
<mgrwt>
<rscale>  4 0.25395970E+03</rscale>
<asrwt>0</asrwt>
<pdfrwt beam="1">  1       21 0.82828468E-01 0.25395970E+03</pdfrwt>
<pdfrwt beam="2">  1       21 0.55505287E-01 0.25395970E+03</pdfrwt>
<totfact> 0.37182255E+03</totfact>
</mgrwt>
</event>
<event>
 5    0  0.1200001E+000  0.2442364E+03  0.7546771E-02  0.1117002E+00
         21   -1    0    0  503  501  0.00000000000E+00  0.00000000000E+00  0.13557758339E+03  0.13557758339E+03  0.00000000000E+00 0. -1.
         21   -1    0    0  501  502 -0.00000000000E+00 -0.00000000000E+00 -0.71239650306E+03  0.71239650306E+03  0.00000000000E+00 0. -1.
         25    1    1    2    0    0  0.41709675225E+02  0.22158623316E+03 -0.13983440183E+03  0.29328964467E+03  0.12500000000E+03 0.  0.
         21    1    1    2  503  504 -0.45059472469E+02 -0.15296831778E+02  0.21273539815E+02  0.52124011913E+02  0.00000000000E+00 0.  1.
         21    1    1    2  504  502  0.33497972444E+01 -0.20628940139E+03 -0.45825805765E+03  0.50256042987E+03  0.00000000000E+00 0. -1.
<mgrwt>
<rscale>  4 0.24423635E+03</rscale>
<asrwt>0</asrwt>
<pdfrwt beam="1">  1       21 0.20858090E-01 0.24423635E+03</pdfrwt>
<pdfrwt beam="2">  1       21 0.10959946E+00 0.24423635E+03</pdfrwt>
<totfact> 0.13617078E+04</totfact>
</mgrwt>
</event>
<event>
 5    0  0.1200001E+000  0.4025113E+03  0.7546771E-02  0.1042914E+00
         21   -1    0    0  503  501  0.00000000000E+00  0.00000000000E+00  0.56037039309E+03  0.56037039309E+03  0.00000000000E+00 0. -1.
         21   -1    0    0  501  502 -0.00000000000E+00 -0.00000000000E+00 -0.33603419395E+03  0.33603419395E+03  0.00000000000E+00 0. -1.
         25    1    1    2    0    0  0.34161671338E+03 -0.13720293462E+03  0.11454512641E+03  0.40530508276E+03  0.12500000000E+03 0.  0.
         21    1    1    2  503  504  0.26031644280E+02 -0.46702374519E+01  0.92980195115E+02  0.96668372829E+02  0.00000000000E+00 0.  1.
         21    1    1    2  504  502 -0.36764835766E+03  0.14187317207E+03  0.16810877622E+02  0.39443113145E+03  0.00000000000E+00 0. -1.
<mgrwt>
<rscale>  4 0.40251129E+03</rscale>
<asrwt>0</asrwt>
<pdfrwt beam="1">  1       21 0.86210830E-01 0.40251129E+03</pdfrwt>
<pdfrwt beam="2">  1       21 0.51697568E-01 0.40251129E+03</pdfrwt>
<totfact> 0.36644853E+03</totfact>
</mgrwt>
</event>
<event>
 5    0  0.1200001E+000  0.3573047E+03  0.7546771E-02  0.1059656E+00
         21   -1    0    0  503  501  0.00000000000E+00  0.00000000000E+00  0.89720203362E+03  0.89720203362E+03  0.00000000000E+00 0. -1.
         21   -1    0    0  504  502 -0.00000000000E+00 -0.00000000000E+00 -0.30897284234E+03  0.30897284234E+03  0.00000000000E+00 0. -1.
         25    1    1    2    0    0 -0.68626461302E+02 -0.33949538419E+03 -0.13058953726E+03  0.39069852101E+03  0.12500000000E+03 0.  0.
         21    1    1    2  503  502  0.95202413730E+02  0.27743991686E+03  0.44147070228E+03  0.53003093119E+03  0.00000000000E+00 0. -1.
         21    1    1    2  504  501 -0.26575952429E+02  0.62055467328E+02  0.27734802626E+03  0.28544542376E+03  0.00000000000E+00 0.  1.
<mgrwt>
<rscale>  4 0.35730469E+03</rscale>
<asrwt>0</asrwt>
<pdfrwt beam="1">  1       21 0.13803108E+00 0.35730469E+03</pdfrwt>
<pdfrwt beam="2">  1       21 0.47534284E-01 0.35730469E+03</pdfrwt>
<totfact> 0.13960596E+03</totfact>
</mgrwt>
</event>
<event>
 5    0  0.1200001E+000  0.2708219E+03  0.7546771E-02  0.1100810E+00
         21   -1    0    0  503  501  0.00000000000E+00  0.00000000000E+00  0.11858316512E+04  0.11858316512E+04  0.00000000000E+00 0. -1.
         21   -1    0    0  504  502 -0.00000000000E+00 -0.00000000000E+00 -0.18496247299E+03  0.18496247299E+03  0.00000000000E+00 0. -1.
         25    1    1    2    0    0 -0.19305914864E+03  0.16267255148E+03  0.72887195685E+02  0.29098408405E+03  0.12500000000E+03 0.  0.
         21    1    1    2  503  502  0.15808680261E+03 -0.16607195012E+03  0.98438079566E+02  0.24952231421E+03  0.00000000000E+00 0. -1.
         21    1    1    2  504  501  0.34972346023E+02  0.33993986449E+01  0.82954390294E+03  0.83028772591E+03  0.00000000000E+00 0. -1.
<mgrwt>
<rscale>  4 0.27082191E+03</rscale>
<asrwt>0</asrwt>
<pdfrwt beam="1">  1       21 0.18243563E+00 0.27082191E+03</pdfrwt>
<pdfrwt beam="2">  1       21 0.28455766E-01 0.27082191E+03</pdfrwt>
<totfact> 0.19336692E+03</totfact>
</mgrwt>
</event>
<event>
 5    0  0.1200001E+000  0.2446123E+03  0.7546771E-02  0.1116758E+00
         21   -1    0    0  502  501  0.00000000000E+00  0.00000000000E+00  0.41552517180E+03  0.41552517180E+03  0.00000000000E+00 0.  1.
         21   -1    0    0  503  502 -0.00000000000E+00 -0.00000000000E+00 -0.97730983437E+03  0.97730983437E+03  0.00000000000E+00 0.  1.
         25    1    1    2    0    0 -0.19916019481E+03 -0.49458256391E+02 -0.85162527281E+03  0.88487372410E+03  0.12500000000E+03 0.  0.
         21    1    1    2  503  504  0.24594060304E+03  0.82435154686E+02  0.53576967123E+02  0.26486378831E+03  0.00000000000E+00 0.  1.
         21    1    1    2  504  501 -0.46780408227E+02 -0.32976898294E+02  0.23626364311E+03  0.24309749376E+03  0.00000000000E+00 0.  1.
<mgrwt>
<rscale>  4 0.24461229E+03</rscale>
<asrwt>0</asrwt>
<pdfrwt beam="1">  1       21 0.63926949E-01 0.24461229E+03</pdfrwt>
<pdfrwt beam="2">  1       21 0.15035536E+00 0.24461229E+03</pdfrwt>
<totfact> 0.63734736E+02</totfact>
</mgrwt>
</event>
<event>
 5    0  0.1200001E+000  0.2733949E+03  0.7546771E-02  0.1099352E+00
         21   -1    0    0  503  501  0.00000000000E+00  0.00000000000E+00  0.15227767104E+04  0.15227767104E+04  0.00000000000E+00 0.  1.
         21   -1    0    0  504  502 -0.00000000000E+00 -0.00000000000E+00 -0.85080424552E+02  0.85080424552E+02  0.00000000000E+00 0. -1.
         25    1    1    2    0    0 -0.17363498269E+03  0.16034189232E+03  0.22420379405E+03  0.34892831773E+03  0.12500000000E+03 0.  0.
         21    1    1    2  503  502  0.20456305148E+03 -0.16363057092E+03  0.75069555866E+03  0.79508793700E+03  0.00000000000E+00 0.  1.
         21    1    1    2  504  501 -0.30928068791E+02  0.32886786004E+01  0.46279693313E+03  0.46384088022E+03  0.00000000000E+00 0. -1.
<mgrwt>
<rscale>  4 0.27339488E+03</rscale>
<asrwt>0</asrwt>
<pdfrwt beam="1">  1       21 0.23427332E+00 0.27339488E+03</pdfrwt>
<pdfrwt beam="2">  1       21 0.13089297E-01 0.27339488E+03</pdfrwt>
<totfact> 0.38567898E+03</totfact>
</mgrwt>
</event>
<event>
 5    0  0.1200001E+000  0.2778544E+03  0.7546771E-02  0.1096867E+00
         21   -1    0    0  503  501  0.00000000000E+00  0.00000000000E+00  0.24816566994E+04  0.24816566994E+04  0.00000000000E+00 0.  1.
         21   -1    0    0  504  502 -0.00000000000E+00 -0.00000000000E+00 -0.58153049379E+03  0.58153049379E+03  0.00000000000E+00 0.  1.
         25    1    1    2    0    0 -0.82968292836E+02 -0.22448512356E+03 -0.39347342022E+03  0.47720398232E+03  0.12500000000E+03 0.  0.
         21    1    1    2  503  502  0.13773023892E+03  0.24257738747E+03 -0.12434934018E+02  0.27922756885E+03  0.00000000000E+00 0.  1.
         21    1    1    2  504  501 -0.54761946080E+02 -0.18092263905E+02  0.23060345599E+04  0.23067556420E+04  0.00000000000E+00 0.  1.
<mgrwt>
<rscale>  4 0.27785443E+03</rscale>
<asrwt>0</asrwt>
<pdfrwt beam="1">  1       21 0.38179333E+00 0.27785443E+03</pdfrwt>
<pdfrwt beam="2">  1       21 0.89466231E-01 0.27785443E+03</pdfrwt>
<totfact> 0.10371647E+01</totfact>
</mgrwt>
</event>
<event>
 5    0  0.1200001E+000  0.2361945E+03  0.7546771E-02  0.1122354E+00
         21   -1    0    0  503  501  0.00000000000E+00  0.00000000000E+00  0.10453935989E+04  0.10453935989E+04  0.00000000000E+00 0.  1.
         21   -1    0    0  504  502 -0.00000000000E+00 -0.00000000000E+00 -0.25769432189E+03  0.25769432189E+03  0.00000000000E+00 0.  1.
         25    1    1    2    0    0 -0.97726547924E+02 -0.19173163875E+03 -0.65123131994E+02  0.25724992087E+03  0.12500000000E+03 0.  0.
         21    1    1    2  503  502  0.85558179067E+02  0.16571400458E+03 -0.59431774718E+01  0.18659221494E+03  0.00000000000E+00 0.  1.
         21    1    1    2  504  501  0.12168368857E+02  0.26017634175E+02  0.85876558648E+03  0.85924578499E+03  0.00000000000E+00 0.  1.
<mgrwt>
<rscale>  4 0.23619454E+03</rscale>
<asrwt>0</asrwt>
<pdfrwt beam="1">  1       21 0.16082978E+00 0.23619454E+03</pdfrwt>
<pdfrwt beam="2">  1       21 0.39645281E-01 0.23619454E+03</pdfrwt>
<totfact> 0.14614893E+03</totfact>
</mgrwt>
</event>
<event>
 5    0  0.1200001E+000  0.2800029E+03  0.7546771E-02  0.1095687E+00
         21   -1    0    0  503  501  0.00000000000E+00  0.00000000000E+00  0.10035740805E+04  0.10035740805E+04  0.00000000000E+00 0.  1.
         21   -1    0    0  501  502 -0.00000000000E+00 -0.00000000000E+00 -0.41354294050E+03  0.41354294050E+03  0.00000000000E+00 0.  1.
         25    1    1    2    0    0 -0.17726490863E+03 -0.17432516188E+03 -0.32847213954E+03  0.43050093652E+03  0.12500000000E+03 0.  0.
         21    1    1    2  503  504  0.14345308673E+01 -0.34225567327E+02  0.39338627124E+03  0.39487492417E+03  0.00000000000E+00 0.  1.
         21    1    1    2  504  502  0.17583037776E+03  0.20855072921E+03  0.52511700826E+03  0.59174116027E+03  0.00000000000E+00 0.  1.
<mgrwt>
<rscale>  4 0.28000287E+03</rscale>
<asrwt>0</asrwt>
<pdfrwt beam="1">  1       21 0.15439601E+00 0.28000287E+03</pdfrwt>
<pdfrwt beam="2">  1       21 0.63621991E-01 0.28000287E+03</pdfrwt>
<totfact> 0.58259516E+02</totfact>
</mgrwt>
</event>
<event>
 5    0  0.1200001E+000  0.2344514E+03  0.7546771E-02  0.1123545E+00
         21   -1    0    0  503  501  0.00000000000E+00  0.00000000000E+00  0.34959105941E+04  0.34959105941E+04  0.00000000000E+00 0. -1.
         21   -1    0    0  504  502 -0.00000000000E+00 -0.00000000000E+00 -0.58904492234E+02  0.58904492234E+02  0.00000000000E+00 0. -1.
         25    1    1    2    0    0 -0.90410372928E+02  0.17915752508E+03  0.19694440601E+03  0.30770692775E+03  0.12500000000E+03 0.  0.
         21    1    1    2  503  502  0.84862242942E+02 -0.15525547612E+03  0.23270595549E+04  0.23337763464E+04  0.00000000000E+00 0. -1.
         21    1    1    2  504  501  0.55481299857E+01 -0.23902048962E+02  0.91300214100E+03  0.91333181219E+03  0.00000000000E+00 0. -1.
<mgrwt>
<rscale>  4 0.23445142E+03</rscale>
<asrwt>0</asrwt>
<pdfrwt beam="1">  1       21 0.53783224E+00 0.23445142E+03</pdfrwt>
<pdfrwt beam="2">  1       21 0.90622323E-02 0.23445142E+03</pdfrwt>
<totfact> 0.90929659E+01</totfact>
</mgrwt>
</event>
<event>
 5    0  0.1200001E+000  0.1841495E+03  0.7546771E-02  0.1163846E+00
         21   -1    0    0  503  501  0.00000000000E+00  0.00000000000E+00  0.35450449842E+03  0.35450449842E+03  0.00000000000E+00 0. -1.
         21   -1    0    0  501  502 -0.00000000000E+00 -0.00000000000E+00 -0.64981946069E+03  0.64981946069E+03  0.00000000000E+00 0.  1.
         25    1    1    2    0    0  0.23123039943E+03  0.20925867951E+02 -0.29713965657E+03  0.39726863087E+03  0.12500000000E+03 0.  0.
         21    1    1    2  503  504 -0.13119676502E+03  0.47802260095E+00  0.28078789664E+03  0.30992686646E+03  0.00000000000E+00 0. -1.
         21    1    1    2  504  502 -0.10003363441E+03 -0.21403890552E+02 -0.27896320234E+03  0.29712846179E+03  0.00000000000E+00 0.  1.
<mgrwt>
<rscale>  4 0.18414952E+03</rscale>
<asrwt>0</asrwt>
<pdfrwt beam="1">  1       21 0.54539154E-01 0.18414952E+03</pdfrwt>
<pdfrwt beam="2">  1       21 0.99972224E-01 0.18414952E+03</pdfrwt>
<totfact> 0.26282220E+03</totfact>
</mgrwt>
</event>
<event>
 5    0  0.1200001E+000  0.2678055E+03  0.7546771E-02  0.1102542E+00
         21   -1    0    0  503  501  0.00000000000E+00  0.00000000000E+00  0.64478145011E+03  0.64478145011E+03  0.00000000000E+00 0.  1.
         21   -1    0    0  501  502 -0.00000000000E+00 -0.00000000000E+00 -0.25541834439E+03  0.25541834439E+03  0.00000000000E+00 0.  1.
         25    1    1    2    0    0 -0.16242240449E+03 -0.14947952186E+03 -0.79554275661E+02  0.26585531350E+03  0.12500000000E+03 0.  0.
         21    1    1    2  503  504 -0.78364236180E+02 -0.37712256414E+01  0.28309617778E+03  0.29376627024E+03  0.00000000000E+00 0. -1.
         21    1    1    2  504  502  0.24078664067E+03  0.15325074750E+03  0.18582120360E+03  0.34057821076E+03  0.00000000000E+00 0.  1.
<mgrwt>
<rscale>  4 0.26780546E+03</rscale>
<asrwt>0</asrwt>
<pdfrwt beam="1">  1       21 0.99197146E-01 0.26780546E+03</pdfrwt>
<pdfrwt beam="2">  1       21 0.39295130E-01 0.26780546E+03</pdfrwt>
<totfact> 0.49616065E+03</totfact>
</mgrwt>
</event>
<event>
 5    0  0.1200001E+000  0.2398638E+03  0.7546771E-02  0.1119884E+00
         21   -1    0    0  502  501  0.00000000000E+00  0.00000000000E+00  0.29060343685E+03  0.29060343685E+03  0.00000000000E+00 0. -1.
         21   -1    0    0  503  502 -0.00000000000E+00 -0.00000000000E+00 -0.78274159996E+03  0.78274159996E+03  0.00000000000E+00 0.  1.
         25    1    1    2    0    0  0.92914789448E+02 -0.18876498539E+03 -0.70721308884E+03  0.74835869130E+03  0.12500000000E+03 0.  0.
         21    1    1    2  503  504  0.17132424145E+02  0.78902379887E+02  0.37724984997E+02  0.89119470386E+02  0.00000000000E+00 0.  1.
         21    1    1    2  504  501 -0.11004721359E+03  0.10986260550E+03  0.17734994073E+03  0.23586687513E+03  0.00000000000E+00 0. -1.
<mgrwt>
<rscale>  4 0.23986379E+03</rscale>
<asrwt>0</asrwt>
<pdfrwt beam="1">  1       21 0.44708221E-01 0.23986379E+03</pdfrwt>
<pdfrwt beam="2">  1       21 0.12042179E+00 0.23986379E+03</pdfrwt>
<totfact> 0.24178836E+03</totfact>
</mgrwt>
</event>
<event>
 5    0  0.1200001E+000  0.2494347E+03  0.7546771E-02  0.1113663E+00
         21   -1    0    0  503  501  0.00000000000E+00  0.00000000000E+00  0.95170956923E+03  0.95170956923E+03  0.00000000000E+00 0.  1.
         21   -1    0    0  501  502 -0.00000000000E+00 -0.00000000000E+00 -0.48302387594E+03  0.48302387594E+03  0.00000000000E+00 0.  1.
         25    1    1    2    0    0 -0.11925941677E+03 -0.17641730664E+03 -0.41412275048E+03  0.48214990100E+03  0.12500000000E+03 0.  0.
         21    1    1    2  503  504 -0.23663284613E+02 -0.38557569830E+02  0.42179272770E+03  0.42421190739E+03  0.00000000000E+00 0.  1.
         21    1    1    2  504  502  0.14292270138E+03  0.21497487647E+03  0.46101571607E+03  0.52837163677E+03  0.00000000000E+00 0.  1.
<mgrwt>
<rscale>  4 0.24943471E+03</rscale>
<asrwt>0</asrwt>
<pdfrwt beam="1">  1       21 0.14641686E+00 0.24943471E+03</pdfrwt>
<pdfrwt beam="2">  1       21 0.74311366E-01 0.24943471E+03</pdfrwt>
<totfact> 0.48796196E+02</totfact>
</mgrwt>
</event>
<event>
 5    0  0.1200001E+000  0.2893221E+03  0.7546771E-02  0.1090704E+00
         21   -1    0    0  502  501  0.00000000000E+00  0.00000000000E+00  0.11263675633E+03  0.11263675633E+03  0.00000000000E+00 0. -1.
         21   -1    0    0  504  502 -0.00000000000E+00 -0.00000000000E+00 -0.10992727093E+04  0.10992727093E+04  0.00000000000E+00 0.  1.
         25    1    1    2    0    0 -0.11147054424E+03 -0.23591645682E+03 -0.86215791219E+03  0.90940833644E+03  0.12500000000E+03 0.  0.
         21    1    1    2  503  501  0.53291892360E+02  0.19928966552E+03 -0.10230022566E+03  0.23026448433E+03  0.00000000000E+00 0. -1.
         21    1    1    2  504  503  0.58178651885E+02  0.36626791298E+02 -0.22177815097E+02  0.72236644845E+02  0.00000000000E+00 0. -1.
<mgrwt>
<rscale>  4 0.28932206E+03</rscale>
<asrwt>0</asrwt>
<pdfrwt beam="1">  1       21 0.17328732E-01 0.28932206E+03</pdfrwt>
<pdfrwt beam="2">  1       21 0.16911887E+00 0.28932206E+03</pdfrwt>
<totfact> 0.60914558E+03</totfact>
</mgrwt>
</event>
<event>
 5    0  0.1200001E+000  0.2698383E+03  0.7546771E-02  0.1101372E+00
         21   -1    0    0  503  501  0.00000000000E+00  0.00000000000E+00  0.29558266535E+04  0.29558266535E+04  0.00000000000E+00 0. -1.
         21   -1    0    0  501  502 -0.00000000000E+00 -0.00000000000E+00 -0.35639865495E+02  0.35639865495E+02  0.00000000000E+00 0.  1.
         25    1    1    2    0    0  0.20613533719E+02 -0.23292204200E+03  0.62277685113E+03  0.67687044678E+03  0.12500000000E+03 0.  0.
         21    1    1    2  503  504 -0.64203587111E+01 -0.22304782286E+02  0.29986366977E+03  0.30076061040E+03  0.00000000000E+00 0. -1.
         21    1    1    2  504  502 -0.14193175008E+02  0.25522682428E+03  0.19975462671E+04  0.20138354618E+04  0.00000000000E+00 0. -1.
<mgrwt>
<rscale>  4 0.26983833E+03</rscale>
<asrwt>0</asrwt>
<pdfrwt beam="1">  1       21 0.45474237E+00 0.26983833E+03</pdfrwt>
<pdfrwt beam="2">  1       21 0.54830586E-02 0.26983833E+03</pdfrwt>
<totfact> 0.80167320E+02</totfact>
</mgrwt>
</event>
<event>
 5    0  0.1200001E+000  0.2832061E+03  0.7546771E-02  0.1093951E+00
         21   -1    0    0  503  501  0.00000000000E+00  0.00000000000E+00  0.24050190659E+03  0.24050190659E+03  0.00000000000E+00 0. -1.
         21   -1    0    0  501  502 -0.00000000000E+00 -0.00000000000E+00 -0.83983184821E+03  0.83983184821E+03  0.00000000000E+00 0.  1.
         25    1    1    2    0    0 -0.56801525255E+02 -0.24769796884E+03 -0.73410636346E+03  0.78684042213E+03  0.12500000000E+03 0.  0.
         21    1    1    2  503  504  0.15283155871E+02  0.58099457071E+02  0.61658343873E+02  0.86086428283E+02  0.00000000000E+00 0. -1.
         21    1    1    2  504  502  0.41518369383E+02  0.18959851177E+03  0.73118077970E+02  0.20740690438E+03  0.00000000000E+00 0. -1.
<mgrwt>
<rscale>  4 0.28320610E+03</rscale>
<asrwt>0</asrwt>
<pdfrwt beam="1">  1       21 0.37000294E-01 0.28320610E+03</pdfrwt>
<pdfrwt beam="2">  1       21 0.12920490E+00 0.28320610E+03</pdfrwt>
<totfact> 0.28917968E+03</totfact>
</mgrwt>
</event>
<event>
 5    0  0.1200001E+000  0.2006153E+03  0.7546771E-02  0.1149221E+00
         21   -1    0    0  503  501  0.00000000000E+00  0.00000000000E+00  0.54685005774E+03  0.54685005774E+03  0.00000000000E+00 0. -1.
         21   -1    0    0  504  502 -0.00000000000E+00 -0.00000000000E+00 -0.23955055573E+03  0.23955055573E+03  0.00000000000E+00 0. -1.
         25    1    1    2    0    0  0.21982221881E+03  0.34190478134E+02 -0.78816524122E+02  0.26707272633E+03  0.12500000000E+03 0.  0.
         21    1    1    2  503  502 -0.74668639367E+02 -0.83132316893E+02  0.87830850844E+01  0.11208715538E+03  0.00000000000E+00 0. -1.
         21    1    1    2  504  501 -0.14515357944E+03  0.48941838759E+02  0.37733294105E+03  0.40724073176E+03  0.00000000000E+00 0. -1.
<mgrwt>
<rscale>  4 0.20061529E+03</rscale>
<asrwt>0</asrwt>
<pdfrwt beam="1">  1       21 0.84130778E-01 0.20061529E+03</pdfrwt>
<pdfrwt beam="2">  1       21 0.36853932E-01 0.20061529E+03</pdfrwt>
<totfact> 0.86613154E+03</totfact>
</mgrwt>
</event>
<event>
 5    0  0.1200001E+000  0.2921651E+03  0.7546771E-02  0.1089224E+00
         21   -1    0    0  502  501  0.00000000000E+00  0.00000000000E+00  0.68564341048E+03  0.68564341048E+03  0.00000000000E+00 0.  1.
         21   -1    0    0  503  502 -0.00000000000E+00 -0.00000000000E+00 -0.68339694326E+03  0.68339694326E+03  0.00000000000E+00 0. -1.
         25    1    1    2    0    0  0.24147304029E+03 -0.10563180383E+03 -0.61270250590E+03  0.67859904797E+03  0.12500000000E+03 0.  0.
         21    1    1    2  503  504  0.19075736748E+02  0.22655314383E+02  0.13362605424E+03  0.13686880351E+03  0.00000000000E+00 0. -1.
         21    1    1    2  504  501 -0.26054877704E+03  0.82976489444E+02  0.48132291889E+03  0.55357250227E+03  0.00000000000E+00 0.  1.
<mgrwt>
<rscale>  4 0.29216506E+03</rscale>
<asrwt>0</asrwt>
<pdfrwt beam="1">  1       21 0.10548360E+00 0.29216506E+03</pdfrwt>
<pdfrwt beam="2">  1       21 0.10513799E+00 0.29216506E+03</pdfrwt>
<totfact> 0.48076914E+02</totfact>
</mgrwt>
</event>
<event>
 5    0  0.1200001E+000  0.2835013E+03  0.7546771E-02  0.1093792E+00
         21   -1    0    0  503  501  0.00000000000E+00  0.00000000000E+00  0.93043851963E+03  0.93043851963E+03  0.00000000000E+00 0. -1.
         21   -1    0    0  501  502 -0.00000000000E+00 -0.00000000000E+00 -0.14484880058E+03  0.14484880058E+03  0.00000000000E+00 0. -1.
         25    1    1    2    0    0 -0.10372010090E+02 -0.26002809154E+03  0.75143196392E+02  0.29831809691E+03  0.12500000000E+03 0.  0.
         21    1    1    2  503  504  0.21926842953E+02  0.19016149877E+02  0.29585416905E+03  0.29727443507E+03  0.00000000000E+00 0. -1.
         21    1    1    2  504  502 -0.11554832863E+02  0.24101194166E+03  0.41459235361E+03  0.47969478823E+03  0.00000000000E+00 0. -1.
<mgrwt>
<rscale>  4 0.28350132E+03</rscale>
<asrwt>0</asrwt>
<pdfrwt beam="1">  1       21 0.14314438E+00 0.28350132E+03</pdfrwt>
<pdfrwt beam="2">  1       21 0.22284431E-01 0.28350132E+03</pdfrwt>
<totfact> 0.59827726E+03</totfact>
</mgrwt>
</event>
<event>
 5    0  0.1200001E+000  0.2830906E+03  0.7546771E-02  0.1094013E+00
         21   -1    0    0  503  501  0.00000000000E+00  0.00000000000E+00  0.55931685151E+02  0.55931685151E+02  0.00000000000E+00 0.  1.
         21   -1    0    0  501  502 -0.00000000000E+00 -0.00000000000E+00 -0.16299687705E+04  0.16299687705E+04  0.00000000000E+00 0.  1.
         25    1    1    2    0    0 -0.79830833023E+01 -0.25798964036E+03 -0.57276596397E+03  0.64055306856E+03  0.12500000000E+03 0.  0.
         21    1    1    2  503  504  0.47906022319E+02  0.10186967463E+02 -0.18350425276E+03  0.18992780750E+03  0.00000000000E+00 0.  1.
         21    1    1    2  504  502 -0.39922939016E+02  0.24780267289E+03 -0.81776686865E+03  0.85541957963E+03  0.00000000000E+00 0.  1.
<mgrwt>
<rscale>  4 0.28309058E+03</rscale>
<asrwt>0</asrwt>
<pdfrwt beam="1">  1       21 0.86048743E-02 0.28309058E+03</pdfrwt>
<pdfrwt beam="2">  1       21 0.25076444E+00 0.28309058E+03</pdfrwt>
<totfact> 0.64466614E+03</totfact>
</mgrwt>
</event>
<event>
 5    0  0.1200001E+000  0.3446954E+03  0.7546771E-02  0.1064814E+00
         21   -1    0    0  503  501  0.00000000000E+00  0.00000000000E+00  0.41956656449E+03  0.41956656449E+03  0.00000000000E+00 0.  1.
         21   -1    0    0  504  502 -0.00000000000E+00 -0.00000000000E+00 -0.12594274349E+04  0.12594274349E+04  0.00000000000E+00 0.  1.
         25    1    1    2    0    0 -0.38231982081E+03 -0.37183744003E+02 -0.81870141070E+03  0.91293377420E+03  0.12500000000E+03 0.  0.
         21    1    1    2  503  502  0.25313839439E+03 -0.99241612777E+02 -0.31573217793E+03  0.41667103643E+03  0.00000000000E+00 0.  1.
         21    1    1    2  504  501  0.12918142642E+03  0.13642535678E+03  0.29457271822E+03  0.34938918876E+03  0.00000000000E+00 0.  1.
<mgrwt>
<rscale>  4 0.34469541E+03</rscale>
<asrwt>0</asrwt>
<pdfrwt beam="1">  1       21 0.64548701E-01 0.34469541E+03</pdfrwt>
<pdfrwt beam="2">  1       21 0.19375807E+00 0.34469541E+03</pdfrwt>
<totfact> 0.28277996E+02</totfact>
</mgrwt>
</event>
<event>
 5    0  0.1200001E+000  0.2743063E+03  0.7546771E-02  0.1098840E+00
         21   -1    0    0  502  501  0.00000000000E+00  0.00000000000E+00  0.18828308511E+03  0.18828308511E+03  0.00000000000E+00 0.  1.
         21   -1    0    0  504  502 -0.00000000000E+00 -0.00000000000E+00 -0.75291258844E+03  0.75291258844E+03  0.00000000000E+00 0.  1.
         25    1    1    2    0    0 -0.24073300891E+03  0.40823294425E+02 -0.62119753746E+03  0.67906575786E+03  0.12500000000E+03 0.  0.
         21    1    1    2  503  501  0.20075180676E+03 -0.62780550550E+02  0.46603785857E+02  0.21544047508E+03  0.00000000000E+00 0.  1.
         21    1    1    2  504  503  0.39981202149E+02  0.21957256126E+02  0.99642482690E+01  0.46689440620E+02  0.00000000000E+00 0. -1.
<mgrwt>
<rscale>  4 0.27430626E+03</rscale>
<asrwt>0</asrwt>
<pdfrwt beam="1">  1       21 0.28966628E-01 0.27430626E+03</pdfrwt>
<pdfrwt beam="2">  1       21 0.11583271E+00 0.27430626E+03</pdfrwt>
<totfact> 0.62239914E+03</totfact>
</mgrwt>
</event>
<event>
 5    0  0.1200001E+000  0.2607217E+03  0.7546771E-02  0.1106710E+00
         21   -1    0    0  502  501  0.00000000000E+00  0.00000000000E+00  0.24810398146E+03  0.24810398146E+03  0.00000000000E+00 0. -1.
         21   -1    0    0  503  502 -0.00000000000E+00 -0.00000000000E+00 -0.48736950792E+03  0.48736950792E+03  0.00000000000E+00 0. -1.
         25    1    1    2    0    0  0.17219514505E+03 -0.17814868676E+03 -0.13357184213E+03  0.30798467427E+03  0.12500000000E+03 0.  0.
         21    1    1    2  503  504 -0.15996532718E+03 -0.62505160206E+02 -0.26075998468E+02  0.17371171132E+03  0.00000000000E+00 0. -1.
         21    1    1    2  504  501 -0.12229817872E+02  0.24065384697E+03 -0.79617685853E+02  0.25377710379E+03  0.00000000000E+00 0. -1.
<mgrwt>
<rscale>  4 0.26072174E+03</rscale>
<asrwt>0</asrwt>
<pdfrwt beam="1">  1       21 0.38169844E-01 0.26072174E+03</pdfrwt>
<pdfrwt beam="2">  1       21 0.74979924E-01 0.26072174E+03</pdfrwt>
<totfact> 0.10101558E+04</totfact>
</mgrwt>
</event>
<event>
 5    0  0.1200001E+000  0.6523074E+03  0.7546771E-02  0.1011891E+00
         21   -1    0    0  503  501  0.00000000000E+00  0.00000000000E+00  0.44499079590E+03  0.44499079590E+03  0.00000000000E+00 0.  1.
         21   -1    0    0  504  502 -0.00000000000E+00 -0.00000000000E+00 -0.14324744012E+04  0.14324744012E+04  0.00000000000E+00 0.  1.
         25    1    1    2    0    0  0.17615307948E+03  0.10139713460E+03 -0.42769893371E+02  0.24241606814E+03  0.12500000000E+03 0.  0.
         21    1    1    2  503  502 -0.39825456700E+03 -0.63880125139E+03 -0.51774253927E+03  0.91363618354E+03  0.00000000000E+00 0.  1.
         21    1    1    2  504  501  0.22210148752E+03  0.53740411679E+03 -0.42697117262E+03  0.72141294537E+03  0.00000000000E+00 0.  1.
<mgrwt>
<rscale>  4 0.50729769E+03</rscale>
<asrwt>0</asrwt>
<pdfrwt beam="1">  1       21 0.68460122E-01 0.65230742E+03</pdfrwt>
<pdfrwt beam="2">  1       21 0.22038068E+00 0.65230742E+03</pdfrwt>
<totfact> 0.14188052E+02</totfact>
</mgrwt>
</event>
<event>
 5    0  0.1200001E+000  0.2689822E+03  0.7546771E-02  0.1101864E+00
         21   -1    0    0  503  501  0.00000000000E+00  0.00000000000E+00  0.25470261186E+03  0.25470261186E+03  0.00000000000E+00 0. -1.
         21   -1    0    0  501  502 -0.00000000000E+00 -0.00000000000E+00 -0.33356229748E+03  0.33356229748E+03  0.00000000000E+00 0. -1.
         25    1    1    2    0    0 -0.24061251974E+03 -0.40942973188E+02  0.64672412788E+02  0.28174142877E+03  0.12500000000E+03 0.  0.
         21    1    1    2  503  504  0.46220980789E+01  0.27770983560E+02  0.31829921922E+01  0.28332362377E+02  0.00000000000E+00 0.  1.
         21    1    1    2  504  502  0.23599042166E+03  0.13171989628E+02 -0.14671509060E+03  0.27819111819E+03  0.00000000000E+00 0. -1.
<mgrwt>
<rscale>  4 0.26898221E+03</rscale>
<asrwt>0</asrwt>
<pdfrwt beam="1">  1       21 0.39185017E-01 0.26898221E+03</pdfrwt>
<pdfrwt beam="2">  1       21 0.51317277E-01 0.26898221E+03</pdfrwt>
<totfact> 0.21787292E+04</totfact>
</mgrwt>
</event>
<event>
 5    0  0.1200001E+000  0.2563996E+03  0.7546771E-02  0.1109326E+00
         21   -1    0    0  503  501  0.00000000000E+00  0.00000000000E+00  0.23296807491E+03  0.23296807491E+03  0.00000000000E+00 0.  1.
         21   -1    0    0  501  502 -0.00000000000E+00 -0.00000000000E+00 -0.55365781454E+03  0.55365781454E+03  0.00000000000E+00 0.  1.
         25    1    1    2    0    0  0.14807606735E+03  0.16789645286E+03 -0.44274679755E+03  0.51163020566E+03  0.12500000000E+03 0.  0.
         21    1    1    2  503  504 -0.17579574046E+01 -0.63340266650E+02  0.52094690728E+02  0.82030095670E+02  0.00000000000E+00 0.  1.
         21    1    1    2  504  502 -0.14631810995E+03 -0.10455618621E+03  0.69962367189E+02  0.19296558812E+03  0.00000000000E+00 0.  1.
<mgrwt>
<rscale>  4 0.25639957E+03</rscale>
<asrwt>0</asrwt>
<pdfrwt beam="1">  1       21 0.35841243E-01 0.25639957E+03</pdfrwt>
<pdfrwt beam="2">  1       21 0.85178124E-01 0.25639957E+03</pdfrwt>
<totfact> 0.85953181E+03</totfact>
</mgrwt>
</event>
<event>
 5    0  0.1200001E+000  0.2709219E+03  0.7546771E-02  0.1100753E+00
         21   -1    0    0  502  501  0.00000000000E+00  0.00000000000E+00  0.56530353519E+02  0.56530353519E+02  0.00000000000E+00 0. -1.
         21   -1    0    0  504  502 -0.00000000000E+00 -0.00000000000E+00 -0.16801849503E+04  0.16801849503E+04  0.00000000000E+00 0. -1.
         25    1    1    2    0    0  0.16269943494E+03  0.15440183275E+03 -0.98855068794E+03  0.10213562036E+04  0.12500000000E+03 0.  0.
         21    1    1    2  503  501 -0.21088727565E+03 -0.17630691243E+03 -0.50635556847E+03  0.57615408713E+03  0.00000000000E+00 0. -1.
         21    1    1    2  504  503  0.48187840713E+02  0.21905079676E+02 -0.12874834035E+03  0.13920501303E+03  0.00000000000E+00 0. -1.
<mgrwt>
<rscale>  4 0.27092189E+03</rscale>
<asrwt>0</asrwt>
<pdfrwt beam="1">  1       21 0.86969776E-02 0.27092189E+03</pdfrwt>
<pdfrwt beam="2">  1       21 0.25848999E+00 0.27092189E+03</pdfrwt>
<totfact> 0.57394104E+03</totfact>
</mgrwt>
</event>
<event>
 5    0  0.1200001E+000  0.2655194E+03  0.7546771E-02  0.1103872E+00
         21   -1    0    0  503  501  0.00000000000E+00  0.00000000000E+00  0.14490814213E+04  0.14490814213E+04  0.00000000000E+00 0.  1.
         21   -1    0    0  501  502 -0.00000000000E+00 -0.00000000000E+00 -0.12126056296E+03  0.12126056296E+03  0.00000000000E+00 0.  1.
         25    1    1    2    0    0  0.12581387760E+03 -0.21027327821E+03  0.15585387969E+03  0.31616358920E+03  0.12500000000E+03 0.  0.
         21    1    1    2  503  504 -0.60375802459E+02 -0.38165984407E+01  0.89952876320E+03  0.90156075767E+03  0.00000000000E+00 0.  1.
         21    1    1    2  504  502 -0.65438075139E+02  0.21408987665E+03  0.27243821546E+03  0.35261763740E+03  0.00000000000E+00 0.  1.
<mgrwt>
<rscale>  4 0.26551944E+03</rscale>
<asrwt>0</asrwt>
<pdfrwt beam="1">  1       21 0.22293559E+00 0.26551944E+03</pdfrwt>
<pdfrwt beam="2">  1       21 0.18655472E-01 0.26551944E+03</pdfrwt>
<totfact> 0.23725261E+03</totfact>
</mgrwt>
</event>
<event>
 5    0  0.1200001E+000  0.3470465E+03  0.7546771E-02  0.1063834E+00
         21   -1    0    0  503  501  0.00000000000E+00  0.00000000000E+00  0.31566328915E+03  0.31566328915E+03  0.00000000000E+00 0. -1.
         21   -1    0    0  504  502 -0.00000000000E+00 -0.00000000000E+00 -0.68148251166E+03  0.68148251166E+03  0.00000000000E+00 0. -1.
         25    1    1    2    0    0  0.19239660472E+01  0.25032431072E+03  0.93159600977E+01  0.27996026378E+03  0.12500000000E+03 0.  0.
         21    1    1    2  503  502  0.12681041226E+03 -0.34151550979E+03 -0.41724498070E+03  0.55390170428E+03  0.00000000000E+00 0. -1.
         21    1    1    2  504  501 -0.12873437830E+03  0.91191199074E+02  0.42109798085E+02  0.16328383276E+03  0.00000000000E+00 0. -1.
<mgrwt>
<rscale>  4 0.34704655E+03</rscale>
<asrwt>0</asrwt>
<pdfrwt beam="1">  1       21 0.48563583E-01 0.34704655E+03</pdfrwt>
<pdfrwt beam="2">  1       21 0.10484346E+00 0.34704655E+03</pdfrwt>
<totfact> 0.26854206E+03</totfact>
</mgrwt>
</event>
<event>
 5    0  0.1200001E+000  0.3130716E+03  0.7546771E-02  0.1078883E+00
         21   -1    0    0  503  501  0.00000000000E+00  0.00000000000E+00  0.29426624013E+03  0.29426624013E+03  0.00000000000E+00 0. -1.
         21   -1    0    0  501  502 -0.00000000000E+00 -0.00000000000E+00 -0.62457838009E+03  0.62457838009E+03  0.00000000000E+00 0. -1.
         25    1    1    2    0    0  0.25060574962E+03  0.13185677681E+03 -0.46007772576E+03  0.55451417031E+03  0.12500000000E+03 0.  0.
         21    1    1    2  503  504  0.27232400296E+02 -0.75945834953E+01  0.36162219589E+02  0.45901932965E+02  0.00000000000E+00 0. -1.
         21    1    1    2  504  502 -0.27783814992E+03 -0.12426219331E+03  0.93603366214E+02  0.31842851694E+03  0.00000000000E+00 0. -1.
<mgrwt>
<rscale>  4 0.31307161E+03</rscale>
<asrwt>0</asrwt>
<pdfrwt beam="1">  1       21 0.45271729E-01 0.31307161E+03</pdfrwt>
<pdfrwt beam="2">  1       21 0.96088982E-01 0.31307161E+03</pdfrwt>
<totfact> 0.39038773E+03</totfact>
</mgrwt>
</event>
<event>
 5    0  0.1200001E+000  0.3410391E+03  0.7546771E-02  0.1066354E+00
         21   -1    0    0  503  501  0.00000000000E+00  0.00000000000E+00  0.41446746846E+03  0.41446746846E+03  0.00000000000E+00 0.  1.
         21   -1    0    0  501  502 -0.00000000000E+00 -0.00000000000E+00 -0.30150961484E+03  0.30150961484E+03  0.00000000000E+00 0.  1.
         25    1    1    2    0    0 -0.29975724168E+03 -0.83127335879E+02 -0.96852026315E+01  0.33538539184E+03  0.12500000000E+03 0.  0.
         21    1    1    2  503  504 -0.95276370124E+01 -0.18405737548E+02  0.39515740241E+02  0.44621079867E+02  0.00000000000E+00 0.  1.
         21    1    1    2  504  502  0.30928487869E+03  0.10153307343E+03  0.83127316013E+02  0.33597061159E+03  0.00000000000E+00 0.  1.
<mgrwt>
<rscale>  4 0.34103914E+03</rscale>
<asrwt>0</asrwt>
<pdfrwt beam="1">  1       21 0.63764226E-01 0.34103914E+03</pdfrwt>
<pdfrwt beam="2">  1       21 0.46386095E-01 0.34103914E+03</pdfrwt>
<totfact> 0.93525374E+03</totfact>
</mgrwt>
</event>
<event>
 5    0  0.1200001E+000  0.2555106E+03  0.7546771E-02  0.1109871E+00
         21   -1    0    0  503  501  0.00000000000E+00  0.00000000000E+00  0.42007253538E+03  0.42007253538E+03  0.00000000000E+00 0. -1.
         21   -1    0    0  501  502 -0.00000000000E+00 -0.00000000000E+00 -0.29166664786E+03  0.29166664786E+03  0.00000000000E+00 0.  1.
         25    1    1    2    0    0 -0.21867911325E+03 -0.42896257684E+02 -0.18180131244E+03  0.31358788354E+03  0.12500000000E+03 0.  0.
         21    1    1    2  503  504  0.92307656038E+02  0.52351124784E+02  0.21460725275E+03  0.23941097837E+03  0.00000000000E+00 0. -1.
         21    1    1    2  504  502  0.12637145721E+03 -0.94548670993E+01  0.95599947208E+02  0.15874032133E+03  0.00000000000E+00 0.  1.
<mgrwt>
<rscale>  4 0.25551055E+03</rscale>
<asrwt>0</asrwt>
<pdfrwt beam="1">  1       21 0.64626544E-01 0.25551055E+03</pdfrwt>
<pdfrwt beam="2">  1       21 0.44871792E-01 0.25551055E+03</pdfrwt>
<totfact> 0.10120888E+04</totfact>
</mgrwt>
</event>
<event>
 5    0  0.1200001E+000  0.2731342E+03  0.7546771E-02  0.1099499E+00
         21   -1    0    0  503  501  0.00000000000E+00  0.00000000000E+00  0.64445653779E+03  0.64445653779E+03  0.00000000000E+00 0.  1.
         21   -1    0    0  501  502 -0.00000000000E+00 -0.00000000000E+00 -0.24093444160E+03  0.24093444160E+03  0.00000000000E+00 0.  1.
         25    1    1    2    0    0 -0.26525462415E+03  0.88558960310E+01  0.30333624234E+03  0.42199089854E+03  0.12500000000E+03 0.  0.
         21    1    1    2  503  504  0.27270802599E+02 -0.68279126212E+01  0.20243122541E+03  0.20437396626E+03  0.00000000000E+00 0.  1.
         21    1    1    2  504  502  0.23798382155E+03 -0.20279834098E+01 -0.10224537156E+03  0.25902611460E+03  0.00000000000E+00 0.  1.
<mgrwt>
<rscale>  4 0.27313420E+03</rscale>
<asrwt>0</asrwt>
<pdfrwt beam="1">  1       21 0.99147159E-01 0.27313420E+03</pdfrwt>
<pdfrwt beam="2">  1       21 0.37066838E-01 0.27313420E+03</pdfrwt>
<totfact> 0.55731890E+03</totfact>
</mgrwt>
</event>
<event>
 5    0  0.1200001E+000  0.3198746E+03  0.7546771E-02  0.1075707E+00
         21   -1    0    0  503  501  0.00000000000E+00  0.00000000000E+00  0.35031993918E+03  0.35031993918E+03  0.00000000000E+00 0.  1.
         21   -1    0    0  504  502 -0.00000000000E+00 -0.00000000000E+00 -0.42166264386E+03  0.42166264386E+03  0.00000000000E+00 0.  1.
         25    1    1    2    0    0 -0.25954338630E+03  0.12842272870E+03 -0.21094995926E+03  0.37944703442E+03  0.12500000000E+03 0.  0.
         21    1    1    2  503  502  0.26332521491E+03 -0.15567883474E+03  0.64611813222E+02  0.31265117112E+03  0.00000000000E+00 0.  1.
         21    1    1    2  504  501 -0.37818286129E+01  0.27256106040E+02  0.74995441359E+02  0.79884377501E+02  0.00000000000E+00 0.  1.
<mgrwt>
<rscale>  4 0.31987463E+03</rscale>
<asrwt>0</asrwt>
<pdfrwt beam="1">  1       21 0.53895376E-01 0.31987463E+03</pdfrwt>
<pdfrwt beam="2">  1       21 0.64871176E-01 0.31987463E+03</pdfrwt>
<totfact> 0.66179667E+03</totfact>
</mgrwt>
</event>
<event>
 5    0  0.1200001E+000  0.2779808E+03  0.7546771E-02  0.1096797E+00
         21   -1    0    0  503  501  0.00000000000E+00  0.00000000000E+00  0.99210685561E+03  0.99210685561E+03  0.00000000000E+00 0.  1.
         21   -1    0    0  504  502 -0.00000000000E+00 -0.00000000000E+00 -0.29911111020E+03  0.29911111020E+03  0.00000000000E+00 0. -1.
         25    1    1    2    0    0 -0.70597256886E+02  0.21939421380E+03  0.40547048189E+02  0.26530521450E+03  0.12500000000E+03 0.  0.
         21    1    1    2  503  502  0.18630735375E+03 -0.19503278194E+03 -0.82076563948E+02  0.28193044965E+03  0.00000000000E+00 0. -1.
         21    1    1    2  504  501 -0.11571009686E+03 -0.24361431851E+02  0.73452526116E+03  0.74398230165E+03  0.00000000000E+00 0.  1.
<mgrwt>
<rscale>  4 0.27798079E+03</rscale>
<asrwt>0</asrwt>
<pdfrwt beam="1">  1       21 0.15263182E+00 0.27798079E+03</pdfrwt>
<pdfrwt beam="2">  1       21 0.46017094E-01 0.27798079E+03</pdfrwt>
<totfact> 0.12003598E+03</totfact>
</mgrwt>
</event>
<event>
 5    0  0.1200001E+000  0.3472376E+03  0.7546771E-02  0.1063755E+00
         21   -1    0    0  502  501  0.00000000000E+00  0.00000000000E+00  0.15448683029E+03  0.15448683029E+03  0.00000000000E+00 0.  1.
         21   -1    0    0  503  502 -0.00000000000E+00 -0.00000000000E+00 -0.10779997182E+04  0.10779997182E+04  0.00000000000E+00 0.  1.
         25    1    1    2    0    0 -0.52218854454E+02  0.29853999850E+03 -0.38519172054E+03  0.50581676627E+03  0.12500000000E+03 0.  0.
         21    1    1    2  503  504  0.43141521743E+02  0.43349955889E+02  0.26274686843E+02  0.66564019880E+02  0.00000000000E+00 0.  1.
         21    1    1    2  504  501  0.90773327103E+01 -0.34188995439E+03 -0.56459585419E+03  0.66010576232E+03  0.00000000000E+00 0.  1.
<mgrwt>
<rscale>  4 0.34723759E+03</rscale>
<asrwt>0</asrwt>
<pdfrwt beam="1">  1       21 0.23767205E-01 0.34723759E+03</pdfrwt>
<pdfrwt beam="2">  1       21 0.16584611E+00 0.34723759E+03</pdfrwt>
<totfact> 0.34302875E+03</totfact>
</mgrwt>
</event>
<event>
 5    0  0.1200001E+000  0.3005468E+03  0.7546771E-02  0.1084968E+00
         21   -1    0    0  502  501  0.00000000000E+00  0.00000000000E+00  0.62707539078E+03  0.62707539078E+03  0.00000000000E+00 0. -1.
         21   -1    0    0  504  502 -0.00000000000E+00 -0.00000000000E+00 -0.42068663519E+03  0.42068663519E+03  0.00000000000E+00 0.  1.
         25    1    1    2    0    0 -0.25608126047E+03  0.13660369816E+03 -0.27636055031E+03  0.41980749884E+03  0.12500000000E+03 0.  0.
         21    1    1    2  503  501  0.21973481331E+03  0.29218791897E+02  0.34140308007E+03  0.40705428270E+03  0.00000000000E+00 0. -1.
         21    1    1    2  504  503  0.36346447158E+02 -0.16582249005E+03  0.14134622584E+03  0.22090024443E+03  0.00000000000E+00 0.  1.
<mgrwt>
<rscale>  4 0.30054676E+03</rscale>
<asrwt>0</asrwt>
<pdfrwt beam="1">  1       21 0.96473137E-01 0.30054676E+03</pdfrwt>
<pdfrwt beam="2">  1       21 0.64721021E-01 0.30054676E+03</pdfrwt>
<totfact> 0.18143454E+03</totfact>
</mgrwt>
</event>
<event>
 5    0  0.1200001E+000  0.3409393E+03  0.7546771E-02  0.1066397E+00
         21   -1    0    0  503  501  0.00000000000E+00  0.00000000000E+00  0.75527925115E+03  0.75527925115E+03  0.00000000000E+00 0.  1.
         21   -1    0    0  504  502 -0.00000000000E+00 -0.00000000000E+00 -0.16651995188E+03  0.16651995188E+03  0.00000000000E+00 0. -1.
         25    1    1    2    0    0  0.32246335659E+03 -0.30599899795E+02  0.22976531154E+03  0.41633648483E+03  0.12500000000E+03 0.  0.
         21    1    1    2  503  502 -0.30637465473E+03  0.67277722998E+02  0.33425758851E+03  0.45838832506E+03  0.00000000000E+00 0.  1.
         21    1    1    2  504  501 -0.16088701857E+02 -0.36677823203E+02  0.24736399223E+02  0.47074393133E+02  0.00000000000E+00 0. -1.
<mgrwt>
<rscale>  4 0.34093935E+03</rscale>
<asrwt>0</asrwt>
<pdfrwt beam="1">  1       21 0.11619681E+00 0.34093935E+03</pdfrwt>
<pdfrwt beam="2">  1       21 0.25618455E-01 0.34093935E+03</pdfrwt>
<totfact> 0.75942829E+03</totfact>
</mgrwt>
</event>
<event>
 5    0  0.1200001E+000  0.3736244E+03  0.7546771E-02  0.1053316E+00
         21   -1    0    0  503  501  0.00000000000E+00  0.00000000000E+00  0.39787184091E+03  0.39787184091E+03  0.00000000000E+00 0.  1.
         21   -1    0    0  504  502 -0.00000000000E+00 -0.00000000000E+00 -0.47891548878E+03  0.47891548878E+03  0.00000000000E+00 0.  1.
         25    1    1    2    0    0  0.30101422787E+03  0.14279066980E+03 -0.13405464817E+03  0.38025568958E+03  0.12500000000E+03 0.  0.
         21    1    1    2  503  502 -0.35064208665E+03 -0.14084392296E+03 -0.50974350187E+02  0.38129420130E+03  0.00000000000E+00 0.  1.
         21    1    1    2  504  501  0.49627858787E+02 -0.19467468368E+01  0.10398535048E+03  0.11523743882E+03  0.00000000000E+00 0.  1.
<mgrwt>
<rscale>  4 0.37362440E+03</rscale>
<asrwt>0</asrwt>
<pdfrwt beam="1">  1       21 0.61211052E-01 0.37362440E+03</pdfrwt>
<pdfrwt beam="2">  1       21 0.73679306E-01 0.37362440E+03</pdfrwt>
<totfact> 0.36945841E+03</totfact>
</mgrwt>
</event>
<event>
 5    0  0.1200001E+000  0.1981913E+03  0.7546771E-02  0.1151274E+00
         21   -1    0    0  503  501  0.00000000000E+00  0.00000000000E+00  0.75209234510E+03  0.75209234510E+03  0.00000000000E+00 0.  1.
         21   -1    0    0  504  502 -0.00000000000E+00 -0.00000000000E+00 -0.18271265717E+03  0.18271265717E+03  0.00000000000E+00 0. -1.
         25    1    1    2    0    0  0.21746299072E+03 -0.15321890095E+02 -0.36351985623E+02  0.25391214919E+03  0.12500000000E+03 0.  0.
         21    1    1    2  503  502 -0.74266748732E+02 -0.29039153124E+02  0.28769303376E+02  0.84773198584E+02  0.00000000000E+00 0. -1.
         21    1    1    2  504  501 -0.14319624199E+03  0.44361043219E+02  0.57696237018E+03  0.59611965450E+03  0.00000000000E+00 0.  1.
<mgrwt>
<rscale>  4 0.19819129E+03</rscale>
<asrwt>0</asrwt>
<pdfrwt beam="1">  1       21 0.11570651E+00 0.19819129E+03</pdfrwt>
<pdfrwt beam="2">  1       21 0.28109640E-01 0.19819129E+03</pdfrwt>
<totfact> 0.69543226E+03</totfact>
</mgrwt>
</event>
<event>
 5    0  0.1200001E+000  0.3958075E+03  0.7546771E-02  0.1045241E+00
         21   -1    0    0  503  501  0.00000000000E+00  0.00000000000E+00  0.10469777292E+04  0.10469777292E+04  0.00000000000E+00 0. -1.
         21   -1    0    0  501  502 -0.00000000000E+00 -0.00000000000E+00 -0.16684472230E+03  0.16684472230E+03  0.00000000000E+00 0. -1.
         25    1    1    2    0    0  0.26401729351E+03  0.28707068354E+03  0.48418846784E+03  0.63417519741E+03  0.12500000000E+03 0.  0.
         21    1    1    2  503  504  0.14359721549E+02 -0.48788391316E+02  0.85059399912E+02  0.99104037473E+02  0.00000000000E+00 0. -1.
         21    1    1    2  504  502 -0.27837701506E+03 -0.23828229223E+03  0.31088513919E+03  0.48054321665E+03  0.00000000000E+00 0. -1.
<mgrwt>
<rscale>  4 0.39580748E+03</rscale>
<asrwt>0</asrwt>
<pdfrwt beam="1">  1       21 0.16107349E+00 0.39580748E+03</pdfrwt>
<pdfrwt beam="2">  1       21 0.25668420E-01 0.39580748E+03</pdfrwt>
<totfact> 0.31340087E+03</totfact>
</mgrwt>
</event>
<event>
 5    0  0.1200001E+000  0.2761466E+03  0.7546771E-02  0.1097812E+00
         21   -1    0    0  503  501  0.00000000000E+00  0.00000000000E+00  0.84931403545E+02  0.84931403545E+02  0.00000000000E+00 0. -1.
         21   -1    0    0  501  502 -0.00000000000E+00 -0.00000000000E+00 -0.10901726959E+04  0.10901726959E+04  0.00000000000E+00 0. -1.
         25    1    1    2    0    0 -0.14249723363E+03  0.21107460066E+03 -0.75419875020E+03  0.80579073179E+03  0.12500000000E+03 0.  0.
         21    1    1    2  503  504  0.21208220887E+02 -0.13660964331E+02  0.30884398578E+01  0.25415527546E+02  0.00000000000E+00 0. -1.
         21    1    1    2  504  502  0.12128901274E+03 -0.19741363633E+03 -0.25413098205E+03  0.34389784014E+03  0.00000000000E+00 0. -1.
<mgrwt>
<rscale>  4 0.27614665E+03</rscale>
<asrwt>0</asrwt>
<pdfrwt beam="1">  1       21 0.13066370E-01 0.27614665E+03</pdfrwt>
<pdfrwt beam="2">  1       21 0.16771888E+00 0.27614665E+03</pdfrwt>
<totfact> 0.10551630E+04</totfact>
</mgrwt>
</event>
<event>
 5    0  0.1200001E+000  0.2566479E+03  0.7546771E-02  0.1109174E+00
         21   -1    0    0  503  501  0.00000000000E+00  0.00000000000E+00  0.99455225945E+03  0.99455225945E+03  0.00000000000E+00 0. -1.
         21   -1    0    0  501  502 -0.00000000000E+00 -0.00000000000E+00 -0.41657158883E+03  0.41657158883E+03  0.00000000000E+00 0.  1.
         25    1    1    2    0    0 -0.13274524379E+03 -0.19956237273E+03 -0.17944202383E+03  0.32445474303E+03  0.12500000000E+03 0.  0.
         21    1    1    2  503  504  0.63154874939E+02 -0.15993394443E+01  0.85157637154E+03  0.85391651388E+03  0.00000000000E+00 0. -1.
         21    1    1    2  504  502  0.69590368848E+02  0.20116171218E+03 -0.94153677079E+02  0.23275259137E+03  0.00000000000E+00 0.  1.
<mgrwt>
<rscale>  4 0.25664789E+03</rscale>
<asrwt>0</asrwt>
<pdfrwt beam="1">  1       21 0.15300804E+00 0.25664789E+03</pdfrwt>
<pdfrwt beam="2">  1       21 0.64087937E-01 0.25664789E+03</pdfrwt>
<totfact> 0.59873041E+02</totfact>
</mgrwt>
</event>
<event>
 5    0  0.1200001E+000  0.3145276E+03  0.7546771E-02  0.1078196E+00
         21   -1    0    0  503  501  0.00000000000E+00  0.00000000000E+00  0.90566009703E+03  0.90566009703E+03  0.00000000000E+00 0.  1.
         21   -1    0    0  504  502 -0.00000000000E+00 -0.00000000000E+00 -0.15089369426E+03  0.15089369426E+03  0.00000000000E+00 0.  1.
         25    1    1    2    0    0 -0.27049044375E+03 -0.11845011583E+03  0.31299685902E+03  0.44809323121E+03  0.12500000000E+03 0.  0.
         21    1    1    2  503  502  0.26784561218E+03  0.96220781075E+02  0.16137166992E+03  0.32717048542E+03  0.00000000000E+00 0.  1.
         21    1    1    2  504  501  0.26448315629E+01  0.22229334758E+02  0.28039787383E+03  0.28129007467E+03  0.00000000000E+00 0.  1.
<mgrwt>
<rscale>  4 0.31452762E+03</rscale>
<asrwt>0</asrwt>
<pdfrwt beam="1">  1       21 0.13933232E+00 0.31452762E+03</pdfrwt>
<pdfrwt beam="2">  1       21 0.23214415E-01 0.31452762E+03</pdfrwt>
<totfact> 0.58443314E+03</totfact>
</mgrwt>
</event>
<event>
 5    0  0.1200001E+000  0.2908263E+03  0.7546771E-02  0.1089919E+00
         21   -1    0    0  503  501  0.00000000000E+00  0.00000000000E+00  0.52002444365E+02  0.52002444365E+02  0.00000000000E+00 0. -1.
         21   -1    0    0  504  502 -0.00000000000E+00 -0.00000000000E+00 -0.25488079352E+04  0.25488079352E+04  0.00000000000E+00 0. -1.
         25    1    1    2    0    0 -0.25487851440E+03 -0.36214433265E+01 -0.18533492883E+04  0.18749679348E+04  0.12500000000E+03 0.  0.
         21    1    1    2  503  502  0.28428840873E+03 -0.22983699008E+01 -0.63327334436E+03  0.69416158819E+03  0.00000000000E+00 0. -1.
         21    1    1    2  504  501 -0.29409894332E+02  0.59198132273E+01 -0.10182858138E+02  0.31680856572E+02  0.00000000000E+00 0. -1.
<mgrwt>
<rscale>  4 0.29082630E+03</rscale>
<asrwt>0</asrwt>
<pdfrwt beam="1">  1       21 0.80003767E-02 0.29082630E+03</pdfrwt>
<pdfrwt beam="2">  1       21 0.39212427E+00 0.29082630E+03</pdfrwt>
<totfact> 0.10372295E+03</totfact>
</mgrwt>
</event>
<event>
 5    0  0.1200001E+000  0.2301706E+03  0.7546771E-02  0.1126520E+00
         21   -1    0    0  503  501  0.00000000000E+00  0.00000000000E+00  0.10508135454E+04  0.10508135454E+04  0.00000000000E+00 0.  1.
         21   -1    0    0  504  502 -0.00000000000E+00 -0.00000000000E+00 -0.41291168123E+03  0.41291168123E+03  0.00000000000E+00 0.  1.
         25    1    1    2    0    0 -0.19181429020E+03 -0.83680784885E+02 -0.99933236013E+02  0.26345179321E+03  0.12500000000E+03 0.  0.
         21    1    1    2  503  502  0.17237908079E+03  0.69785711810E+02 -0.19364747198E+03  0.26848451812E+03  0.00000000000E+00 0.  1.
         21    1    1    2  504  501  0.19435209411E+02  0.13895073075E+02  0.93148257222E+03  0.93178891535E+03  0.00000000000E+00 0.  1.
<mgrwt>
<rscale>  4 0.23017063E+03</rscale>
<asrwt>0</asrwt>
<pdfrwt beam="1">  1       21 0.16166362E+00 0.23017063E+03</pdfrwt>
<pdfrwt beam="2">  1       21 0.63524874E-01 0.23017063E+03</pdfrwt>
<totfact> 0.53869460E+02</totfact>
</mgrwt>
</event>
<event>
 5    0  0.1200001E+000  0.2153530E+03  0.7546771E-02  0.1137396E+00
         21   -1    0    0  503  501  0.00000000000E+00  0.00000000000E+00  0.42638161709E+03  0.42638161709E+03  0.00000000000E+00 0. -1.
         21   -1    0    0  501  502 -0.00000000000E+00 -0.00000000000E+00 -0.11854641112E+04  0.11854641112E+04  0.00000000000E+00 0. -1.
         25    1    1    2    0    0  0.17800101167E+03 -0.12794107531E+03 -0.94269713728E+03  0.97588737646E+03  0.12500000000E+03 0.  0.
         21    1    1    2  503  504 -0.64171686215E+02  0.70329774173E+02  0.38553202610E+03  0.39711361799E+03  0.00000000000E+00 0. -1.
         21    1    1    2  504  502 -0.11382932545E+03  0.57611301141E+02 -0.20191738291E+03  0.23884473382E+03  0.00000000000E+00 0. -1.
<mgrwt>
<rscale>  4 0.21535301E+03</rscale>
<asrwt>0</asrwt>
<pdfrwt beam="1">  1       21 0.65597172E-01 0.21535301E+03</pdfrwt>
<pdfrwt beam="2">  1       21 0.18237909E+00 0.21535301E+03</pdfrwt>
<totfact> 0.36469792E+02</totfact>
</mgrwt>
</event>
<event>
 5    0  0.1200001E+000  0.2798744E+03  0.7546771E-02  0.1095758E+00
         21   -1    0    0  502  501  0.00000000000E+00  0.00000000000E+00  0.17870479381E+04  0.17870479381E+04  0.00000000000E+00 0. -1.
         21   -1    0    0  504  502 -0.00000000000E+00 -0.00000000000E+00 -0.12804519307E+03  0.12804519307E+03  0.00000000000E+00 0. -1.
         25    1    1    2    0    0  0.33734643299E+02 -0.24812624540E+03  0.48626890803E+02  0.28406730598E+03  0.12500000000E+03 0.  0.
         21    1    1    2  503  501 -0.52610404845E+02  0.20496105374E+03  0.13181409099E+04  0.13350177327E+04  0.00000000000E+00 0. -1.
         21    1    1    2  504  503  0.18875761546E+02  0.43165191660E+02  0.29223494429E+03  0.29600809247E+03  0.00000000000E+00 0. -1.
<mgrwt>
<rscale>  4 0.27987436E+03</rscale>
<asrwt>0</asrwt>
<pdfrwt beam="1">  1       21 0.27493043E+00 0.27987436E+03</pdfrwt>
<pdfrwt beam="2">  1       21 0.19699262E-01 0.27987436E+03</pdfrwt>
<totfact> 0.10298906E+03</totfact>
</mgrwt>
</event>
<event>
 5    0  0.1200001E+000  0.3180912E+03  0.7546771E-02  0.1076531E+00
         21   -1    0    0  502  501  0.00000000000E+00  0.00000000000E+00  0.22896398480E+03  0.22896398480E+03  0.00000000000E+00 0.  1.
         21   -1    0    0  503  502 -0.00000000000E+00 -0.00000000000E+00 -0.56255076118E+03  0.56255076118E+03  0.00000000000E+00 0. -1.
         25    1    1    2    0    0  0.13525636935E+03 -0.25096004715E+03 -0.32968087562E+03  0.45342001551E+03  0.12500000000E+03 0.  0.
         21    1    1    2  503  504  0.84648478189E+01 -0.24017268442E+02  0.10368378512E+02  0.27495201490E+02  0.00000000000E+00 0.  1.
         21    1    1    2  504  501 -0.14372121717E+03  0.27497731559E+03 -0.14274279269E+02  0.31059952898E+03  0.00000000000E+00 0.  1.
<mgrwt>
<rscale>  4 0.31809121E+03</rscale>
<asrwt>0</asrwt>
<pdfrwt beam="1">  1       21 0.35225229E-01 0.31809121E+03</pdfrwt>
<pdfrwt beam="2">  1       21 0.86546270E-01 0.31809121E+03</pdfrwt>
<totfact> 0.83194461E+03</totfact>
</mgrwt>
</event>
<event>
 5    0  0.1200001E+000  0.4468249E+03  0.7546771E-02  0.1028673E+00
         21   -1    0    0  503  501  0.00000000000E+00  0.00000000000E+00  0.21270639361E+03  0.21270639361E+03  0.00000000000E+00 0. -1.
         21   -1    0    0  501  502 -0.00000000000E+00 -0.00000000000E+00 -0.16298608362E+04  0.16298608362E+04  0.00000000000E+00 0. -1.
         25    1    1    2    0    0 -0.34394418580E+03 -0.20951840661E+03 -0.11110453161E+03  0.43607887199E+03  0.12500000000E+03 0.  0.
         21    1    1    2  503  504 -0.11824262098E+02 -0.40625120901E+02 -0.16224261708E+02  0.45314901416E+02  0.00000000000E+00 0. -1.
         21    1    1    2  504  502  0.35576844790E+03  0.25014352751E+03 -0.12898256493E+04  0.13611734564E+04  0.00000000000E+00 0. -1.
<mgrwt>
<rscale>  4 0.44682492E+03</rscale>
<asrwt>0</asrwt>
<pdfrwt beam="1">  1       21 0.32724061E-01 0.44682492E+03</pdfrwt>
<pdfrwt beam="2">  1       21 0.25074781E+00 0.44682492E+03</pdfrwt>
<totfact> 0.47990253E+02</totfact>
</mgrwt>
</event>
<event>
 5    0  0.1200001E+000  0.2881858E+03  0.7546771E-02  0.1091300E+00
         21   -1    0    0  503  501  0.00000000000E+00  0.00000000000E+00  0.61478634344E+03  0.61478634344E+03  0.00000000000E+00 0.  1.
         21   -1    0    0  504  502 -0.00000000000E+00 -0.00000000000E+00 -0.78800458507E+03  0.78800458507E+03  0.00000000000E+00 0.  1.
         25    1    1    2    0    0  0.12966291156E+03 -0.22930517931E+03 -0.71092172134E+03  0.76839314792E+03  0.12500000000E+03 0.  0.
         21    1    1    2  503  502 -0.13828484555E+03  0.17842943858E+03  0.22954273245E+03  0.32194662458E+03  0.00000000000E+00 0.  1.
         21    1    1    2  504  501  0.86219339878E+01  0.50875740733E+02  0.30816074726E+03  0.31245115601E+03  0.00000000000E+00 0.  1.
<mgrwt>
<rscale>  4 0.28818582E+03</rscale>
<asrwt>0</asrwt>
<pdfrwt beam="1">  1       21 0.94582514E-01 0.28818582E+03</pdfrwt>
<pdfrwt beam="2">  1       21 0.12123148E+00 0.28818582E+03</pdfrwt>
<totfact> 0.44094862E+02</totfact>
</mgrwt>
</event>
<event>
 5    0  0.1200001E+000  0.2520086E+03  0.7546771E-02  0.1112042E+00
         21   -1    0    0  502  501  0.00000000000E+00  0.00000000000E+00  0.29537096343E+03  0.29537096343E+03  0.00000000000E+00 0.  1.
         21   -1    0    0  504  502 -0.00000000000E+00 -0.00000000000E+00 -0.33941485908E+03  0.33941485908E+03  0.00000000000E+00 0. -1.
         25    1    1    2    0    0 -0.31862224095E+02 -0.21649046518E+03 -0.23154587148E+03  0.34223064362E+03  0.12500000000E+03 0.  0.
         21    1    1    2  503  501  0.42254727941E+02  0.19800127925E+03  0.17683890688E+03  0.26881586189E+03  0.00000000000E+00 0.  1.
         21    1    1    2  504  503 -0.10392503846E+02  0.18489185927E+02  0.10663068947E+02  0.23739317004E+02  0.00000000000E+00 0.  1.
<mgrwt>
<rscale>  4 0.25200858E+03</rscale>
<asrwt>0</asrwt>
<pdfrwt beam="1">  1       21 0.45441687E-01 0.25200858E+03</pdfrwt>
<pdfrwt beam="2">  1       21 0.52217671E-01 0.25200858E+03</pdfrwt>
<totfact> 0.15624015E+04</totfact>
</mgrwt>
</event>
<event>
 5    0  0.1200001E+000  0.3152568E+03  0.7546771E-02  0.1077853E+00
         21   -1    0    0  502  501  0.00000000000E+00  0.00000000000E+00  0.17241837237E+04  0.17241837237E+04  0.00000000000E+00 0. -1.
         21   -1    0    0  503  502 -0.00000000000E+00 -0.00000000000E+00 -0.18856049413E+03  0.18856049413E+03  0.00000000000E+00 0. -1.
         25    1    1    2    0    0 -0.10656729582E+03  0.26979304967E+03 -0.21844097523E+02  0.31661813401E+03  0.12500000000E+03 0.  0.
         21    1    1    2  503  504  0.13100835688E+03 -0.25403672151E+03  0.10615591288E+04  0.10993660125E+04  0.00000000000E+00 0. -1.
         21    1    1    2  504  501 -0.24441061065E+02 -0.15756328155E+02  0.49590819828E+03  0.49676007133E+03  0.00000000000E+00 0. -1.
<mgrwt>
<rscale>  4 0.31525676E+03</rscale>
<asrwt>0</asrwt>
<pdfrwt beam="1">  1       21 0.26525902E+00 0.31525676E+03</pdfrwt>
<pdfrwt beam="2">  1       21 0.29009308E-01 0.31525676E+03</pdfrwt>
<totfact> 0.54271503E+02</totfact>
</mgrwt>
</event>
<event>
 5    0  0.1200001E+000  0.5279495E+03  0.7546771E-02  0.1006731E+00
         21   -1    0    0  503  501  0.00000000000E+00  0.00000000000E+00  0.38442788897E+03  0.38442788897E+03  0.00000000000E+00 0.  1.
         21   -1    0    0  504  502 -0.00000000000E+00 -0.00000000000E+00 -0.78175474391E+03  0.78175474391E+03  0.00000000000E+00 0.  1.
         25    1    1    2    0    0 -0.34509115663E+03 -0.34916260509E+03 -0.69260084156E+02  0.51129677335E+03  0.12500000000E+03 0.  0.
         21    1    1    2  503  502  0.36732511064E+03  0.37898513652E+03 -0.31863232651E+03  0.61650955395E+03  0.00000000000E+00 0.  1.
         21    1    1    2  504  501 -0.22233954008E+02 -0.29822531430E+02 -0.94344442661E+01  0.38376305585E+02  0.00000000000E+00 0. -1.
<mgrwt>
<rscale>  4 0.52794945E+03</rscale>
<asrwt>0</asrwt>
<pdfrwt beam="1">  1       21 0.59142752E-01 0.52794945E+03</pdfrwt>
<pdfrwt beam="2">  1       21 0.12026996E+00 0.52794945E+03</pdfrwt>
<totfact> 0.11609807E+03</totfact>
</mgrwt>
</event>
<event>
 5    0  0.1200001E+000  0.2699127E+03  0.7546771E-02  0.1101330E+00
         21   -1    0    0  502  501  0.00000000000E+00  0.00000000000E+00  0.70271253358E+03  0.70271253358E+03  0.00000000000E+00 0. -1.
         21   -1    0    0  503  502 -0.00000000000E+00 -0.00000000000E+00 -0.13118013613E+03  0.13118013613E+03  0.00000000000E+00 0.  1.
         25    1    1    2    0    0 -0.28719513176E+02  0.23064667384E+03  0.26526034934E+03  0.37418010573E+03  0.12500000000E+03 0.  0.
         21    1    1    2  503  504  0.30258919253E+02  0.13551474583E+02  0.18333841522E+03  0.18631215514E+03  0.00000000000E+00 0. -1.
         21    1    1    2  504  501 -0.15394060762E+01 -0.24419814842E+03  0.12293363289E+03  0.27340040885E+03  0.00000000000E+00 0.  1.
<mgrwt>
<rscale>  4 0.26991271E+03</rscale>
<asrwt>0</asrwt>
<pdfrwt beam="1">  1       21 0.10810962E+00 0.26991271E+03</pdfrwt>
<pdfrwt beam="2">  1       21 0.20181560E-01 0.26991271E+03</pdfrwt>
<totfact> 0.14783185E+04</totfact>
</mgrwt>
</event>
<event>
 5    0  0.1200001E+000  0.4348258E+03  0.7546771E-02  0.1032346E+00
         21   -1    0    0  503  501  0.00000000000E+00  0.00000000000E+00  0.20148417812E+03  0.20148417812E+03  0.00000000000E+00 0.  1.
         21   -1    0    0  504  502 -0.00000000000E+00 -0.00000000000E+00 -0.11177658040E+04  0.11177658040E+04  0.00000000000E+00 0.  1.
         25    1    1    2    0    0  0.25245527931E+03  0.34185134356E+03 -0.51201914843E+03  0.67704107520E+03  0.12500000000E+03 0.  0.
         21    1    1    2  503  502 -0.22060507723E+03 -0.34392830114E+03 -0.43576389309E+03  0.59736374760E+03  0.00000000000E+00 0.  1.
         21    1    1    2  504  501 -0.31850202073E+02  0.20769575747E+01  0.31501415658E+02  0.44845159307E+02  0.00000000000E+00 0.  1.
<mgrwt>
<rscale>  4 0.43482584E+03</rscale>
<asrwt>0</asrwt>
<pdfrwt beam="1">  1       21 0.30997566E-01 0.43482584E+03</pdfrwt>
<pdfrwt beam="2">  1       21 0.17196397E+00 0.43482584E+03</pdfrwt>
<totfact> 0.17675160E+03</totfact>
</mgrwt>
</event>
<event>
 5    0  0.1200001E+000  0.2900600E+03  0.7546771E-02  0.1090318E+00
         21   -1    0    0  503  501  0.00000000000E+00  0.00000000000E+00  0.86040646225E+03  0.86040646225E+03  0.00000000000E+00 0.  1.
         21   -1    0    0  504  502 -0.00000000000E+00 -0.00000000000E+00 -0.17032699247E+03  0.17032699247E+03  0.00000000000E+00 0. -1.
         25    1    1    2    0    0  0.23780672356E+03  0.13083979275E+03  0.17362047552E+03  0.34560115547E+03  0.12500000000E+03 0.  0.
         21    1    1    2  503  502 -0.11722792868E+03  0.12067827881E+03  0.23360008515E+03  0.28787954776E+03  0.00000000000E+00 0.  1.
         21    1    1    2  504  501 -0.12057879488E+03 -0.25151807156E+03  0.28285890911E+03  0.39725275148E+03  0.00000000000E+00 0.  1.
<mgrwt>
<rscale>  4 0.29005998E+03</rscale>
<asrwt>0</asrwt>
<pdfrwt beam="1">  1       21 0.13237022E+00 0.29005998E+03</pdfrwt>
<pdfrwt beam="2">  1       21 0.26204153E-01 0.29005998E+03</pdfrwt>
<totfact> 0.53540099E+03</totfact>
</mgrwt>
</event>
<event>
 5    0  0.1200001E+000  0.3263820E+03  0.7546771E-02  0.1072749E+00
         21   -1    0    0  503  501  0.00000000000E+00  0.00000000000E+00  0.20579144882E+03  0.20579144882E+03  0.00000000000E+00 0. -1.
         21   -1    0    0  501  502 -0.00000000000E+00 -0.00000000000E+00 -0.52588318078E+03  0.52588318078E+03  0.00000000000E+00 0. -1.
         25    1    1    2    0    0  0.23819354820E+03 -0.16897878069E+03 -0.10021347588E+03  0.33310319043E+03  0.12500000000E+03 0.  0.
         21    1    1    2  503  504  0.20856909886E+02  0.22157699560E+01 -0.16763574981E+01  0.21041162063E+02  0.00000000000E+00 0. -1.
         21    1    1    2  504  502 -0.25905045809E+03  0.16676301074E+03 -0.21820189858E+03  0.37753027710E+03  0.00000000000E+00 0. -1.
<mgrwt>
<rscale>  4 0.32638197E+03</rscale>
<asrwt>0</asrwt>
<pdfrwt beam="1">  1       21 0.31660223E-01 0.32638197E+03</pdfrwt>
<pdfrwt beam="2">  1       21 0.80905104E-01 0.32638197E+03</pdfrwt>
<totfact> 0.11990194E+04</totfact>
</mgrwt>
</event>
<event>
 5    0  0.1200001E+000  0.2810149E+03  0.7546771E-02  0.1095136E+00
         21   -1    0    0  503  501  0.00000000000E+00  0.00000000000E+00  0.38614901802E+03  0.38614901802E+03  0.00000000000E+00 0. -1.
         21   -1    0    0  501  502 -0.00000000000E+00 -0.00000000000E+00 -0.26310584572E+03  0.26310584572E+03  0.00000000000E+00 0. -1.
         25    1    1    2    0    0 -0.22848024185E+03  0.96070232191E+02 -0.87861712777E+02  0.29116557318E+03  0.12500000000E+03 0.  0.
         21    1    1    2  503  504 -0.17764984318E+02 -0.95812637154E+01  0.43684436852E+02  0.48121983596E+02  0.00000000000E+00 0. -1.
         21    1    1    2  504  502  0.24624522617E+03 -0.86488968475E+02  0.16722044823E+03  0.30996730696E+03  0.00000000000E+00 0. -1.
<mgrwt>
<rscale>  4 0.28101490E+03</rscale>
<asrwt>0</asrwt>
<pdfrwt beam="1">  1       21 0.59407541E-01 0.28101490E+03</pdfrwt>
<pdfrwt beam="2">  1       21 0.40477822E-01 0.28101490E+03</pdfrwt>
<totfact> 0.14836331E+04</totfact>
</mgrwt>
</event>
<event>
 5    0  0.1200001E+000  0.2827418E+03  0.7546771E-02  0.1094201E+00
         21   -1    0    0  503  501  0.00000000000E+00  0.00000000000E+00  0.13613223049E+03  0.13613223049E+03  0.00000000000E+00 0.  1.
         21   -1    0    0  501  502 -0.00000000000E+00 -0.00000000000E+00 -0.28682090725E+04  0.28682090725E+04  0.00000000000E+00 0. -1.
         25    1    1    2    0    0 -0.39875166120E+02  0.22986283108E+03 -0.73976822556E+03  0.78569012819E+03  0.12500000000E+03 0.  0.
         21    1    1    2  503  504 -0.18659692419E+02  0.24343731561E+02  0.10284465874E+03  0.10732113127E+03  0.00000000000E+00 0.  1.
         21    1    1    2  504  502  0.58534858539E+02 -0.25420656264E+03 -0.20951532751E+04  0.21113300435E+04  0.00000000000E+00 0. -1.
<mgrwt>
<rscale>  4 0.28274185E+03</rscale>
<asrwt>0</asrwt>
<pdfrwt beam="1">  1       21 0.20943420E-01 0.28274185E+03</pdfrwt>
<pdfrwt beam="2">  1       21 0.44126293E+00 0.28274185E+03</pdfrwt>
<totfact> 0.87681337E+01</totfact>
</mgrwt>
</event>
<event>
 5    0  0.1200001E+000  0.2673907E+03  0.7546771E-02  0.1102782E+00
         21   -1    0    0  503  501  0.00000000000E+00  0.00000000000E+00  0.69367755565E+03  0.69367755565E+03  0.00000000000E+00 0.  1.
         21   -1    0    0  501  502 -0.00000000000E+00 -0.00000000000E+00 -0.24714998073E+03  0.24714998073E+03  0.00000000000E+00 0.  1.
         25    1    1    2    0    0 -0.24580866174E+03 -0.34070093427E+02 -0.19480349419E+02  0.27854470640E+03  0.12500000000E+03 0.  0.
         21    1    1    2  503  504  0.25745514793E+02 -0.12244348354E+02  0.43422980305E+03  0.43516465556E+03  0.00000000000E+00 0.  1.
         21    1    1    2  504  502  0.22006314694E+03  0.46314441781E+02  0.31778121292E+02  0.22711817442E+03  0.00000000000E+00 0.  1.
<mgrwt>
<rscale>  4 0.26739067E+03</rscale>
<asrwt>0</asrwt>
<pdfrwt beam="1">  1       21 0.10671962E+00 0.26739067E+03</pdfrwt>
<pdfrwt beam="2">  1       21 0.38023074E-01 0.26739067E+03</pdfrwt>
<totfact> 0.44467459E+03</totfact>
</mgrwt>
</event>
<event>
 5    0  0.1200001E+000  0.2707261E+03  0.7546771E-02  0.1100865E+00
         21   -1    0    0  503  501  0.00000000000E+00  0.00000000000E+00  0.19378488638E+04  0.19378488638E+04  0.00000000000E+00 0. -1.
         21   -1    0    0  504  502 -0.00000000000E+00 -0.00000000000E+00 -0.12829793327E+03  0.12829793327E+03  0.00000000000E+00 0. -1.
         25    1    1    2    0    0 -0.18958894175E+03  0.20879119545E+03  0.47141269181E+03  0.56337612314E+03  0.12500000000E+03 0.  0.
         21    1    1    2  503  502  0.11872695367E+03 -0.19500705750E+03  0.79034968002E+02  0.24159960300E+03  0.00000000000E+00 0. -1.
         21    1    1    2  504  501  0.70861988073E+02 -0.13784137950E+02  0.12591032707E+04  0.12611710709E+04  0.00000000000E+00 0. -1.
<mgrwt>
<rscale>  4 0.27072608E+03</rscale>
<asrwt>0</asrwt>
<pdfrwt beam="1">  1       21 0.29813057E+00 0.27072608E+03</pdfrwt>
<pdfrwt beam="2">  1       21 0.19738145E-01 0.27072608E+03</pdfrwt>
<totfact> 0.75613719E+02</totfact>
</mgrwt>
</event>
<event>
 5    0  0.1200001E+000  0.3364231E+03  0.7546771E-02  0.1068330E+00
         21   -1    0    0  503  501  0.00000000000E+00  0.00000000000E+00  0.35486284603E+03  0.35486284603E+03  0.00000000000E+00 0. -1.
         21   -1    0    0  504  502 -0.00000000000E+00 -0.00000000000E+00 -0.79653356522E+03  0.79653356522E+03  0.00000000000E+00 0. -1.
         25    1    1    2    0    0  0.17603779635E+03 -0.23667890971E+03 -0.36054004612E+03  0.48230730546E+03  0.12500000000E+03 0.  0.
         21    1    1    2  503  502 -0.17880573341E+03  0.28234613124E+03 -0.29780531891E+03  0.44763694675E+03  0.00000000000E+00 0. -1.
         21    1    1    2  504  501  0.27679370537E+01 -0.45667221536E+02  0.21667464583E+03  0.22145215904E+03  0.00000000000E+00 0.  1.
<mgrwt>
<rscale>  4 0.33642307E+03</rscale>
<asrwt>0</asrwt>
<pdfrwt beam="1">  1       21 0.54594284E-01 0.33642307E+03</pdfrwt>
<pdfrwt beam="2">  1       21 0.12254363E+00 0.33642307E+03</pdfrwt>
<totfact> 0.14299037E+03</totfact>
</mgrwt>
</event>
<event>
 5    0  0.1200001E+000  0.3161246E+03  0.7546771E-02  0.1077447E+00
         21   -1    0    0  503  501  0.00000000000E+00  0.00000000000E+00  0.25223069629E+03  0.25223069629E+03  0.00000000000E+00 0.  1.
         21   -1    0    0  501  502 -0.00000000000E+00 -0.00000000000E+00 -0.83697732909E+03  0.83697732909E+03  0.00000000000E+00 0.  1.
         25    1    1    2    0    0 -0.32136914053E+03 -0.57783401707E+02 -0.29284494256E+03  0.45607039630E+03  0.12500000000E+03 0.  0.
         21    1    1    2  503  504  0.57122164753E+02 -0.90431848886E+01  0.12345755609E+03  0.13633227444E+03  0.00000000000E+00 0.  1.
         21    1    1    2  504  502  0.26424697578E+03  0.66826586596E+02 -0.41535924633E+03  0.49680535464E+03  0.00000000000E+00 0.  1.
<mgrwt>
<rscale>  4 0.31612457E+03</rscale>
<asrwt>0</asrwt>
<pdfrwt beam="1">  1       21 0.38804722E-01 0.31612457E+03</pdfrwt>
<pdfrwt beam="2">  1       21 0.12876574E+00 0.31612457E+03</pdfrwt>
<totfact> 0.25991655E+03</totfact>
</mgrwt>
</event>
<event>
 5    0  0.1200001E+000  0.2579255E+03  0.7546771E-02  0.1108396E+00
         21   -1    0    0  503  501  0.00000000000E+00  0.00000000000E+00  0.30036084713E+03  0.30036084713E+03  0.00000000000E+00 0.  1.
         21   -1    0    0  504  502 -0.00000000000E+00 -0.00000000000E+00 -0.39064946174E+03  0.39064946174E+03  0.00000000000E+00 0. -1.
         25    1    1    2    0    0 -0.64716294462E+02 -0.21613037830E+03 -0.28871357735E+03  0.38714476484E+03  0.12500000000E+03 0.  0.
         21    1    1    2  503  502  0.35331992425E+02  0.18050334647E+03  0.15682897128E+03  0.24171291651E+03  0.00000000000E+00 0.  1.
         21    1    1    2  504  501  0.29384302036E+02  0.35627031830E+02  0.41595991468E+02  0.62152627534E+02  0.00000000000E+00 0. -1.
<mgrwt>
<rscale>  4 0.25792545E+03</rscale>
<asrwt>0</asrwt>
<pdfrwt beam="1">  1       21 0.46209361E-01 0.25792545E+03</pdfrwt>
<pdfrwt beam="2">  1       21 0.60099917E-01 0.25792545E+03</pdfrwt>
<totfact> 0.11140111E+04</totfact>
</mgrwt>
</event>
<event>
 5    0  0.1200001E+000  0.2475909E+03  0.7546771E-02  0.1114837E+00
         21   -1    0    0  503  501  0.00000000000E+00  0.00000000000E+00  0.12459130422E+04  0.12459130422E+04  0.00000000000E+00 0.  1.
         21   -1    0    0  504  502 -0.00000000000E+00 -0.00000000000E+00 -0.94271609417E+02  0.94271609417E+02  0.00000000000E+00 0.  1.
         25    1    1    2    0    0 -0.34166657488E+02 -0.20212052665E+03  0.22376343670E+03  0.32819985280E+03  0.12500000000E+03 0.  0.
         21    1    1    2  503  502  0.48435350162E+02  0.21796405548E+03  0.25568677195E+03  0.33945550220E+03  0.00000000000E+00 0.  1.
         21    1    1    2  504  501 -0.14268692674E+02 -0.15843528827E+02  0.67219122415E+03  0.67252929663E+03  0.00000000000E+00 0.  1.
<mgrwt>
<rscale>  4 0.24759089E+03</rscale>
<asrwt>0</asrwt>
<pdfrwt beam="1">  1       21 0.19167892E+00 0.24759089E+03</pdfrwt>
<pdfrwt beam="2">  1       21 0.14503325E-01 0.24759089E+03</pdfrwt>
<totfact> 0.60692783E+03</totfact>
</mgrwt>
</event>
<event>
 5    0  0.1200001E+000  0.2477656E+03  0.7546771E-02  0.1114725E+00
         21   -1    0    0  503  501  0.00000000000E+00  0.00000000000E+00  0.15033100269E+03  0.15033100269E+03  0.00000000000E+00 0.  1.
         21   -1    0    0  501  502 -0.00000000000E+00 -0.00000000000E+00 -0.17179524146E+04  0.17179524146E+04  0.00000000000E+00 0.  1.
         25    1    1    2    0    0 -0.14053516419E+03  0.16128443338E+03 -0.16140333548E+04  0.16329395185E+04  0.12500000000E+03 0.  0.
         21    1    1    2  503  504  0.40568604634E+02 -0.62530671295E+02  0.57859910930E+02  0.94359238166E+02  0.00000000000E+00 0.  1.
         21    1    1    2  504  502  0.99966559560E+02 -0.98753762089E+02 -0.11447968085E+02  0.14098466062E+03  0.00000000000E+00 0.  1.
<mgrwt>
<rscale>  4 0.24776562E+03</rscale>
<asrwt>0</asrwt>
<pdfrwt beam="1">  1       21 0.23127846E-01 0.24776562E+03</pdfrwt>
<pdfrwt beam="2">  1       21 0.26430038E+00 0.24776562E+03</pdfrwt>
<totfact> 0.90502464E+02</totfact>
</mgrwt>
</event>
<event>
 5    0  0.1200001E+000  0.2591302E+03  0.7546771E-02  0.1107667E+00
         21   -1    0    0  503  501  0.00000000000E+00  0.00000000000E+00  0.45794567162E+03  0.45794567162E+03  0.00000000000E+00 0.  1.
         21   -1    0    0  504  502 -0.00000000000E+00 -0.00000000000E+00 -0.91064634218E+03  0.91064634218E+03  0.00000000000E+00 0.  1.
         25    1    1    2    0    0  0.17066599980E+03 -0.12797524199E+03 -0.78255561819E+03  0.82068437393E+03  0.12500000000E+03 0.  0.
         21    1    1    2  503  502 -0.22453283780E+03  0.41815440021E+02  0.37311614367E+03  0.43746906513E+03  0.00000000000E+00 0.  1.
         21    1    1    2  504  501  0.53866837998E+02  0.86159801966E+02 -0.43261196044E+02  0.11043857475E+03  0.00000000000E+00 0.  1.
<mgrwt>
<rscale>  4 0.25913024E+03</rscale>
<asrwt>0</asrwt>
<pdfrwt beam="1">  1       21 0.70453181E-01 0.25913024E+03</pdfrwt>
<pdfrwt beam="2">  1       21 0.14009944E+00 0.25913024E+03</pdfrwt>
<totfact> 0.61212373E+02</totfact>
</mgrwt>
</event>
<event>
 5    0  0.1200001E+000  0.2375965E+03  0.7546771E-02  0.1121404E+00
         21   -1    0    0  503  501  0.00000000000E+00  0.00000000000E+00  0.73754777366E+03  0.73754777366E+03  0.00000000000E+00 0. -1.
         21   -1    0    0  501  502 -0.00000000000E+00 -0.00000000000E+00 -0.47622107736E+03  0.47622107736E+03  0.00000000000E+00 0.  1.
         25    1    1    2    0    0  0.13958103507E+03  0.14909783814E+03 -0.42414160021E+03  0.48706686165E+03  0.12500000000E+03 0.  0.
         21    1    1    2  503  504 -0.32030285972E+02 -0.10208393426E+02  0.31398448247E+03  0.31577904577E+03  0.00000000000E+00 0. -1.
         21    1    1    2  504  502 -0.10755074910E+03 -0.13888944472E+03  0.37148381404E+03  0.41092294360E+03  0.00000000000E+00 0. -1.
<mgrwt>
<rscale>  4 0.23759649E+03</rscale>
<asrwt>0</asrwt>
<pdfrwt beam="1">  1       21 0.11346889E+00 0.23759649E+03</pdfrwt>
<pdfrwt beam="2">  1       21 0.73264781E-01 0.23759649E+03</pdfrwt>
<totfact> 0.97283884E+02</totfact>
</mgrwt>
</event>
<event>
 5    0  0.1200001E+000  0.4318265E+03  0.7546771E-02  0.1033285E+00
         21   -1    0    0  502  501  0.00000000000E+00  0.00000000000E+00  0.84031859534E+03  0.84031859534E+03  0.00000000000E+00 0. -1.
         21   -1    0    0  504  502 -0.00000000000E+00 -0.00000000000E+00 -0.69743750254E+03  0.69743750254E+03  0.00000000000E+00 0. -1.
         25    1    1    2    0    0 -0.14960810874E+03 -0.39085489595E+03 -0.55271774194E+03  0.70446578209E+03  0.12500000000E+03 0.  0.
         21    1    1    2  503  501  0.82438378564E+02  0.35993821794E+03  0.64652507594E+03  0.74454434442E+03  0.00000000000E+00 0. -1.
         21    1    1    2  504  503  0.67169730174E+02  0.30916678008E+02  0.49073758804E+02  0.88745971367E+02  0.00000000000E+00 0.  1.
<mgrwt>
<rscale>  4 0.43182648E+03</rscale>
<asrwt>0</asrwt>
<pdfrwt beam="1">  1       21 0.12927979E+00 0.43182648E+03</pdfrwt>
<pdfrwt beam="2">  1       21 0.10729808E+00 0.43182648E+03</pdfrwt>
<totfact> 0.25225981E+02</totfact>
</mgrwt>
</event>
<event>
 5    0  0.1200001E+000  0.2437078E+03  0.7546771E-02  0.1117347E+00
         21   -1    0    0  503  501  0.00000000000E+00  0.00000000000E+00  0.14585752909E+03  0.14585752909E+03  0.00000000000E+00 0.  1.
         21   -1    0    0  504  502 -0.00000000000E+00 -0.00000000000E+00 -0.64648332226E+03  0.64648332226E+03  0.00000000000E+00 0.  1.
         25    1    1    2    0    0  0.15706612865E+01 -0.20468380708E+03 -0.17324216785E+03  0.29586445643E+03  0.12500000000E+03 0.  0.
         21    1    1    2  503  502 -0.27882556241E+02  0.20988034092E+03 -0.38136727545E+03  0.43619742461E+03  0.00000000000E+00 0.  1.
         21    1    1    2  504  501  0.26311894955E+02 -0.51965338377E+01  0.53983650135E+02  0.60278970313E+02  0.00000000000E+00 0. -1.
<mgrwt>
<rscale>  4 0.24370784E+03</rscale>
<asrwt>0</asrwt>
<pdfrwt beam="1">  1       21 0.22439620E-01 0.24370784E+03</pdfrwt>
<pdfrwt beam="2">  1       21 0.99458973E-01 0.24370784E+03</pdfrwt>
<totfact> 0.14995417E+04</totfact>
</mgrwt>
</event>
<event>
 5    0  0.1200001E+000  0.3013139E+03  0.7546771E-02  0.1084586E+00
         21   -1    0    0  503  501  0.00000000000E+00  0.00000000000E+00  0.60963606877E+03  0.60963606877E+03  0.00000000000E+00 0.  1.
         21   -1    0    0  504  502 -0.00000000000E+00 -0.00000000000E+00 -0.27694827166E+03  0.27694827166E+03  0.00000000000E+00 0.  1.
         25    1    1    2    0    0 -0.67667971224E+02  0.26379427988E+03 -0.10997704997E+03  0.31919637834E+03  0.12500000000E+03 0.  0.
         21    1    1    2  503  502  0.10531961203E+03 -0.26132952589E+03  0.26856444505E+03  0.38924568453E+03  0.00000000000E+00 0.  1.
         21    1    1    2  504  501 -0.37651640805E+02 -0.24647539900E+01  0.17410040203E+03  0.17814227756E+03  0.00000000000E+00 0.  1.
<mgrwt>
<rscale>  4 0.30131394E+03</rscale>
<asrwt>0</asrwt>
<pdfrwt beam="1">  1       21 0.93790164E-01 0.30131394E+03</pdfrwt>
<pdfrwt beam="2">  1       21 0.42607427E-01 0.30131394E+03</pdfrwt>
<totfact> 0.47160472E+03</totfact>
</mgrwt>
</event>
<event>
 5    0  0.1200001E+000  0.3017238E+03  0.7546771E-02  0.1084382E+00
         21   -1    0    0  502  501  0.00000000000E+00  0.00000000000E+00  0.27007086482E+03  0.27007086482E+03  0.00000000000E+00 0.  1.
         21   -1    0    0  503  502 -0.00000000000E+00 -0.00000000000E+00 -0.59533323691E+03  0.59533323691E+03  0.00000000000E+00 0.  1.
         25    1    1    2    0    0 -0.15642880025E+03 -0.22570394159E+03 -0.45674867337E+03  0.54740897820E+03  0.12500000000E+03 0.  0.
         21    1    1    2  503  504  0.42305414108E+02  0.10333207081E+02  0.34933158381E+02  0.55828745158E+02  0.00000000000E+00 0.  1.
         21    1    1    2  504  501  0.11412338614E+03  0.21537073451E+03  0.96553142894E+02  0.26216637837E+03  0.00000000000E+00 0.  1.
<mgrwt>
<rscale>  4 0.30172378E+03</rscale>
<asrwt>0</asrwt>
<pdfrwt beam="1">  1       21 0.41549364E-01 0.30172378E+03</pdfrwt>
<pdfrwt beam="2">  1       21 0.91589728E-01 0.30172378E+03</pdfrwt>
<totfact> 0.52512919E+03</totfact>
</mgrwt>
</event>
<event>
 5    0  0.1200001E+000  0.2480749E+03  0.7546771E-02  0.1114528E+00
         21   -1    0    0  503  501  0.00000000000E+00  0.00000000000E+00  0.85419959877E+02  0.85419959877E+02  0.00000000000E+00 0. -1.
         21   -1    0    0  501  502 -0.00000000000E+00 -0.00000000000E+00 -0.20896672676E+04  0.20896672676E+04  0.00000000000E+00 0. -1.
         25    1    1    2    0    0 -0.14775256618E+03  0.14805743848E+03 -0.15440482671E+04  0.15631576622E+04  0.12500000000E+03 0.  0.
         21    1    1    2  503  504 -0.32411293133E+02 -0.72321088126E+01  0.45850106322E+02  0.56612962917E+02  0.00000000000E+00 0. -1.
         21    1    1    2  504  502  0.18016385932E+03 -0.14082532966E+03 -0.50604914690E+03  0.55531660227E+03  0.00000000000E+00 0. -1.
<mgrwt>
<rscale>  4 0.24807490E+03</rscale>
<asrwt>0</asrwt>
<pdfrwt beam="1">  1       21 0.13141534E-01 0.24807490E+03</pdfrwt>
<pdfrwt beam="2">  1       21 0.32148723E+00 0.24807490E+03</pdfrwt>
<totfact> 0.11957376E+03</totfact>
</mgrwt>
</event>
<event>
 5    0  0.1200001E+000  0.2477311E+03  0.7546771E-02  0.1114747E+00
         21   -1    0    0  503  501  0.00000000000E+00  0.00000000000E+00  0.93390997218E+03  0.93390997218E+03  0.00000000000E+00 0.  1.
         21   -1    0    0  501  502 -0.00000000000E+00 -0.00000000000E+00 -0.12739512166E+03  0.12739512166E+03  0.00000000000E+00 0.  1.
         25    1    1    2    0    0  0.10110686441E+03  0.19021366459E+03  0.33133787982E+02  0.25125024206E+03  0.12500000000E+03 0.  0.
         21    1    1    2  503  504  0.12839226308E+02 -0.16181206642E+02  0.18174610403E+03  0.18291616525E+03  0.00000000000E+00 0. -1.
         21    1    1    2  504  502 -0.11394609072E+03 -0.17403245795E+03  0.59163495851E+03  0.62713868653E+03  0.00000000000E+00 0.  1.
<mgrwt>
<rscale>  4 0.24773107E+03</rscale>
<asrwt>0</asrwt>
<pdfrwt beam="1">  1       21 0.14367845E+00 0.24773107E+03</pdfrwt>
<pdfrwt beam="2">  1       21 0.19599250E-01 0.24773107E+03</pdfrwt>
<totfact> 0.77134810E+03</totfact>
</mgrwt>
</event>
<event>
 5    0  0.1200001E+000  0.2694683E+03  0.7546771E-02  0.1101584E+00
         21   -1    0    0  503  501  0.00000000000E+00  0.00000000000E+00  0.12690066837E+04  0.12690066837E+04  0.00000000000E+00 0.  1.
         21   -1    0    0  504  502 -0.00000000000E+00 -0.00000000000E+00 -0.15293156450E+03  0.15293156450E+03  0.00000000000E+00 0.  1.
         25    1    1    2    0    0 -0.22163426612E+03 -0.70216067712E+02  0.12313001720E+02  0.26425111938E+03  0.12500000000E+03 0.  0.
         21    1    1    2  503  502  0.26381826106E+03  0.63406349721E+02  0.68545906401E+03  0.73720727648E+03  0.00000000000E+00 0.  1.
         21    1    1    2  504  501 -0.42183994938E+02  0.68097179912E+01  0.41830305346E+03  0.42047985234E+03  0.00000000000E+00 0.  1.
<mgrwt>
<rscale>  4 0.26946829E+03</rscale>
<asrwt>0</asrwt>
<pdfrwt beam="1">  1       21 0.19523179E+00 0.26946829E+03</pdfrwt>
<pdfrwt beam="2">  1       21 0.23527934E-01 0.26946829E+03</pdfrwt>
<totfact> 0.22927946E+03</totfact>
</mgrwt>
</event>
<event>
 5    0  0.1941972E+000  0.2438199E+03  0.7546771E-02  0.1117274E+00
         21   -1    0    0  502  501  0.00000000000E+00  0.00000000000E+00  0.10528781085E+03  0.10528781085E+03  0.00000000000E+00 0. -1.
         21   -1    0    0  504  502 -0.00000000000E+00 -0.00000000000E+00 -0.53843715637E+03  0.53843715637E+03  0.00000000000E+00 0. -1.
         25    1    1    2    0    0 -0.26872482601E+01  0.21168918706E+03 -0.25605040889E+03  0.35497372454E+03  0.12500000000E+03 0.  0.
         21    1    1    2  503  501  0.22527900340E+02 -0.20618949082E+03 -0.16295006456E+03  0.26376947503E+03  0.00000000000E+00 0. -1.
         21    1    1    2  504  503 -0.19840652080E+02 -0.54996962409E+01 -0.14148872075E+02  0.24981767645E+02  0.00000000000E+00 0.  1.
<mgrwt>
<rscale>  4 0.24381990E+03</rscale>
<asrwt>0</asrwt>
<pdfrwt beam="1">  1       21 0.16198125E-01 0.24381990E+03</pdfrwt>
<pdfrwt beam="2">  1       21 0.82836486E-01 0.24381990E+03</pdfrwt>
<totfact> 0.42272444E+04</totfact>
</mgrwt>
</event>
<event>
 5    0  0.1200001E+000  0.2651681E+03  0.7546771E-02  0.1104077E+00
         21   -1    0    0  502  501  0.00000000000E+00  0.00000000000E+00  0.88975798743E+03  0.88975798743E+03  0.00000000000E+00 0.  1.
         21   -1    0    0  503  502 -0.00000000000E+00 -0.00000000000E+00 -0.28618598209E+03  0.28618598209E+03  0.00000000000E+00 0. -1.
         25    1    1    2    0    0 -0.20053503302E+03  0.11100235770E+03 -0.17175391538E+03  0.31250636846E+03  0.12500000000E+03 0.  0.
         21    1    1    2  503  504 -0.71690108454E+02 -0.21132011623E+02  0.71350071886E+02  0.10332892298E+03  0.00000000000E+00 0.  1.
         21    1    1    2  504  501  0.27222514147E+03 -0.89870346076E+02  0.70397584884E+03  0.76010867808E+03  0.00000000000E+00 0.  1.
<mgrwt>
<rscale>  4 0.26516805E+03</rscale>
<asrwt>0</asrwt>
<pdfrwt beam="1">  1       21 0.13688584E+00 0.26516805E+03</pdfrwt>
<pdfrwt beam="2">  1       21 0.44028613E-01 0.26516805E+03</pdfrwt>
<totfact> 0.17695712E+03</totfact>
</mgrwt>
</event>
<event>
 5    0  0.1200001E+000  0.3111883E+03  0.7546771E-02  0.1079778E+00
         21   -1    0    0  503  501  0.00000000000E+00  0.00000000000E+00  0.93073966714E+03  0.93073966714E+03  0.00000000000E+00 0.  1.
         21   -1    0    0  501  502 -0.00000000000E+00 -0.00000000000E+00 -0.11890342984E+04  0.11890342984E+04  0.00000000000E+00 0.  1.
         25    1    1    2    0    0  0.37285069197E+02 -0.27492501597E+03 -0.99567566343E+03  0.10411383038E+04  0.12500000000E+03 0.  0.
         21    1    1    2  503  504 -0.71463075624E+02 -0.79804154308E+02  0.71346477075E+03  0.72146216348E+03  0.00000000000E+00 0.  1.
         21    1    1    2  504  502  0.34178006427E+02  0.35472917028E+03  0.23916261383E+02  0.35717349835E+03  0.00000000000E+00 0. -1.
<mgrwt>
<rscale>  4 0.31118830E+03</rscale>
<asrwt>0</asrwt>
<pdfrwt beam="1">  1       21 0.14319072E+00 0.31118830E+03</pdfrwt>
<pdfrwt beam="2">  1       21 0.18292835E+00 0.31118830E+03</pdfrwt>
<totfact> 0.50962739E+01</totfact>
</mgrwt>
</event>
<event>
 5    0  0.1200001E+000  0.2496198E+03  0.7546771E-02  0.1113545E+00
         21   -1    0    0  502  501  0.00000000000E+00  0.00000000000E+00  0.25427310848E+03  0.25427310848E+03  0.00000000000E+00 0. -1.
         21   -1    0    0  503  502 -0.00000000000E+00 -0.00000000000E+00 -0.37020525178E+03  0.37020525178E+03  0.00000000000E+00 0. -1.
         25    1    1    2    0    0 -0.17188050886E+02  0.20337552884E+03 -0.20067119241E+03  0.31233149423E+03  0.12500000000E+03 0.  0.
         21    1    1    2  503  504 -0.13074719669E+02  0.46713502090E+02  0.13216551149E+02  0.50277000668E+02  0.00000000000E+00 0. -1.
         21    1    1    2  504  501  0.30262770555E+02 -0.25008903093E+03  0.71522497959E+02  0.26186986536E+03  0.00000000000E+00 0. -1.
<mgrwt>
<rscale>  4 0.24961985E+03</rscale>
<asrwt>0</asrwt>
<pdfrwt beam="1">  1       21 0.39118940E-01 0.24961985E+03</pdfrwt>
<pdfrwt beam="2">  1       21 0.56954654E-01 0.24961985E+03</pdfrwt>
<totfact> 0.17675959E+04</totfact>
</mgrwt>
</event>
<event>
 5    0  0.1200001E+000  0.3184351E+03  0.7546771E-02  0.1076372E+00
         21   -1    0    0  502  501  0.00000000000E+00  0.00000000000E+00  0.35030874493E+03  0.35030874493E+03  0.00000000000E+00 0. -1.
         21   -1    0    0  503  502 -0.00000000000E+00 -0.00000000000E+00 -0.41873442268E+03  0.41873442268E+03  0.00000000000E+00 0. -1.
         25    1    1    2    0    0  0.27310769083E+03  0.10620019561E+03 -0.24323080332E+03  0.40081481513E+03  0.12500000000E+03 0.  0.
         21    1    1    2  503  504 -0.11817237124E+02  0.27595613320E+02  0.10388568728E+02  0.31766134923E+02  0.00000000000E+00 0. -1.
         21    1    1    2  504  501 -0.26129045370E+03 -0.13379580893E+03  0.16441655684E+03  0.33646221757E+03  0.00000000000E+00 0. -1.
<mgrwt>
<rscale>  4 0.31843505E+03</rscale>
<asrwt>0</asrwt>
<pdfrwt beam="1">  1       21 0.53893653E-01 0.31843505E+03</pdfrwt>
<pdfrwt beam="2">  1       21 0.64420680E-01 0.31843505E+03</pdfrwt>
<totfact> 0.67251725E+03</totfact>
</mgrwt>
</event>
<event>
 5    0  0.1200001E+000  0.2894615E+03  0.7546771E-02  0.1090631E+00
         21   -1    0    0  502  501  0.00000000000E+00  0.00000000000E+00  0.84724831461E+03  0.84724831461E+03  0.00000000000E+00 0. -1.
         21   -1    0    0  504  502 -0.00000000000E+00 -0.00000000000E+00 -0.15699724755E+04  0.15699724755E+04  0.00000000000E+00 0. -1.
         25    1    1    2    0    0 -0.11474171439E+02 -0.26282287477E+03 -0.15252861733E+04  0.15528459133E+04  0.12500000000E+03 0.  0.
         21    1    1    2  503  501 -0.18795388957E+02  0.20743511843E+03  0.34889285505E+03  0.40633584547E+03  0.00000000000E+00 0. -1.
         21    1    1    2  504  503  0.30269560396E+02  0.55387756331E+02  0.45366915737E+03  0.45803903129E+03  0.00000000000E+00 0. -1.
<mgrwt>
<rscale>  4 0.28946152E+03</rscale>
<asrwt>0</asrwt>
<pdfrwt beam="1">  1       21 0.13034590E+00 0.28946152E+03</pdfrwt>
<pdfrwt beam="2">  1       21 0.24153422E+00 0.28946152E+03</pdfrwt>
<totfact> 0.28021861E+01</totfact>
</mgrwt>
</event>
<event>
 5    0  0.1200001E+000  0.2328440E+03  0.7546771E-02  0.1124654E+00
         21   -1    0    0  503  501  0.00000000000E+00  0.00000000000E+00  0.21023918328E+02  0.21023918328E+02  0.00000000000E+00 0. -1.
         21   -1    0    0  504  502 -0.00000000000E+00 -0.00000000000E+00 -0.27273376128E+04  0.27273376128E+04  0.00000000000E+00 0. -1.
         25    1    1    2    0    0  0.20186552328E+03  0.27611473002E+02 -0.16694505086E+04  0.16864762328E+04  0.12500000000E+03 0.  0.
         21    1    1    2  503  502 -0.18893094571E+03 -0.10631727729E+02 -0.10100023613E+04  0.10275761313E+04  0.00000000000E+00 0. -1.
         21    1    1    2  504  501 -0.12934577562E+02 -0.16979745273E+02 -0.26860824564E+02  0.34309167033E+02  0.00000000000E+00 0.  1.
<mgrwt>
<rscale>  4 0.23284396E+03</rscale>
<asrwt>0</asrwt>
<pdfrwt beam="1">  1       21 0.32344483E-02 0.23284396E+03</pdfrwt>
<pdfrwt beam="2">  1       21 0.41959049E+00 0.23284396E+03</pdfrwt>
<totfact> 0.34748488E+03</totfact>
</mgrwt>
</event>
<event>
 5    0  0.1200001E+000  0.2130047E+03  0.7546771E-02  0.1139208E+00
         21   -1    0    0  503  501  0.00000000000E+00  0.00000000000E+00  0.17835656704E+04  0.17835656704E+04  0.00000000000E+00 0. -1.
         21   -1    0    0  504  502 -0.00000000000E+00 -0.00000000000E+00 -0.12064059497E+03  0.12064059497E+03  0.00000000000E+00 0. -1.
         25    1    1    2    0    0  0.76198159774E+02 -0.19007863708E+03  0.13303747189E+03  0.27433559148E+03  0.12500000000E+03 0.  0.
         21    1    1    2  503  502 -0.10339147408E+03  0.11764335547E+03  0.76284482128E+02  0.17420986830E+03  0.00000000000E+00 0. -1.
         21    1    1    2  504  501  0.27193314303E+02  0.72435281613E+02  0.14536031214E+04  0.14556608056E+04  0.00000000000E+00 0. -1.
<mgrwt>
<rscale>  4 0.21300474E+03</rscale>
<asrwt>0</asrwt>
<pdfrwt beam="1">  1       21 0.27439470E+00 0.21300474E+03</pdfrwt>
<pdfrwt beam="2">  1       21 0.18560093E-01 0.21300474E+03</pdfrwt>
<totfact> 0.12407858E+03</totfact>
</mgrwt>
</event>
<event>
 5    0  0.1200001E+000  0.2961550E+03  0.7546771E-02  0.1087179E+00
         21   -1    0    0  503  501  0.00000000000E+00  0.00000000000E+00  0.95633043303E+02  0.95633043303E+02  0.00000000000E+00 0.  1.
         21   -1    0    0  504  502 -0.00000000000E+00 -0.00000000000E+00 -0.10396697505E+04  0.10396697505E+04  0.00000000000E+00 0.  1.
         25    1    1    2    0    0  0.73172986905E+02 -0.26796424309E+03 -0.65813420019E+03  0.72520669264E+03  0.12500000000E+03 0.  0.
         21    1    1    2  503  502 -0.58396054014E+02  0.24842811280E+03 -0.28883628376E+03  0.38542577129E+03  0.00000000000E+00 0.  1.
         21    1    1    2  504  501 -0.14776932891E+02  0.19536130288E+02  0.29337767227E+01  0.24670329916E+02  0.00000000000E+00 0.  1.
<mgrwt>
<rscale>  4 0.29615503E+03</rscale>
<asrwt>0</asrwt>
<pdfrwt beam="1">  1       21 0.14712776E-01 0.29615503E+03</pdfrwt>
<pdfrwt beam="2">  1       21 0.15994919E+00 0.29615503E+03</pdfrwt>
<totfact> 0.95824374E+03</totfact>
</mgrwt>
</event>
<event>
 5    0  0.1200001E+000  0.3011232E+03  0.7546771E-02  0.1084680E+00
         21   -1    0    0  503  501  0.00000000000E+00  0.00000000000E+00  0.30769542886E+03  0.30769542886E+03  0.00000000000E+00 0.  1.
         21   -1    0    0  504  502 -0.00000000000E+00 -0.00000000000E+00 -0.98896010473E+03  0.98896010473E+03  0.00000000000E+00 0.  1.
         25    1    1    2    0    0 -0.25793018686E+02 -0.29644845993E+03 -0.52993915362E+03  0.62048970640E+03  0.12500000000E+03 0.  0.
         21    1    1    2  503  502 -0.25404856662E+03  0.20328489177E+03 -0.19298384774E+03  0.37829642731E+03  0.00000000000E+00 0.  1.
         21    1    1    2  504  501  0.27984158531E+03  0.93163568164E+02  0.41658325493E+02  0.29786939988E+03  0.00000000000E+00 0.  1.
<mgrwt>
<rscale>  4 0.30112321E+03</rscale>
<asrwt>0</asrwt>
<pdfrwt beam="1">  1       21 0.47337758E-01 0.30112321E+03</pdfrwt>
<pdfrwt beam="2">  1       21 0.15214771E+00 0.30112321E+03</pdfrwt>
<totfact> 0.11234344E+03</totfact>
</mgrwt>
</event>
<event>
 5    0  0.1200001E+000  0.2530311E+03  0.7546771E-02  0.1111404E+00
         21   -1    0    0  503  501  0.00000000000E+00  0.00000000000E+00  0.69476774736E+03  0.69476774736E+03  0.00000000000E+00 0. -1.
         21   -1    0    0  504  502 -0.00000000000E+00 -0.00000000000E+00 -0.23316453772E+03  0.23316453772E+03  0.00000000000E+00 0. -1.
         25    1    1    2    0    0  0.14626004296E+03  0.16419995799E+03 -0.13073467192E+03  0.28472825784E+03  0.12500000000E+03 0.  0.
         21    1    1    2  503  502 -0.12806070262E+03 -0.18124294654E+03  0.49064165723E+03  0.53849585424E+03  0.00000000000E+00 0. -1.
         21    1    1    2  504  501 -0.18199340342E+02  0.17042988556E+02  0.10169622434E+03  0.10470817300E+03  0.00000000000E+00 0. -1.
<mgrwt>
<rscale>  4 0.25303107E+03</rscale>
<asrwt>0</asrwt>
<pdfrwt beam="1">  1       21 0.10688735E+00 0.25303107E+03</pdfrwt>
<pdfrwt beam="2">  1       21 0.35871467E-01 0.25303107E+03</pdfrwt>
<totfact> 0.50247042E+03</totfact>
</mgrwt>
</event>
<event>
 5    0  0.1200001E+000  0.2359698E+03  0.7546771E-02  0.1122507E+00
         21   -1    0    0  503  501  0.00000000000E+00  0.00000000000E+00  0.42070138844E+02  0.42070138844E+02  0.00000000000E+00 0. -1.
         21   -1    0    0  504  502 -0.00000000000E+00 -0.00000000000E+00 -0.13853999680E+04  0.13853999680E+04  0.00000000000E+00 0. -1.
         25    1    1    2    0    0 -0.67030205005E+02  0.19512643463E+03 -0.90583073809E+03  0.93740156813E+03  0.12500000000E+03 0.  0.
         21    1    1    2  503  502  0.80471551519E+02 -0.17473092656E+03 -0.41231926193E+03  0.45498762737E+03  0.00000000000E+00 0. -1.
         21    1    1    2  504  501 -0.13441346514E+02 -0.20395508063E+02 -0.25179829153E+02  0.35080911354E+02  0.00000000000E+00 0. -1.
<mgrwt>
<rscale>  4 0.23596984E+03</rscale>
<asrwt>0</asrwt>
<pdfrwt beam="1">  1       21 0.64723286E-02 0.23596984E+03</pdfrwt>
<pdfrwt beam="2">  1       21 0.21313847E+00 0.23596984E+03</pdfrwt>
<totfact> 0.18596952E+04</totfact>
</mgrwt>
</event>
<event>
 5    0  0.1200001E+000  0.2876695E+03  0.7546771E-02  0.1091572E+00
         21   -1    0    0  503  501  0.00000000000E+00  0.00000000000E+00  0.32048190135E+03  0.32048190135E+03  0.00000000000E+00 0.  1.
         21   -1    0    0  504  502 -0.00000000000E+00 -0.00000000000E+00 -0.14951054290E+04  0.14951054290E+04  0.00000000000E+00 0. -1.
         25    1    1    2    0    0 -0.98717447742E+01 -0.25890403159E+03 -0.14162065188E+04  0.14451279018E+04  0.12500000000E+03 0.  0.
         21    1    1    2  503  502 -0.21043855140E+02  0.15931653933E+03  0.83544595299E+02  0.18111958190E+03  0.00000000000E+00 0.  1.
         21    1    1    2  504  501  0.30915599914E+02  0.99587492255E+02  0.15803839585E+03  0.18933984656E+03  0.00000000000E+00 0.  1.
<mgrwt>
<rscale>  4 0.28766951E+03</rscale>
<asrwt>0</asrwt>
<pdfrwt beam="1">  1       21 0.49304908E-01 0.28766951E+03</pdfrwt>
<pdfrwt beam="2">  1       21 0.23001622E+00 0.28766951E+03</pdfrwt>
<totfact> 0.30927132E+02</totfact>
</mgrwt>
</event>
<event>
 5    0  0.1200001E+000  0.2422507E+03  0.7546771E-02  0.1118303E+00
         21   -1    0    0  503  501  0.00000000000E+00  0.00000000000E+00  0.30917965488E+03  0.30917965488E+03  0.00000000000E+00 0.  1.
         21   -1    0    0  501  502 -0.00000000000E+00 -0.00000000000E+00 -0.28883824152E+03  0.28883824152E+03  0.00000000000E+00 0.  1.
         25    1    1    2    0    0  0.17747165029E+03 -0.94092462531E+02 -0.15380669860E+03  0.28218979198E+03  0.12500000000E+03 0.  0.
         21    1    1    2  503  504  0.16089993065E+02 -0.28797629907E+02  0.32591820958E+02  0.46372601377E+02  0.00000000000E+00 0.  1.
         21    1    1    2  504  502 -0.19356164336E+03  0.12289009244E+03  0.14155629100E+03  0.26945550304E+03  0.00000000000E+00 0.  1.
<mgrwt>
<rscale>  4 0.24225067E+03</rscale>
<asrwt>0</asrwt>
<pdfrwt beam="1">  1       21 0.47566101E-01 0.24225067E+03</pdfrwt>
<pdfrwt beam="2">  1       21 0.44436653E-01 0.24225067E+03</pdfrwt>
<totfact> 0.19995801E+04</totfact>
</mgrwt>
</event>
<event>
 5    0  0.1200001E+000  0.2393643E+03  0.7546771E-02  0.1120217E+00
         21   -1    0    0  503  501  0.00000000000E+00  0.00000000000E+00  0.35027077819E+03  0.35027077819E+03  0.00000000000E+00 0.  1.
         21   -1    0    0  504  502 -0.00000000000E+00 -0.00000000000E+00 -0.16550619787E+03  0.16550619787E+03  0.00000000000E+00 0.  1.
         25    1    1    2    0    0  0.88548761189E+02  0.19030600022E+03  0.15740356624E+03  0.29061682590E+03  0.12500000000E+03 0.  0.
         21    1    1    2  503  502 -0.10263735247E+03 -0.16835900770E+03  0.20831969324E+02  0.19827544614E+03  0.00000000000E+00 0.  1.
         21    1    1    2  504  501  0.14088591283E+02 -0.21946992518E+02  0.65290447566E+01  0.26884704022E+02  0.00000000000E+00 0. -1.
<mgrwt>
<rscale>  4 0.23936425E+03</rscale>
<asrwt>0</asrwt>
<pdfrwt beam="1">  1       21 0.53887812E-01 0.23936425E+03</pdfrwt>
<pdfrwt beam="2">  1       21 0.25462492E-01 0.23936425E+03</pdfrwt>
<totfact> 0.46609885E+04</totfact>
</mgrwt>
</event>
<event>
 5    0  0.1200001E+000  0.2479802E+03  0.7546771E-02  0.1114588E+00
         21   -1    0    0  503  501  0.00000000000E+00  0.00000000000E+00  0.46673735425E+03  0.46673735425E+03  0.00000000000E+00 0. -1.
         21   -1    0    0  504  502 -0.00000000000E+00 -0.00000000000E+00 -0.37119573978E+03  0.37119573978E+03  0.00000000000E+00 0. -1.
         25    1    1    2    0    0  0.22330185922E+03 -0.23630857061E+02 -0.28493594260E+03  0.38371295146E+03  0.12500000000E+03 0.  0.
         21    1    1    2  503  502 -0.16844823193E+03  0.11258602384E+02  0.18338167308E+03  0.24925970591E+03  0.00000000000E+00 0. -1.
         21    1    1    2  504  501 -0.54853627289E+02  0.12372254678E+02  0.19709588398E+03  0.20496043666E+03  0.00000000000E+00 0. -1.
<mgrwt>
<rscale>  4 0.24798020E+03</rscale>
<asrwt>0</asrwt>
<pdfrwt beam="1">  1       21 0.71805747E-01 0.24798020E+03</pdfrwt>
<pdfrwt beam="2">  1       21 0.57107037E-01 0.24798020E+03</pdfrwt>
<totfact> 0.48502635E+03</totfact>
</mgrwt>
</event>
<event>
 5    0  0.1200001E+000  0.3125987E+03  0.7546771E-02  0.1079107E+00
         21   -1    0    0  503  501  0.00000000000E+00  0.00000000000E+00  0.35091703972E+02  0.35091703972E+02  0.00000000000E+00 0.  1.
         21   -1    0    0  501  502 -0.00000000000E+00 -0.00000000000E+00 -0.35074550440E+04  0.35074550440E+04  0.00000000000E+00 0.  1.
         25    1    1    2    0    0  0.11323703838E+03  0.26319254050E+03 -0.26274264624E+04  0.26459568695E+04  0.12500000000E+03 0.  0.
         21    1    1    2  503  504 -0.34395717734E+02 -0.16531920507E+02 -0.72954516907E+02  0.82333051269E+02  0.00000000000E+00 0.  1.
         21    1    1    2  504  502 -0.78841320648E+02 -0.24666061999E+03 -0.77198236077E+03  0.81425682720E+03  0.00000000000E+00 0.  1.
<mgrwt>
<rscale>  4 0.31259869E+03</rscale>
<asrwt>0</asrwt>
<pdfrwt beam="1">  1       21 0.53987244E-02 0.31259869E+03</pdfrwt>
<pdfrwt beam="2">  1       21 0.53960839E+00 0.31259869E+03</pdfrwt>
<totfact> 0.19752928E+02</totfact>
</mgrwt>
</event>
<event>
 5    0  0.1200001E+000  0.5260456E+03  0.7546771E-02  0.1007196E+00
         21   -1    0    0  503  501  0.00000000000E+00  0.00000000000E+00  0.28897619916E+03  0.28897619916E+03  0.00000000000E+00 0.  1.
         21   -1    0    0  504  502 -0.00000000000E+00 -0.00000000000E+00 -0.16520726286E+04  0.16520726286E+04  0.00000000000E+00 0.  1.
         25    1    1    2    0    0  0.22075301832E+03 -0.45845460736E+03 -0.53586345686E+03  0.74945791510E+03  0.12500000000E+03 0.  0.
         21    1    1    2  503  502  0.13908709622E+03  0.80537168013E+02 -0.60225010092E+03  0.62332707291E+03  0.00000000000E+00 0.  1.
         21    1    1    2  504  501 -0.35984011455E+03  0.37791743935E+03 -0.22498287162E+03  0.56826383971E+03  0.00000000000E+00 0.  1.
<mgrwt>
<rscale>  4 0.52604563E+03</rscale>
<asrwt>0</asrwt>
<pdfrwt beam="1">  1       21 0.44457877E-01 0.52604563E+03</pdfrwt>
<pdfrwt beam="2">  1       21 0.25416502E+00 0.52604563E+03</pdfrwt>
<totfact> 0.23429767E+02</totfact>
</mgrwt>
</event>
<event>
 5    0  0.1200001E+000  0.3104635E+03  0.7546771E-02  0.1080124E+00
         21   -1    0    0  503  501  0.00000000000E+00  0.00000000000E+00  0.12137205412E+03  0.12137205412E+03  0.00000000000E+00 0.  1.
         21   -1    0    0  504  502 -0.00000000000E+00 -0.00000000000E+00 -0.17180120879E+04  0.17180120879E+04  0.00000000000E+00 0. -1.
         25    1    1    2    0    0 -0.18836034085E+03  0.21583098360E+03 -0.13250702550E+04  0.13614326323E+04  0.12500000000E+03 0.  0.
         21    1    1    2  503  502  0.15729023561E+03 -0.23049272867E+03 -0.31613989131E+03  0.42167706491E+03  0.00000000000E+00 0.  1.
         21    1    1    2  504  501  0.31070105242E+02  0.14661745076E+02  0.44570112550E+02  0.56274444832E+02  0.00000000000E+00 0.  1.
<mgrwt>
<rscale>  4 0.31046346E+03</rscale>
<asrwt>0</asrwt>
<pdfrwt beam="1">  1       21 0.18672626E-01 0.31046346E+03</pdfrwt>
<pdfrwt beam="2">  1       21 0.26430953E+00 0.31046346E+03</pdfrwt>
<totfact> 0.12847059E+03</totfact>
</mgrwt>
</event>
<event>
 5    0  0.1200001E+000  0.2564572E+03  0.7546771E-02  0.1109291E+00
         21   -1    0    0  503  501  0.00000000000E+00  0.00000000000E+00  0.12016848838E+03  0.12016848838E+03  0.00000000000E+00 0.  1.
         21   -1    0    0  504  502 -0.00000000000E+00 -0.00000000000E+00 -0.67774922580E+03  0.67774922580E+03  0.00000000000E+00 0.  1.
         25    1    1    2    0    0 -0.15671532918E+03 -0.13538080830E+03 -0.32104262197E+03  0.40197142035E+03  0.12500000000E+03 0.  0.
         21    1    1    2  503  502  0.12721955093E+03  0.19969627556E+03 -0.13615665001E+03  0.27313375836E+03  0.00000000000E+00 0.  1.
         21    1    1    2  504  501  0.29495778252E+02 -0.64315467258E+02 -0.10038146544E+03  0.12281253547E+03  0.00000000000E+00 0. -1.
<mgrwt>
<rscale>  4 0.25645717E+03</rscale>
<asrwt>0</asrwt>
<pdfrwt beam="1">  1       21 0.18487460E-01 0.25645717E+03</pdfrwt>
<pdfrwt beam="2">  1       21 0.10426911E+00 0.25645717E+03</pdfrwt>
<totfact> 0.19151393E+04</totfact>
</mgrwt>
</event>
<event>
 5    0  0.1200001E+000  0.4586764E+03  0.7546771E-02  0.1025166E+00
         21   -1    0    0  502  501  0.00000000000E+00  0.00000000000E+00  0.59228418653E+03  0.59228418653E+03  0.00000000000E+00 0. -1.
         21   -1    0    0  504  502 -0.00000000000E+00 -0.00000000000E+00 -0.53479693219E+03  0.53479693219E+03  0.00000000000E+00 0. -1.
         25    1    1    2    0    0  0.10737343572E+03  0.43683316025E+03 -0.28211562675E+03  0.54549655494E+03  0.12500000000E+03 0.  0.
         21    1    1    2  503  501 -0.11390964247E+03 -0.40165777529E+03  0.25371891852E+03  0.48854648163E+03  0.00000000000E+00 0. -1.
         21    1    1    2  504  503  0.65362067477E+01 -0.35175384961E+02  0.85883962554E+02  0.93038082148E+02  0.00000000000E+00 0.  1.
<mgrwt>
<rscale>  4 0.45867638E+03</rscale>
<asrwt>0</asrwt>
<pdfrwt beam="1">  1       21 0.91120644E-01 0.45867638E+03</pdfrwt>
<pdfrwt beam="2">  1       21 0.82276451E-01 0.45867638E+03</pdfrwt>
<totfact> 0.11194589E+03</totfact>
</mgrwt>
</event>
<event>
 5    0  0.1200001E+000  0.2501762E+03  0.7546771E-02  0.1113194E+00
         21   -1    0    0  503  501  0.00000000000E+00  0.00000000000E+00  0.63840497426E+02  0.63840497426E+02  0.00000000000E+00 0.  1.
         21   -1    0    0  504  502 -0.00000000000E+00 -0.00000000000E+00 -0.13839351486E+04  0.13839351486E+04  0.00000000000E+00 0.  1.
         25    1    1    2    0    0  0.19146967030E+03  0.88236492715E+02 -0.99308881212E+03  0.10228864561E+04  0.12500000000E+03 0.  0.
         21    1    1    2  503  502 -0.19887938803E+03 -0.12307975662E+03 -0.29880665706E+03  0.37945626332E+03  0.00000000000E+00 0.  1.
         21    1    1    2  504  501  0.74097177343E+01  0.34843263907E+02 -0.28199182034E+02  0.45432926650E+02  0.00000000000E+00 0. -1.
<mgrwt>
<rscale>  4 0.25017617E+03</rscale>
<asrwt>0</asrwt>
<pdfrwt beam="1">  1       21 0.98216149E-02 0.25017617E+03</pdfrwt>
<pdfrwt beam="2">  1       21 0.21291310E+00 0.25017617E+03</pdfrwt>
<totfact> 0.89066579E+03</totfact>
</mgrwt>
</event>
<event>
 5    0  0.1200001E+000  0.3290064E+03  0.7546771E-02  0.1071577E+00
         21   -1    0    0  503  501  0.00000000000E+00  0.00000000000E+00  0.32330880485E+03  0.32330880485E+03  0.00000000000E+00 0. -1.
         21   -1    0    0  504  502 -0.00000000000E+00 -0.00000000000E+00 -0.11943290335E+04  0.11943290335E+04  0.00000000000E+00 0. -1.
         25    1    1    2    0    0 -0.16122059376E+03 -0.26758435150E+03 -0.10708399252E+04  0.11224600708E+04  0.12500000000E+03 0.  0.
         21    1    1    2  503  502  0.10664594755E+03  0.22605398849E+03  0.89908782024E+02  0.26562634080E+03  0.00000000000E+00 0. -1.
         21    1    1    2  504  501  0.54574646209E+02  0.41530363012E+02  0.10991091452E+03  0.12955142682E+03  0.00000000000E+00 0. -1.
<mgrwt>
<rscale>  4 0.32900642E+03</rscale>
<asrwt>0</asrwt>
<pdfrwt beam="1">  1       21 0.49739816E-01 0.32900642E+03</pdfrwt>
<pdfrwt beam="2">  1       21 0.18374293E+00 0.32900642E+03</pdfrwt>
<totfact> 0.58634734E+02</totfact>
</mgrwt>
</event>
<event>
 5    0  0.1200001E+000  0.2380725E+03  0.7546771E-02  0.1121084E+00
         21   -1    0    0  503  501  0.00000000000E+00  0.00000000000E+00  0.55585185062E+03  0.55585185062E+03  0.00000000000E+00 0.  1.
         21   -1    0    0  504  502 -0.00000000000E+00 -0.00000000000E+00 -0.18091307223E+03  0.18091307223E+03  0.00000000000E+00 0.  1.
         25    1    1    2    0    0  0.24615320128E+03 -0.94674615269E+01  0.14986445544E+03  0.31426960771E+03  0.12500000000E+03 0.  0.
         21    1    1    2  503  502 -0.17359808354E+03 -0.82427817395E+02  0.23663690634E+03  0.30484039288E+03  0.00000000000E+00 0.  1.
         21    1    1    2  504  501 -0.72555117737E+02  0.91895278922E+02 -0.11562583380E+02  0.11765492226E+03  0.00000000000E+00 0.  1.
<mgrwt>
<rscale>  4 0.23807246E+03</rscale>
<asrwt>0</asrwt>
<pdfrwt beam="1">  1       21 0.85515668E-01 0.23807246E+03</pdfrwt>
<pdfrwt beam="2">  1       21 0.27832781E-01 0.23807246E+03</pdfrwt>
<totfact> 0.14168810E+04</totfact>
</mgrwt>
</event>
<event>
 5    0  0.1200001E+000  0.2550806E+03  0.7546771E-02  0.1110135E+00
         21   -1    0    0  503  501  0.00000000000E+00  0.00000000000E+00  0.19195141957E+03  0.19195141957E+03  0.00000000000E+00 0.  1.
         21   -1    0    0  504  502 -0.00000000000E+00 -0.00000000000E+00 -0.38528965749E+03  0.38528965749E+03  0.00000000000E+00 0.  1.
         25    1    1    2    0    0  0.19990580297E+03  0.94599955792E+02 -0.10807211757E+03  0.27607257070E+03  0.12500000000E+03 0.  0.
         21    1    1    2  503  502 -0.18888712159E+03 -0.12055968850E+03 -0.12177681785E+03  0.25503446151E+03  0.00000000000E+00 0.  1.
         21    1    1    2  504  501 -0.11018681385E+02  0.25959732706E+02  0.36510697504E+02  0.46134044846E+02  0.00000000000E+00 0. -1.
<mgrwt>
<rscale>  4 0.25508057E+03</rscale>
<asrwt>0</asrwt>
<pdfrwt beam="1">  1       21 0.29530988E-01 0.25508057E+03</pdfrwt>
<pdfrwt beam="2">  1       21 0.59275332E-01 0.25508057E+03</pdfrwt>
<totfact> 0.28321625E+04</totfact>
</mgrwt>
</event>
<event>
 5    0  0.1200001E+000  0.3520479E+03  0.7546771E-02  0.1061778E+00
         21   -1    0    0  503  501  0.00000000000E+00  0.00000000000E+00  0.66049538401E+03  0.66049538401E+03  0.00000000000E+00 0. -1.
         21   -1    0    0  501  502 -0.00000000000E+00 -0.00000000000E+00 -0.33318327192E+03  0.33318327192E+03  0.00000000000E+00 0. -1.
         25    1    1    2    0    0 -0.27565490615E+03  0.14955766401E+03  0.15948848268E+02  0.33798296985E+03  0.12500000000E+03 0.  0.
         21    1    1    2  503  504 -0.28303543557E+02  0.12051199410E+02  0.30991953141E+03  0.31144251144E+03  0.00000000000E+00 0. -1.
         21    1    1    2  504  502  0.30395844971E+03 -0.16160886342E+03  0.14437324187E+01  0.34425317464E+03  0.00000000000E+00 0. -1.
<mgrwt>
<rscale>  4 0.35204788E+03</rscale>
<asrwt>0</asrwt>
<pdfrwt beam="1">  1       21 0.10161467E+00 0.35204788E+03</pdfrwt>
<pdfrwt beam="2">  1       21 0.51258965E-01 0.35204788E+03</pdfrwt>
<totfact> 0.25790720E+03</totfact>
</mgrwt>
</event>
<event>
 5    0  0.1200001E+000  0.2569193E+03  0.7546771E-02  0.1109008E+00
         21   -1    0    0  502  501  0.00000000000E+00  0.00000000000E+00  0.11517715145E+03  0.11517715145E+03  0.00000000000E+00 0. -1.
         21   -1    0    0  504  502 -0.00000000000E+00 -0.00000000000E+00 -0.11334126232E+04  0.11334126232E+04  0.00000000000E+00 0.  1.
         25    1    1    2    0    0 -0.18306187563E+03 -0.12988802472E+03 -0.95790009732E+03  0.99175609184E+03  0.12500000000E+03 0.  0.
         21    1    1    2  503  501  0.10119890709E+03  0.54432798511E+02  0.23721738805E+02  0.11733230264E+03  0.00000000000E+00 0. -1.
         21    1    1    2  504  503  0.81862968535E+02  0.75455226208E+02 -0.84057113225E+02  0.13950138015E+03  0.00000000000E+00 0. -1.
<mgrwt>
<rscale>  4 0.25691934E+03</rscale>
<asrwt>0</asrwt>
<pdfrwt beam="1">  1       21 0.17719561E-01 0.25691934E+03</pdfrwt>
<pdfrwt beam="2">  1       21 0.17437118E+00 0.25691934E+03</pdfrwt>
<totfact> 0.54723041E+03</totfact>
</mgrwt>
</event>
<event>
 5    0  0.1200001E+000  0.2570555E+03  0.7546771E-02  0.1108925E+00
         21   -1    0    0  503  501  0.00000000000E+00  0.00000000000E+00  0.29424402520E+03  0.29424402520E+03  0.00000000000E+00 0. -1.
         21   -1    0    0  501  502 -0.00000000000E+00 -0.00000000000E+00 -0.78468902853E+03  0.78468902853E+03  0.00000000000E+00 0. -1.
         25    1    1    2    0    0 -0.82629036825E+02 -0.21263553314E+03 -0.64274095881E+03  0.69338471847E+03  0.12500000000E+03 0.  0.
         21    1    1    2  503  504 -0.16391578942E+02  0.24941190798E+02  0.16999852275E+03  0.17259850694E+03  0.00000000000E+00 0. -1.
         21    1    1    2  504  502  0.99020615767E+02  0.18769434234E+03 -0.17702567269E+02  0.21294982832E+03  0.00000000000E+00 0. -1.
<mgrwt>
<rscale>  4 0.25705555E+03</rscale>
<asrwt>0</asrwt>
<pdfrwt beam="1">  1       21 0.45268312E-01 0.25705555E+03</pdfrwt>
<pdfrwt beam="2">  1       21 0.12072139E+00 0.25705555E+03</pdfrwt>
<totfact> 0.23133705E+03</totfact>
</mgrwt>
</event>
<event>
 5    0  0.1200001E+000  0.2638841E+03  0.7546771E-02  0.1104832E+00
         21   -1    0    0  502  501  0.00000000000E+00  0.00000000000E+00  0.38763976909E+02  0.38763976909E+02  0.00000000000E+00 0.  1.
         21   -1    0    0  504  502 -0.00000000000E+00 -0.00000000000E+00 -0.28597004104E+04  0.28597004104E+04  0.00000000000E+00 0.  1.
         25    1    1    2    0    0  0.20791300854E+03 -0.52023463884E+01 -0.88911043845E+03  0.92162750354E+03  0.12500000000E+03 0.  0.
         21    1    1    2  503  501 -0.22216880591E+03  0.15147402473E+03 -0.13676864261E+04  0.13938685443E+04  0.00000000000E+00 0.  1.
         21    1    1    2  504  503  0.14255797370E+02 -0.14627167835E+03 -0.56413956897E+03  0.58296833955E+03  0.00000000000E+00 0.  1.
<mgrwt>
<rscale>  4 0.26388415E+03</rscale>
<asrwt>0</asrwt>
<pdfrwt beam="1">  1       21 0.59636903E-02 0.26388415E+03</pdfrwt>
<pdfrwt beam="2">  1       21 0.43995380E+00 0.26388415E+03</pdfrwt>
<totfact> 0.87663481E+02</totfact>
</mgrwt>
</event>
<event>
 5    0  0.1200001E+000  0.3051843E+03  0.7546771E-02  0.1082677E+00
         21   -1    0    0  503  501  0.00000000000E+00  0.00000000000E+00  0.10794537945E+03  0.10794537945E+03  0.00000000000E+00 0.  1.
         21   -1    0    0  501  502 -0.00000000000E+00 -0.00000000000E+00 -0.18091295737E+04  0.18091295737E+04  0.00000000000E+00 0. -1.
         25    1    1    2    0    0  0.15846680392E+03 -0.20157990665E+03 -0.10814957920E+04  0.11184830508E+04  0.12500000000E+03 0.  0.
         21    1    1    2  503  504  0.59550675646E+02 -0.39095751958E+02  0.26005265707E+02  0.75835576318E+02  0.00000000000E+00 0.  1.
         21    1    1    2  504  502 -0.21801747957E+03  0.24067565860E+03 -0.64569366797E+03  0.72275632608E+03  0.00000000000E+00 0.  1.
<mgrwt>
<rscale>  4 0.30518432E+03</rscale>
<asrwt>0</asrwt>
<pdfrwt beam="1">  1       21 0.16606981E-01 0.30518432E+03</pdfrwt>
<pdfrwt beam="2">  1       21 0.27832763E+00 0.30518432E+03</pdfrwt>
<totfact> 0.13251848E+03</totfact>
</mgrwt>
</event>
<event>
 5    0  0.1200001E+000  0.2571976E+03  0.7546771E-02  0.1108839E+00
         21   -1    0    0  503  501  0.00000000000E+00  0.00000000000E+00  0.27254699851E+03  0.27254699851E+03  0.00000000000E+00 0. -1.
         21   -1    0    0  504  502 -0.00000000000E+00 -0.00000000000E+00 -0.46348750948E+03  0.46348750948E+03  0.00000000000E+00 0.  1.
         25    1    1    2    0    0 -0.76760247487E+02 -0.22024039082E+03 -0.26963586143E+03  0.37779156040E+03  0.12500000000E+03 0.  0.
         21    1    1    2  503  502  0.16756334094E+03  0.14513233227E+03  0.91274112630E+02  0.23973283199E+03  0.00000000000E+00 0. -1.
         21    1    1    2  504  501 -0.90803093455E+02  0.75108058552E+02 -0.12578762169E+02  0.11851011559E+03  0.00000000000E+00 0. -1.
<mgrwt>
<rscale>  4 0.25719759E+03</rscale>
<asrwt>0</asrwt>
<pdfrwt beam="1">  1       21 0.41930308E-01 0.25719759E+03</pdfrwt>
<pdfrwt beam="2">  1       21 0.71305770E-01 0.25719759E+03</pdfrwt>
<totfact> 0.93549396E+03</totfact>
</mgrwt>
</event>
<event>
 5    0  0.1200001E+000  0.2743219E+03  0.7546771E-02  0.1098831E+00
         21   -1    0    0  503  501  0.00000000000E+00  0.00000000000E+00  0.13204386806E+04  0.13204386806E+04  0.00000000000E+00 0. -1.
         21   -1    0    0  501  502 -0.00000000000E+00 -0.00000000000E+00 -0.19790243744E+03  0.19790243744E+03  0.00000000000E+00 0. -1.
         25    1    1    2    0    0 -0.15413676528E+03  0.22261641920E+03 -0.85057597780E+01  0.29835140432E+03  0.12500000000E+03 0.  0.
         21    1    1    2  503  504  0.19511516501E+03 -0.16211898202E+01  0.77299859247E+03  0.79724486818E+03  0.00000000000E+00 0. -1.
         21    1    1    2  504  502 -0.40978399724E+02 -0.22099522938E+03  0.35804341045E+03  0.42274484553E+03  0.00000000000E+00 0. -1.
<mgrwt>
<rscale>  4 0.27432187E+03</rscale>
<asrwt>0</asrwt>
<pdfrwt beam="1">  1       21 0.20314441E+00 0.27432187E+03</pdfrwt>
<pdfrwt beam="2">  1       21 0.30446530E-01 0.27432187E+03</pdfrwt>
<totfact> 0.12298421E+03</totfact>
</mgrwt>
</event>
<event>
 5    0  0.1200001E+000  0.2700605E+03  0.7546771E-02  0.1101245E+00
         21   -1    0    0  502  501  0.00000000000E+00  0.00000000000E+00  0.56216182755E+03  0.56216182755E+03  0.00000000000E+00 0. -1.
         21   -1    0    0  504  502 -0.00000000000E+00 -0.00000000000E+00 -0.59116908634E+03  0.59116908634E+03  0.00000000000E+00 0. -1.
         25    1    1    2    0    0  0.47459984264E+02 -0.24699237493E+03 -0.40768016638E+03  0.49506141178E+03  0.12500000000E+03 0.  0.
         21    1    1    2  503  501  0.49529388925E+02  0.49237345920E+02  0.42708118398E+03  0.43275375713E+03  0.00000000000E+00 0. -1.
         21    1    1    2  504  503 -0.96989373189E+02  0.19775502901E+03 -0.48408276385E+02  0.22551574498E+03  0.00000000000E+00 0. -1.
<mgrwt>
<rscale>  4 0.27006047E+03</rscale>
<asrwt>0</asrwt>
<pdfrwt beam="1">  1       21 0.86486436E-01 0.27006047E+03</pdfrwt>
<pdfrwt beam="2">  1       21 0.90949090E-01 0.27006047E+03</pdfrwt>
<totfact> 0.11058888E+03</totfact>
</mgrwt>
</event>
<event>
 5    0  0.1200001E+000  0.2610911E+03  0.7546771E-02  0.1106489E+00
         21   -1    0    0  503  501  0.00000000000E+00  0.00000000000E+00  0.12359387269E+03  0.12359387269E+03  0.00000000000E+00 0. -1.
         21   -1    0    0  504  502 -0.00000000000E+00 -0.00000000000E+00 -0.68382103754E+03  0.68382103754E+03  0.00000000000E+00 0. -1.
         25    1    1    2    0    0  0.13473824243E+02  0.23264861703E+03 -0.48362924296E+03  0.55120700974E+03  0.12500000000E+03 0.  0.
         21    1    1    2  503  502  0.45340118791E+01 -0.22011595854E+03 -0.58593015795E+02  0.22782610467E+03  0.00000000000E+00 0. -1.
         21    1    1    2  504  501 -0.18007836122E+02 -0.12532658488E+02 -0.18004906094E+02  0.28381795821E+02  0.00000000000E+00 0. -1.
<mgrwt>
<rscale>  4 0.26109109E+03</rscale>
<asrwt>0</asrwt>
<pdfrwt beam="1">  1       21 0.19014442E-01 0.26109109E+03</pdfrwt>
<pdfrwt beam="2">  1       21 0.10520324E+00 0.26109109E+03</pdfrwt>
<totfact> 0.17742682E+04</totfact>
</mgrwt>
</event>
<event>
 5    0  0.1200001E+000  0.4909012E+03  0.7546771E-02  0.1016181E+00
         21   -1    0    0  503  501  0.00000000000E+00  0.00000000000E+00  0.16942638202E+04  0.16942638202E+04  0.00000000000E+00 0.  1.
         21   -1    0    0  501  502 -0.00000000000E+00 -0.00000000000E+00 -0.18360742882E+03  0.18360742882E+03  0.00000000000E+00 0.  1.
         25    1    1    2    0    0 -0.45152713883E+03  0.14704410587E+03  0.39506229743E+03  0.63023641995E+03  0.12500000000E+03 0.  0.
         21    1    1    2  503  504  0.26981991457E+02  0.74364984632E+02  0.13755336468E+03  0.15867925805E+03  0.00000000000E+00 0.  1.
         21    1    1    2  504  502  0.42454514738E+03 -0.22140909051E+03  0.97804072925E+03  0.10889555710E+04  0.00000000000E+00 0.  1.
<mgrwt>
<rscale>  4 0.49090124E+03</rscale>
<asrwt>0</asrwt>
<pdfrwt beam="1">  1       21 0.26065596E+00 0.49090124E+03</pdfrwt>
<pdfrwt beam="2">  1       21 0.28247298E-01 0.49090124E+03</pdfrwt>
<totfact> 0.54684494E+02</totfact>
</mgrwt>
</event>
<event>
 5    0  0.1200001E+000  0.2683346E+03  0.7546771E-02  0.1102237E+00
         21   -1    0    0  503  501  0.00000000000E+00  0.00000000000E+00  0.11198140694E+04  0.11198140694E+04  0.00000000000E+00 0. -1.
         21   -1    0    0  504  502 -0.00000000000E+00 -0.00000000000E+00 -0.21681694438E+03  0.21681694438E+03  0.00000000000E+00 0. -1.
         25    1    1    2    0    0  0.21266207553E+03 -0.12070679864E+03  0.13807913475E+03  0.30738597408E+03  0.12500000000E+03 0.  0.
         21    1    1    2  503  502 -0.25272022429E+03 -0.60912313194E+02  0.19178849002E+02  0.26066386385E+03  0.00000000000E+00 0. -1.
         21    1    1    2  504  501  0.40058148760E+02  0.18161911183E+03  0.74573914124E+03  0.76858117583E+03  0.00000000000E+00 0. -1.
<mgrwt>
<rscale>  4 0.26833465E+03</rscale>
<asrwt>0</asrwt>
<pdfrwt beam="1">  1       21 0.17227908E+00 0.26833465E+03</pdfrwt>
<pdfrwt beam="2">  1       21 0.33356454E-01 0.26833465E+03</pdfrwt>
<totfact> 0.16669843E+03</totfact>
</mgrwt>
</event>
<event>
 5    0  0.1200001E+000  0.2548702E+03  0.7546771E-02  0.1110265E+00
         21   -1    0    0  503  501  0.00000000000E+00  0.00000000000E+00  0.21946089045E+04  0.21946089045E+04  0.00000000000E+00 0. -1.
         21   -1    0    0  504  502 -0.00000000000E+00 -0.00000000000E+00 -0.35720020626E+03  0.35720020626E+03  0.00000000000E+00 0. -1.
         25    1    1    2    0    0  0.20628009990E+03 -0.51589308421E+02 -0.11623401380E+03  0.27266881436E+03  0.12500000000E+03 0.  0.
         21    1    1    2  503  502 -0.24303513326E+03 -0.93676523450E+02 -0.53925735876E+02  0.26598750353E+03  0.00000000000E+00 0. -1.
         21    1    1    2  504  501  0.36755033364E+02  0.14526583187E+03  0.20075684479E+04  0.20131527929E+04  0.00000000000E+00 0. -1.
<mgrwt>
<rscale>  4 0.25487024E+03</rscale>
<asrwt>0</asrwt>
<pdfrwt beam="1">  1       21 0.33763213E+00 0.25487024E+03</pdfrwt>
<pdfrwt beam="2">  1       21 0.54953879E-01 0.25487024E+03</pdfrwt>
<totfact> 0.58664643E+01</totfact>
</mgrwt>
</event>
<event>
 5    0  0.1200001E+000  0.2712903E+03  0.7546771E-02  0.1100543E+00
         21   -1    0    0  503  501  0.00000000000E+00  0.00000000000E+00  0.41528978685E+03  0.41528978685E+03  0.00000000000E+00 0.  1.
         21   -1    0    0  504  502 -0.00000000000E+00 -0.00000000000E+00 -0.60977840756E+03  0.60977840756E+03  0.00000000000E+00 0.  1.
         25    1    1    2    0    0 -0.25594166012E+03  0.11994645430E+03 -0.47058965054E+03  0.56300346755E+03  0.12500000000E+03 0.  0.
         21    1    1    2  503  502  0.10217872962E+03 -0.13165737202E+03  0.26615687307E+02  0.16876774338E+03  0.00000000000E+00 0.  1.
         21    1    1    2  504  501  0.15376293049E+03  0.11710917717E+02  0.24948534252E+03  0.29329698348E+03  0.00000000000E+00 0.  1.
<mgrwt>
<rscale>  4 0.27129031E+03</rscale>
<asrwt>0</asrwt>
<pdfrwt beam="1">  1       21 0.63890736E-01 0.27129031E+03</pdfrwt>
<pdfrwt beam="2">  1       21 0.93812063E-01 0.27129031E+03</pdfrwt>
<totfact> 0.20308213E+03</totfact>
</mgrwt>
</event>
<event>
 5    0  0.1200001E+000  0.2741967E+03  0.7546771E-02  0.1098901E+00
         21   -1    0    0  503  501  0.00000000000E+00  0.00000000000E+00  0.40700833642E+03  0.40700833642E+03  0.00000000000E+00 0.  1.
         21   -1    0    0  501  502 -0.00000000000E+00 -0.00000000000E+00 -0.78521652574E+03  0.78521652574E+03  0.00000000000E+00 0.  1.
         25    1    1    2    0    0  0.23961280862E+03  0.31600913038E+02 -0.68904822817E+03  0.74082749443E+03  0.12500000000E+03 0.  0.
         21    1    1    2  503  504  0.26179572908E+02  0.97031325751E+00  0.11935642250E+03  0.12219765602E+03  0.00000000000E+00 0.  1.
         21    1    1    2  504  502 -0.26579238153E+03 -0.32571226296E+02  0.19148361635E+03  0.32919971171E+03  0.00000000000E+00 0.  1.
<mgrwt>
<rscale>  4 0.27419675E+03</rscale>
<asrwt>0</asrwt>
<pdfrwt beam="1">  1       21 0.62616668E-01 0.27419675E+03</pdfrwt>
<pdfrwt beam="2">  1       21 0.12080254E+00 0.27419675E+03</pdfrwt>
<totfact> 0.11457741E+03</totfact>
</mgrwt>
</event>
<event>
 5    0  0.1200001E+000  0.3346667E+03  0.7546771E-02  0.1069090E+00
         21   -1    0    0  503  501  0.00000000000E+00  0.00000000000E+00  0.16248014159E+04  0.16248014159E+04  0.00000000000E+00 0. -1.
         21   -1    0    0  504  502 -0.00000000000E+00 -0.00000000000E+00 -0.10752605916E+04  0.10752605916E+04  0.00000000000E+00 0. -1.
         25    1    1    2    0    0 -0.25046825714E+03  0.18438638865E+03 -0.10237191087E+04  0.10771993788E+04  0.12500000000E+03 0.  0.
         21    1    1    2  503  502  0.25960419942E+03 -0.13832207989E+03  0.87692314092E+03  0.92494407032E+03  0.00000000000E+00 0. -1.
         21    1    1    2  504  501 -0.91359422849E+01 -0.46064308766E+02  0.69633679214E+03  0.69791855833E+03  0.00000000000E+00 0. -1.
<mgrwt>
<rscale>  4 0.33466667E+03</rscale>
<asrwt>0</asrwt>
<pdfrwt beam="1">  1       21 0.24996945E+00 0.33466667E+03</pdfrwt>
<pdfrwt beam="2">  1       21 0.16542471E+00 0.33466667E+03</pdfrwt>
<totfact> 0.12564997E+01</totfact>
</mgrwt>
</event>
<event>
 5    0  0.1200001E+000  0.2369682E+03  0.7546771E-02  0.1121829E+00
         21   -1    0    0  502  501  0.00000000000E+00  0.00000000000E+00  0.35814302528E+03  0.35814302528E+03  0.00000000000E+00 0.  1.
         21   -1    0    0  504  502 -0.00000000000E+00 -0.00000000000E+00 -0.33078752495E+03  0.33078752495E+03  0.00000000000E+00 0.  1.
         25    1    1    2    0    0 -0.80895260818E+02  0.20352198957E+03 -0.21031048950E+03  0.32836069414E+03  0.12500000000E+03 0.  0.
         21    1    1    2  503  501  0.39803635076E+02 -0.19538585326E+03  0.24721230459E+03  0.31760649326E+03  0.00000000000E+00 0.  1.
         21    1    1    2  504  503  0.41091625741E+02 -0.81361363117E+01 -0.95463147691E+01  0.42963362832E+02  0.00000000000E+00 0. -1.
<mgrwt>
<rscale>  4 0.23696823E+03</rscale>
<asrwt>0</asrwt>
<pdfrwt beam="1">  1       21 0.55098927E-01 0.23696823E+03</pdfrwt>
<pdfrwt beam="2">  1       21 0.50890388E-01 0.23696823E+03</pdfrwt>
<totfact> 0.11097913E+04</totfact>
</mgrwt>
</event>
<event>
 5    0  0.1200001E+000  0.3205731E+03  0.7546771E-02  0.1075386E+00
         21   -1    0    0  503  501  0.00000000000E+00  0.00000000000E+00  0.70890349571E+03  0.70890349571E+03  0.00000000000E+00 0.  1.
         21   -1    0    0  501  502 -0.00000000000E+00 -0.00000000000E+00 -0.44089140655E+03  0.44089140655E+03  0.00000000000E+00 0. -1.
         25    1    1    2    0    0  0.27755533419E+03  0.25135134083E+03 -0.77690791584E+02  0.40233732013E+03  0.12500000000E+03 0.  0.
         21    1    1    2  503  504 -0.13934876384E+03 -0.34961226528E+02  0.44845112741E+03  0.47090209069E+03  0.00000000000E+00 0.  1.
         21    1    1    2  504  502 -0.13820657035E+03 -0.21639011430E+03 -0.10274824667E+03  0.27655549144E+03  0.00000000000E+00 0. -1.
<mgrwt>
<rscale>  4 0.32057312E+03</rscale>
<asrwt>0</asrwt>
<pdfrwt beam="1">  1       21 0.10906208E+00 0.32057312E+03</pdfrwt>
<pdfrwt beam="2">  1       21 0.67829447E-01 0.32057312E+03</pdfrwt>
<totfact> 0.12012112E+03</totfact>
</mgrwt>
</event>
<event>
 5    0  0.1200001E+000  0.2595677E+03  0.7546771E-02  0.1107403E+00
         21   -1    0    0  502  501  0.00000000000E+00  0.00000000000E+00  0.25453142806E+03  0.25453142806E+03  0.00000000000E+00 0.  1.
         21   -1    0    0  504  502 -0.00000000000E+00 -0.00000000000E+00 -0.34267897153E+03  0.34267897153E+03  0.00000000000E+00 0.  1.
         25    1    1    2    0    0  0.16805669881E+03 -0.16696418866E+03 -0.17867968038E+03  0.32198062441E+03  0.12500000000E+03 0.  0.
         21    1    1    2  503  501 -0.16941860032E+03  0.12095168800E+03  0.95318646403E+02  0.22894894041E+03  0.00000000000E+00 0.  1.
         21    1    1    2  504  503  0.13619015102E+01  0.46012500667E+02 -0.47865094894E+01  0.46280834764E+02  0.00000000000E+00 0.  1.
<mgrwt>
<rscale>  4 0.25956768E+03</rscale>
<asrwt>0</asrwt>
<pdfrwt beam="1">  1       21 0.39158681E-01 0.25956768E+03</pdfrwt>
<pdfrwt beam="2">  1       21 0.52719841E-01 0.25956768E+03</pdfrwt>
<totfact> 0.20695581E+04</totfact>
</mgrwt>
</event>
<event>
 5    0  0.1200001E+000  0.3149285E+03  0.7546771E-02  0.1078007E+00
         21   -1    0    0  503  501  0.00000000000E+00  0.00000000000E+00  0.16955603984E+04  0.16955603984E+04  0.00000000000E+00 0. -1.
         21   -1    0    0  504  502 -0.00000000000E+00 -0.00000000000E+00 -0.18827125246E+03  0.18827125246E+03  0.00000000000E+00 0. -1.
         25    1    1    2    0    0  0.12169102119E+03 -0.26092122146E+03 -0.27954658169E+02  0.31511117302E+03  0.12500000000E+03 0.  0.
         21    1    1    2  503  502 -0.14187103836E+03  0.26536077369E+03  0.14063305686E+04  0.14381618128E+04  0.00000000000E+00 0. -1.
         21    1    1    2  504  501  0.20180017172E+02 -0.44395522249E+01  0.12891323549E+03  0.13055866498E+03  0.00000000000E+00 0. -1.
<mgrwt>
<rscale>  4 0.31492851E+03</rscale>
<asrwt>0</asrwt>
<pdfrwt beam="1">  1       21 0.26085544E+00 0.31492851E+03</pdfrwt>
<pdfrwt beam="2">  1       21 0.28964809E-01 0.31492851E+03</pdfrwt>
<totfact> 0.57847230E+02</totfact>
</mgrwt>
</event>
<event>
 5    0  0.1200001E+000  0.2896045E+03  0.7546771E-02  0.1090556E+00
         21   -1    0    0  503  501  0.00000000000E+00  0.00000000000E+00  0.14853590174E+04  0.14853590174E+04  0.00000000000E+00 0.  1.
         21   -1    0    0  504  502 -0.00000000000E+00 -0.00000000000E+00 -0.13258708155E+03  0.13258708155E+03  0.00000000000E+00 0.  1.
         25    1    1    2    0    0 -0.13641280316E+03 -0.27843016852E+03  0.20848525407E+03  0.39398339149E+03  0.12500000000E+03 0.  0.
         21    1    1    2  503  502  0.27998633197E+02  0.21309723047E+03  0.29333237187E+03  0.36364575273E+03  0.00000000000E+00 0.  1.
         21    1    1    2  504  501  0.10841416996E+03  0.65332938052E+02  0.85095430988E+03  0.86031695470E+03  0.00000000000E+00 0.  1.
<mgrwt>
<rscale>  4 0.28960445E+03</rscale>
<asrwt>0</asrwt>
<pdfrwt beam="1">  1       21 0.22851676E+00 0.28960445E+03</pdfrwt>
<pdfrwt beam="2">  1       21 0.20398014E-01 0.28960445E+03</pdfrwt>
<totfact> 0.18191188E+03</totfact>
</mgrwt>
</event>
<event>
 5    0  0.1200001E+000  0.3679638E+03  0.7546771E-02  0.1055474E+00
         21   -1    0    0  503  501  0.00000000000E+00  0.00000000000E+00  0.15633285633E+03  0.15633285633E+03  0.00000000000E+00 0.  1.
         21   -1    0    0  501  502 -0.00000000000E+00 -0.00000000000E+00 -0.13560470715E+04  0.13560470715E+04  0.00000000000E+00 0. -1.
         25    1    1    2    0    0 -0.10284167119E+03  0.33929058919E+03 -0.10408752063E+04  0.11066800388E+04  0.12500000000E+03 0.  0.
         21    1    1    2  503  504 -0.11837833860E+01 -0.34831952282E+02  0.17290883618E+02  0.38905538155E+02  0.00000000000E+00 0.  1.
         21    1    1    2  504  502  0.10402545458E+03 -0.30445863690E+03 -0.17612989250E+03  0.36679435085E+03  0.00000000000E+00 0.  1.
<mgrwt>
<rscale>  4 0.36796379E+03</rscale>
<asrwt>0</asrwt>
<pdfrwt beam="1">  1       21 0.24051209E-01 0.36796379E+03</pdfrwt>
<pdfrwt beam="2">  1       21 0.20862262E+00 0.36796379E+03</pdfrwt>
<totfact> 0.16883696E+03</totfact>
</mgrwt>
</event>
<event>
 5    0  0.1200001E+000  0.2346255E+03  0.7546771E-02  0.1123426E+00
         21   -1    0    0  503  501  0.00000000000E+00  0.00000000000E+00  0.10120004069E+04  0.10120004069E+04  0.00000000000E+00 0.  1.
         21   -1    0    0  504  502 -0.00000000000E+00 -0.00000000000E+00 -0.86506192370E+02  0.86506192370E+02  0.00000000000E+00 0.  1.
         25    1    1    2    0    0  0.20934080356E+03 -0.42454712942E+02  0.16358852130E+03  0.29666846645E+03  0.12500000000E+03 0.  0.
         21    1    1    2  503  502 -0.16060777134E+03  0.65112747600E+02  0.39952136954E+03  0.43549035677E+03  0.00000000000E+00 0.  1.
         21    1    1    2  504  501 -0.48733032221E+02 -0.22658034658E+02  0.36238432369E+03  0.36634777606E+03  0.00000000000E+00 0.  1.
<mgrwt>
<rscale>  4 0.23462550E+03</rscale>
<asrwt>0</asrwt>
<pdfrwt beam="1">  1       21 0.15569236E+00 0.23462550E+03</pdfrwt>
<pdfrwt beam="2">  1       21 0.13308646E-01 0.23462550E+03</pdfrwt>
<totfact> 0.12820332E+04</totfact>
</mgrwt>
</event>
<event>
 5    0  0.1200001E+000  0.5588791E+03  0.7546771E-02  0.9994594E-01
         21   -1    0    0  503  501  0.00000000000E+00  0.00000000000E+00  0.18996060831E+04  0.18996060831E+04  0.00000000000E+00 0.  1.
         21   -1    0    0  504  502 -0.00000000000E+00 -0.00000000000E+00 -0.30010010522E+03  0.30010010522E+03  0.00000000000E+00 0.  1.
         25    1    1    2    0    0  0.18745261909E+03  0.60276059209E+03  0.29580913484E+03  0.70822797180E+03  0.12500000000E+03 0.  0.
         21    1    1    2  503  502 -0.25968550144E+03 -0.30997890264E+03  0.90795032711E+03  0.99393021699E+03  0.00000000000E+00 0.  1.
         21    1    1    2  504  501  0.72232882351E+02 -0.29278168944E+03  0.39574651590E+03  0.49754799950E+03  0.00000000000E+00 0.  1.
<mgrwt>
<rscale>  4 0.55887911E+03</rscale>
<asrwt>0</asrwt>
<pdfrwt beam="1">  1       21 0.29224708E+00 0.55887911E+03</pdfrwt>
<pdfrwt beam="2">  1       21 0.46169248E-01 0.55887911E+03</pdfrwt>
<totfact> 0.12470670E+02</totfact>
</mgrwt>
</event>
<event>
 5    0  0.1200001E+000  0.2386689E+03  0.7546771E-02  0.1120683E+00
         21   -1    0    0  503  501  0.00000000000E+00  0.00000000000E+00  0.21073436901E+03  0.21073436901E+03  0.00000000000E+00 0.  1.
         21   -1    0    0  501  502 -0.00000000000E+00 -0.00000000000E+00 -0.36196854058E+03  0.36196854058E+03  0.00000000000E+00 0.  1.
         25    1    1    2    0    0  0.16297888392E+03  0.14399670579E+03 -0.13543145695E+03  0.28506814521E+03  0.12500000000E+03 0.  0.
         21    1    1    2  503  504 -0.37773613895E+02  0.19489792227E+01  0.68049336655E+02  0.77854714988E+02  0.00000000000E+00 0.  1.
         21    1    1    2  504  502 -0.12520527002E+03 -0.14594568502E+03 -0.83852051278E+02  0.20978004939E+03  0.00000000000E+00 0.  1.
<mgrwt>
<rscale>  4 0.23866890E+03</rscale>
<asrwt>0</asrwt>
<pdfrwt beam="1">  1       21 0.32420673E-01 0.23866890E+03</pdfrwt>
<pdfrwt beam="2">  1       21 0.55687467E-01 0.23866890E+03</pdfrwt>
<totfact> 0.27148489E+04</totfact>
</mgrwt>
</event>
<event>
 5    0  0.1200001E+000  0.3122411E+03  0.7546771E-02  0.1079277E+00
         21   -1    0    0  503  501  0.00000000000E+00  0.00000000000E+00  0.99500510163E+02  0.99500510163E+02  0.00000000000E+00 0. -1.
         21   -1    0    0  504  502 -0.00000000000E+00 -0.00000000000E+00 -0.17339983579E+04  0.17339983579E+04  0.00000000000E+00 0. -1.
         25    1    1    2    0    0  0.16868251350E+03 -0.24268415834E+03 -0.42630728564E+03  0.53358438213E+03  0.12500000000E+03 0.  0.
         21    1    1    2  503  502 -0.11933903030E+03  0.25802486524E+03 -0.12149810085E+04  0.12477970533E+04  0.00000000000E+00 0. -1.
         21    1    1    2  504  501 -0.49343483199E+02 -0.15340706903E+02  0.67904463857E+01  0.52117432636E+02  0.00000000000E+00 0. -1.
<mgrwt>
<rscale>  4 0.31224106E+03</rscale>
<asrwt>0</asrwt>
<pdfrwt beam="1">  1       21 0.15307772E-01 0.31224106E+03</pdfrwt>
<pdfrwt beam="2">  1       21 0.26676896E+00 0.31224106E+03</pdfrwt>
<totfact> 0.17948157E+03</totfact>
</mgrwt>
</event>
<event>
 5    0  0.1200001E+000  0.3235507E+03  0.7546771E-02  0.1074027E+00
         21   -1    0    0  503  501  0.00000000000E+00  0.00000000000E+00  0.31448196330E+03  0.31448196330E+03  0.00000000000E+00 0. -1.
         21   -1    0    0  501  502 -0.00000000000E+00 -0.00000000000E+00 -0.49371682266E+03  0.49371682266E+03  0.00000000000E+00 0. -1.
         25    1    1    2    0    0  0.28987370432E+03  0.13230172043E+03 -0.51607833153E+01  0.34231877449E+03  0.12500000000E+03 0.  0.
         21    1    1    2  503  504 -0.78230964326E+01 -0.58617912513E+02  0.65720331270E+02  0.88410533578E+02  0.00000000000E+00 0. -1.
         21    1    1    2  504  502 -0.28205060789E+03 -0.73683807917E+02 -0.23979440731E+03  0.37746947789E+03  0.00000000000E+00 0. -1.
<mgrwt>
<rscale>  4 0.32355066E+03</rscale>
<asrwt>0</asrwt>
<pdfrwt beam="1">  1       21 0.48381841E-01 0.32355066E+03</pdfrwt>
<pdfrwt beam="2">  1       21 0.75956434E-01 0.32355066E+03</pdfrwt>
<totfact> 0.58359126E+03</totfact>
</mgrwt>
</event>
<event>
 5    0  0.1200001E+000  0.3237587E+03  0.7546771E-02  0.1073932E+00
         21   -1    0    0  502  501  0.00000000000E+00  0.00000000000E+00  0.13040382701E+03  0.13040382701E+03  0.00000000000E+00 0. -1.
         21   -1    0    0  504  502 -0.00000000000E+00 -0.00000000000E+00 -0.10789775364E+04  0.10789775364E+04  0.00000000000E+00 0. -1.
         25    1    1    2    0    0 -0.29025892310E+03 -0.88861402256E+02 -0.77609090843E+03  0.84266760315E+03  0.12500000000E+03 0.  0.
         21    1    1    2  503  501  0.26479557909E+03  0.11199577288E+03 -0.16506114699E+03  0.33151913081E+03  0.00000000000E+00 0. -1.
         21    1    1    2  504  503  0.25463344013E+02 -0.23134370622E+02 -0.74216539251E+01  0.35194629411E+02  0.00000000000E+00 0. -1.
<mgrwt>
<rscale>  4 0.32375873E+03</rscale>
<asrwt>0</asrwt>
<pdfrwt beam="1">  1       21 0.20062128E-01 0.32375873E+03</pdfrwt>
<pdfrwt beam="2">  1       21 0.16599654E+00 0.32375873E+03</pdfrwt>
<totfact> 0.47850227E+03</totfact>
</mgrwt>
</event>
<event>
 5    0  0.1200001E+000  0.2409334E+03  0.7546771E-02  0.1119173E+00
         21   -1    0    0  503  501  0.00000000000E+00  0.00000000000E+00  0.13668602176E+04  0.13668602176E+04  0.00000000000E+00 0. -1.
         21   -1    0    0  501  502 -0.00000000000E+00 -0.00000000000E+00 -0.65166329721E+02  0.65166329721E+02  0.00000000000E+00 0. -1.
         25    1    1    2    0    0 -0.11930444519E+03 -0.16817083686E+03  0.76613878151E+03  0.80318653720E+03  0.12500000000E+03 0.  0.
         21    1    1    2  503  504 -0.18431787565E+02  0.14704469819E+02  0.35193788716E+03  0.35272684707E+03  0.00000000000E+00 0. -1.
         21    1    1    2  504  502  0.13773623276E+03  0.15346636704E+03  0.18361721926E+03  0.27611316310E+03  0.00000000000E+00 0. -1.
<mgrwt>
<rscale>  4 0.24093342E+03</rscale>
<asrwt>0</asrwt>
<pdfrwt beam="1">  1       21 0.21028617E+00 0.24093342E+03</pdfrwt>
<pdfrwt beam="2">  1       21 0.10025590E-01 0.24093342E+03</pdfrwt>
<totfact> 0.89802714E+03</totfact>
</mgrwt>
</event>
<event>
 5    0  0.1200001E+000  0.2608015E+03  0.7546771E-02  0.1106663E+00
         21   -1    0    0  503  501  0.00000000000E+00  0.00000000000E+00  0.35394863795E+03  0.35394863795E+03  0.00000000000E+00 0. -1.
         21   -1    0    0  504  502 -0.00000000000E+00 -0.00000000000E+00 -0.32468279517E+03  0.32468279517E+03  0.00000000000E+00 0. -1.
         25    1    1    2    0    0 -0.18814887288E+03  0.11635525297E+03 -0.17924305201E+03  0.31095275357E+03  0.12500000000E+03 0.  0.
         21    1    1    2  503  502  0.20341660971E+03 -0.15660244634E+03  0.15853527831E+03  0.30172185498E+03  0.00000000000E+00 0. -1.
         21    1    1    2  504  501 -0.15267736832E+02  0.40247193375E+02  0.49973616485E+02  0.65956824568E+02  0.00000000000E+00 0. -1.
<mgrwt>
<rscale>  4 0.26080151E+03</rscale>
<asrwt>0</asrwt>
<pdfrwt beam="1">  1       21 0.54453637E-01 0.26080151E+03</pdfrwt>
<pdfrwt beam="2">  1       21 0.49951199E-01 0.26080151E+03</pdfrwt>
<totfact> 0.11683438E+04</totfact>
</mgrwt>
</event>
<event>
 5    0  0.1200001E+000  0.2707794E+03  0.7546771E-02  0.1100834E+00
         21   -1    0    0  503  501  0.00000000000E+00  0.00000000000E+00  0.71777540993E+02  0.71777540993E+02  0.00000000000E+00 0. -1.
         21   -1    0    0  504  502 -0.00000000000E+00 -0.00000000000E+00 -0.12447552834E+04  0.12447552834E+04  0.00000000000E+00 0. -1.
         25    1    1    2    0    0 -0.23840916206E+03 -0.84768935991E+01 -0.72501074805E+03  0.77341862602E+03  0.12500000000E+03 0.  0.
         21    1    1    2  503  502  0.24239527503E+03 -0.19155975428E+02 -0.45357428010E+03  0.51463778361E+03  0.00000000000E+00 0. -1.
         21    1    1    2  504  501 -0.39861129683E+01  0.27632869027E+02  0.56072857054E+01  0.28476414806E+02  0.00000000000E+00 0.  1.
<mgrwt>
<rscale>  4 0.27077943E+03</rscale>
<asrwt>0</asrwt>
<pdfrwt beam="1">  1       21 0.11042698E-01 0.27077943E+03</pdfrwt>
<pdfrwt beam="2">  1       21 0.19150082E+00 0.27077943E+03</pdfrwt>
<totfact> 0.98153587E+03</totfact>
</mgrwt>
</event>
<event>
 5    0  0.1200001E+000  0.2545094E+03  0.7546771E-02  0.1110488E+00
         21   -1    0    0  503  501  0.00000000000E+00  0.00000000000E+00  0.12520115569E+03  0.12520115569E+03  0.00000000000E+00 0.  1.
         21   -1    0    0  501  502 -0.00000000000E+00 -0.00000000000E+00 -0.22471681981E+04  0.22471681981E+04  0.00000000000E+00 0.  1.
         25    1    1    2    0    0 -0.10472734846E+03  0.21693414659E+03 -0.17882211745E+04  0.18086979324E+04  0.12500000000E+03 0.  0.
         21    1    1    2  503  504  0.70709528214E+02 -0.20902560245E+03  0.73580202669E+01  0.22078423929E+03  0.00000000000E+00 0.  1.
         21    1    1    2  504  502  0.34017820249E+02 -0.79085441417E+01 -0.34110388817E+03  0.34288718216E+03  0.00000000000E+00 0.  1.
<mgrwt>
<rscale>  4 0.25450936E+03</rscale>
<asrwt>0</asrwt>
<pdfrwt beam="1">  1       21 0.19261718E-01 0.25450936E+03</pdfrwt>
<pdfrwt beam="2">  1       21 0.34571816E+00 0.25450936E+03</pdfrwt>
<totfact> 0.42216172E+02</totfact>
</mgrwt>
</event>
<event>
 5    0  0.1200001E+000  0.3301529E+03  0.7546771E-02  0.1071069E+00
         21   -1    0    0  502  501  0.00000000000E+00  0.00000000000E+00  0.22513699087E+04  0.22513699087E+04  0.00000000000E+00 0. -1.
         21   -1    0    0  503  502 -0.00000000000E+00 -0.00000000000E+00 -0.50096756193E+02  0.50096756193E+02  0.00000000000E+00 0.  1.
         25    1    1    2    0    0  0.43729599961E+02 -0.30242963477E+03  0.84157972860E+03  0.90402289876E+03  0.12500000000E+03 0.  0.
         21    1    1    2  503  504 -0.40621293825E+02  0.32776684018E+02  0.25785606447E+03  0.26308582347E+03  0.00000000000E+00 0. -1.
         21    1    1    2  504  501 -0.31083061358E+01  0.26965295075E+03  0.11018373595E+04  0.11343579427E+04  0.00000000000E+00 0. -1.
<mgrwt>
<rscale>  4 0.33015294E+03</rscale>
<asrwt>0</asrwt>
<pdfrwt beam="1">  1       21 0.34636452E+00 0.33015294E+03</pdfrwt>
<pdfrwt beam="2">  1       21 0.77071950E-02 0.33015294E+03</pdfrwt>
<totfact> 0.20449896E+03</totfact>
</mgrwt>
</event>
<event>
 5    0  0.1200001E+000  0.4285773E+03  0.7546771E-02  0.1034310E+00
         21   -1    0    0  503  501  0.00000000000E+00  0.00000000000E+00  0.49227531906E+03  0.49227531906E+03  0.00000000000E+00 0. -1.
         21   -1    0    0  504  502 -0.00000000000E+00 -0.00000000000E+00 -0.38562004168E+03  0.38562004168E+03  0.00000000000E+00 0. -1.
         25    1    1    2    0    0  0.42316780364E+01 -0.39369408438E+03  0.21510885153E+02  0.41364315219E+03  0.12500000000E+03 0.  0.
         21    1    1    2  503  502 -0.99181417017E+01  0.42414883781E+03  0.87456362253E+02  0.43318497371E+03  0.00000000000E+00 0. -1.
         21    1    1    2  504  501  0.56864636653E+01 -0.30454753430E+02 -0.23119700207E+01  0.31067234844E+02  0.00000000000E+00 0.  1.
<mgrwt>
<rscale>  4 0.42857729E+03</rscale>
<asrwt>0</asrwt>
<pdfrwt beam="1">  1       21 0.75734664E-01 0.42857729E+03</pdfrwt>
<pdfrwt beam="2">  1       21 0.59326160E-01 0.42857729E+03</pdfrwt>
<totfact> 0.36375151E+03</totfact>
</mgrwt>
</event>
<event>
 5    0  0.1200001E+000  0.2901133E+03  0.7546771E-02  0.1090290E+00
         21   -1    0    0  503  501  0.00000000000E+00  0.00000000000E+00  0.25525576023E+03  0.25525576023E+03  0.00000000000E+00 0. -1.
         21   -1    0    0  504  502 -0.00000000000E+00 -0.00000000000E+00 -0.79627457478E+03  0.79627457478E+03  0.00000000000E+00 0.  1.
         25    1    1    2    0    0 -0.84888766933E+02  0.24505218006E+03 -0.66600213992E+03  0.72556221241E+03  0.12500000000E+03 0.  0.
         21    1    1    2  503  502  0.96447352249E+02 -0.26233898483E+03  0.12195443842E+03  0.30495363544E+03  0.00000000000E+00 0. -1.
         21    1    1    2  504  501 -0.11558585316E+02  0.17286804775E+02  0.30288869513E+01  0.21014487146E+02  0.00000000000E+00 0.  1.
<mgrwt>
<rscale>  4 0.29011328E+03</rscale>
<asrwt>0</asrwt>
<pdfrwt beam="1">  1       21 0.39270118E-01 0.29011328E+03</pdfrwt>
<pdfrwt beam="2">  1       21 0.12250378E+00 0.29011328E+03</pdfrwt>
<totfact> 0.29225225E+03</totfact>
</mgrwt>
</event>
<event>
 5    0  0.1200001E+000  0.2956579E+03  0.7546771E-02  0.1087432E+00
         21   -1    0    0  503  501  0.00000000000E+00  0.00000000000E+00  0.81897294264E+03  0.81897294264E+03  0.00000000000E+00 0. -1.
         21   -1    0    0  501  502 -0.00000000000E+00 -0.00000000000E+00 -0.20021041321E+03  0.20021041321E+03  0.00000000000E+00 0. -1.
         25    1    1    2    0    0  0.96648410380E+02  0.24365183512E+03 -0.28021177459E+02  0.29174872472E+03  0.12500000000E+03 0.  0.
         21    1    1    2  503  504  0.30254926378E+02  0.22471626060E+02  0.85142631106E+02  0.93110698523E+02  0.00000000000E+00 0. -1.
         21    1    1    2  504  502 -0.12690333676E+03 -0.26612346118E+03  0.56164107579E+03  0.63432393261E+03  0.00000000000E+00 0. -1.
<mgrwt>
<rscale>  4 0.29565786E+03</rscale>
<asrwt>0</asrwt>
<pdfrwt beam="1">  1       21 0.12599584E+00 0.29565786E+03</pdfrwt>
<pdfrwt beam="2">  1       21 0.30801603E-01 0.29565786E+03</pdfrwt>
<totfact> 0.44138676E+03</totfact>
</mgrwt>
</event>
<event>
 5    0  0.1200001E+000  0.2433890E+03  0.7546771E-02  0.1117556E+00
         21   -1    0    0  503  501  0.00000000000E+00  0.00000000000E+00  0.74275202203E+03  0.74275202203E+03  0.00000000000E+00 0.  1.
         21   -1    0    0  504  502 -0.00000000000E+00 -0.00000000000E+00 -0.21757933624E+03  0.21757933624E+03  0.00000000000E+00 0.  1.
         25    1    1    2    0    0 -0.11505037095E+03  0.17079491821E+03 -0.10531178296E+03  0.26291265388E+03  0.12500000000E+03 0.  0.
         21    1    1    2  503  502  0.17252986883E+03 -0.15998988828E+03  0.54726122951E+03  0.59569973419E+03  0.00000000000E+00 0.  1.
         21    1    1    2  504  501 -0.57479497886E+02 -0.10805029936E+02  0.83223239234E+02  0.10171897020E+03  0.00000000000E+00 0.  1.
<mgrwt>
<rscale>  4 0.24338896E+03</rscale>
<asrwt>0</asrwt>
<pdfrwt beam="1">  1       21 0.11426954E+00 0.24338896E+03</pdfrwt>
<pdfrwt beam="2">  1       21 0.33473744E-01 0.24338896E+03</pdfrwt>
<totfact> 0.49305986E+03</totfact>
</mgrwt>
</event>
<event>
 5    0  0.1200001E+000  0.4118453E+03  0.7546771E-02  0.1039754E+00
         21   -1    0    0  503  501  0.00000000000E+00  0.00000000000E+00  0.49149135209E+03  0.49149135209E+03  0.00000000000E+00 0. -1.
         21   -1    0    0  504  502 -0.00000000000E+00 -0.00000000000E+00 -0.44333081597E+03  0.44333081597E+03  0.00000000000E+00 0. -1.
         25    1    1    2    0    0  0.15981029718E+03 -0.35840236968E+03 -0.20003056615E+03  0.45785239660E+03  0.12500000000E+03 0.  0.
         21    1    1    2  503  502 -0.17002482130E+03  0.32648794527E+03  0.20195404709E+03  0.41986694965E+03  0.00000000000E+00 0. -1.
         21    1    1    2  504  501  0.10214524117E+02  0.31914424406E+02  0.46237055170E+02  0.57102821812E+02  0.00000000000E+00 0.  1.
<mgrwt>
<rscale>  4 0.41184535E+03</rscale>
<asrwt>0</asrwt>
<pdfrwt beam="1">  1       21 0.75614054E-01 0.41184535E+03</pdfrwt>
<pdfrwt beam="2">  1       21 0.68204741E-01 0.41184535E+03</pdfrwt>
<totfact> 0.26990826E+03</totfact>
</mgrwt>
</event>
<event>
 5    0  0.1200001E+000  0.2404664E+03  0.7546771E-02  0.1119483E+00
         21   -1    0    0  502  501  0.00000000000E+00  0.00000000000E+00  0.90752908683E+03  0.90752908683E+03  0.00000000000E+00 0. -1.
         21   -1    0    0  503  502 -0.00000000000E+00 -0.00000000000E+00 -0.24091541385E+03  0.24091541385E+03  0.00000000000E+00 0.  1.
         25    1    1    2    0    0 -0.14832430212E+03  0.14049599755E+03 -0.15666588311E+03  0.28619647597E+03  0.12500000000E+03 0.  0.
         21    1    1    2  503  504  0.99254840265E+01  0.31266486464E+02  0.69438065269E+02  0.76796831427E+02  0.00000000000E+00 0.  1.
         21    1    1    2  504  501  0.13839881810E+03 -0.17176248401E+03  0.75384149082E+03  0.78545119329E+03  0.00000000000E+00 0. -1.
<mgrwt>
<rscale>  4 0.24046641E+03</rscale>
<asrwt>0</asrwt>
<pdfrwt beam="1">  1       21 0.13961986E+00 0.24046641E+03</pdfrwt>
<pdfrwt beam="2">  1       21 0.37063910E-01 0.24046641E+03</pdfrwt>
<totfact> 0.24300057E+03</totfact>
</mgrwt>
</event>
<event>
 5    0  0.1200001E+000  0.3016355E+03  0.7546771E-02  0.1084426E+00
         21   -1    0    0  503  501  0.00000000000E+00  0.00000000000E+00  0.18421849892E+04  0.18421849892E+04  0.00000000000E+00 0.  1.
         21   -1    0    0  501  502 -0.00000000000E+00 -0.00000000000E+00 -0.16636200681E+03  0.16636200681E+03  0.00000000000E+00 0.  1.
         25    1    1    2    0    0 -0.11986070772E+03 -0.23137483126E+03  0.61420955252E+02  0.29546308660E+03  0.12500000000E+03 0.  0.
         21    1    1    2  503  504  0.65699985163E+02 -0.97890933429E+02  0.10561042317E+04  0.10626642325E+04  0.00000000000E+00 0.  1.
         21    1    1    2  504  502  0.54160722558E+02  0.32926576469E+03  0.55829779545E+03  0.65041967688E+03  0.00000000000E+00 0.  1.
<mgrwt>
<rscale>  4 0.30163554E+03</rscale>
<asrwt>0</asrwt>
<pdfrwt beam="1">  1       21 0.28341306E+00 0.30163554E+03</pdfrwt>
<pdfrwt beam="2">  1       21 0.25594156E-01 0.30163554E+03</pdfrwt>
<totfact> 0.54678804E+02</totfact>
</mgrwt>
</event>
<event>
 5    0  0.1200001E+000  0.3602303E+03  0.7546771E-02  0.1058493E+00
         21   -1    0    0  503  501  0.00000000000E+00  0.00000000000E+00  0.68336190696E+03  0.68336190696E+03  0.00000000000E+00 0. -1.
         21   -1    0    0  504  502 -0.00000000000E+00 -0.00000000000E+00 -0.12041087583E+04  0.12041087583E+04  0.00000000000E+00 0.  1.
         25    1    1    2    0    0 -0.17938590048E+03 -0.29121651070E+03 -0.88453340119E+03  0.95656191395E+03  0.12500000000E+03 0.  0.
         21    1    1    2  503  502  0.24476896775E+03  0.22874286935E+03 -0.17955101242E+03  0.38009697962E+03  0.00000000000E+00 0.  1.
         21    1    1    2  504  501 -0.65383067270E+02  0.62473641354E+02  0.54333756223E+03  0.55081177173E+03  0.00000000000E+00 0. -1.
<mgrwt>
<rscale>  4 0.36023029E+03</rscale>
<asrwt>0</asrwt>
<pdfrwt beam="1">  1       21 0.10513260E+00 0.36023029E+03</pdfrwt>
<pdfrwt beam="2">  1       21 0.18524750E+00 0.36023029E+03</pdfrwt>
<totfact> 0.10326269E+02</totfact>
</mgrwt>
</event>
<event>
 5    0  0.1200001E+000  0.2211784E+03  0.7546771E-02  0.1133008E+00
         21   -1    0    0  503  501  0.00000000000E+00  0.00000000000E+00  0.18985424085E+04  0.18985424085E+04  0.00000000000E+00 0.  1.
         21   -1    0    0  504  502 -0.00000000000E+00 -0.00000000000E+00 -0.20565659710E+03  0.20565659710E+03  0.00000000000E+00 0.  1.
         25    1    1    2    0    0 -0.22478774753E+03  0.26198503367E+01 -0.49671130522E+02  0.26197064008E+03  0.12500000000E+03 0.  0.
         21    1    1    2  503  502  0.11637485119E+03 -0.10333534714E+03  0.83560563330E+02  0.17664559916E+03  0.00000000000E+00 0.  1.
         21    1    1    2  504  501  0.10841289634E+03  0.10071549681E+03  0.16589963786E+04  0.16655827663E+04  0.00000000000E+00 0.  1.
<mgrwt>
<rscale>  4 0.22117844E+03</rscale>
<asrwt>0</asrwt>
<pdfrwt beam="1">  1       21 0.29208344E+00 0.22117844E+03</pdfrwt>
<pdfrwt beam="2">  1       21 0.31639478E-01 0.22117844E+03</pdfrwt>
<totfact> 0.35005242E+02</totfact>
</mgrwt>
</event>
<event>
 5    0  0.1200001E+000  0.3492302E+03  0.7546771E-02  0.1062931E+00
         21   -1    0    0  503  501  0.00000000000E+00  0.00000000000E+00  0.10569915748E+04  0.10569915748E+04  0.00000000000E+00 0. -1.
         21   -1    0    0  504  502 -0.00000000000E+00 -0.00000000000E+00 -0.45299352472E+03  0.45299352472E+03  0.00000000000E+00 0.  1.
         25    1    1    2    0    0  0.10004293817E+03  0.34153677838E+03 -0.30612018775E+03  0.48578856493E+03  0.12500000000E+03 0.  0.
         21    1    1    2  503  502  0.27303323953E+02 -0.23845592471E+03  0.26040073862E+03  0.35414014769E+03  0.00000000000E+00 0. -1.
         21    1    1    2  504  501 -0.12734626212E+03 -0.10308085368E+03  0.64971749925E+03  0.67005638695E+03  0.00000000000E+00 0. -1.
<mgrwt>
<rscale>  4 0.34923017E+03</rscale>
<asrwt>0</asrwt>
<pdfrwt beam="1">  1       21 0.16261409E+00 0.34923017E+03</pdfrwt>
<pdfrwt beam="2">  1       21 0.69691312E-01 0.34923017E+03</pdfrwt>
<totfact> 0.39361674E+02</totfact>
</mgrwt>
</event>
<event>
 5    0  0.1200001E+000  0.5767513E+03  0.7546771E-02  0.9954849E-01
         21   -1    0    0  502  501  0.00000000000E+00  0.00000000000E+00  0.58946457879E+03  0.58946457879E+03  0.00000000000E+00 0.  1.
         21   -1    0    0  504  502 -0.00000000000E+00 -0.00000000000E+00 -0.61246594406E+03  0.61246594406E+03  0.00000000000E+00 0.  1.
         25    1    1    2    0    0 -0.52107650677E+03 -0.24452712783E+03 -0.13305336137E+03  0.60385630668E+03  0.12500000000E+03 0.  0.
         21    1    1    2  503  501  0.50360284162E+03  0.23450584853E+03  0.12912354636E+03  0.57033473093E+03  0.00000000000E+00 0.  1.
         21    1    1    2  504  503  0.17473665146E+02  0.10021279298E+02 -0.19071550254E+02  0.27739485242E+02  0.00000000000E+00 0. -1.
<mgrwt>
<rscale>  4 0.57675128E+03</rscale>
<asrwt>0</asrwt>
<pdfrwt beam="1">  1       21 0.90686858E-01 0.57675128E+03</pdfrwt>
<pdfrwt beam="2">  1       21 0.94225530E-01 0.57675128E+03</pdfrwt>
<totfact> 0.78743465E+02</totfact>
</mgrwt>
</event>
<event>
 5    0  0.1200001E+000  0.2446343E+03  0.7546771E-02  0.1116744E+00
         21   -1    0    0  502  501  0.00000000000E+00  0.00000000000E+00  0.18930327928E+04  0.18930327928E+04  0.00000000000E+00 0. -1.
         21   -1    0    0  503  502 -0.00000000000E+00 -0.00000000000E+00 -0.11590251997E+03  0.11590251997E+03  0.00000000000E+00 0. -1.
         25    1    1    2    0    0  0.19280017005E+03 -0.10583651031E+03  0.89897918498E+02  0.26847701621E+03  0.12500000000E+03 0.  0.
         21    1    1    2  503  504 -0.20593570898E+03 -0.15335485302E+01  0.41158234348E+03  0.46023026136E+03  0.00000000000E+00 0. -1.
         21    1    1    2  504  501  0.13135538934E+02  0.10737005884E+03  0.12756500108E+04  0.12802280352E+04  0.00000000000E+00 0. -1.
<mgrwt>
<rscale>  4 0.24463432E+03</rscale>
<asrwt>0</asrwt>
<pdfrwt beam="1">  1       21 0.29123579E+00 0.24463432E+03</pdfrwt>
<pdfrwt beam="2">  1       21 0.17831158E-01 0.24463432E+03</pdfrwt>
<totfact> 0.10299609E+03</totfact>
</mgrwt>
</event>
<event>
 5    0  0.1200001E+000  0.2529760E+03  0.7546771E-02  0.1111438E+00
         21   -1    0    0  503  501  0.00000000000E+00  0.00000000000E+00  0.11066834167E+03  0.11066834167E+03  0.00000000000E+00 0.  1.
         21   -1    0    0  504  502 -0.00000000000E+00 -0.00000000000E+00 -0.75575973356E+03  0.75575973356E+03  0.00000000000E+00 0.  1.
         25    1    1    2    0    0  0.21287900194E+03  0.31497083621E+02 -0.48159628785E+03  0.54209733463E+03  0.12500000000E+03 0.  0.
         21    1    1    2  503  502 -0.21975306224E+03 -0.77678334908E+02 -0.14202941617E+03  0.27294264441E+03  0.00000000000E+00 0.  1.
         21    1    1    2  504  501  0.68740603027E+01  0.46181251287E+02 -0.21465687867E+02  0.51388096200E+02  0.00000000000E+00 0. -1.
<mgrwt>
<rscale>  4 0.25297604E+03</rscale>
<asrwt>0</asrwt>
<pdfrwt beam="1">  1       21 0.17025899E-01 0.25297604E+03</pdfrwt>
<pdfrwt beam="2">  1       21 0.11627073E+00 0.25297604E+03</pdfrwt>
<totfact> 0.17136603E+04</totfact>
</mgrwt>
</event>
<event>
 5    0  0.1200001E+000  0.2305488E+03  0.7546771E-02  0.1126254E+00
         21   -1    0    0  502  501  0.00000000000E+00  0.00000000000E+00  0.50797842226E+03  0.50797842226E+03  0.00000000000E+00 0.  1.
         21   -1    0    0  503  502 -0.00000000000E+00 -0.00000000000E+00 -0.21937918521E+03  0.21937918521E+03  0.00000000000E+00 0.  1.
         25    1    1    2    0    0 -0.17688475891E+03  0.11806289824E+03 -0.70049303785E+02  0.25643512013E+03  0.12500000000E+03 0.  0.
         21    1    1    2  503  504  0.61391531408E+01 -0.13221864929E+03  0.13345328185E+03  0.18796073754E+03  0.00000000000E+00 0.  1.
         21    1    1    2  504  501  0.17074560576E+03  0.14155751048E+02  0.22519525899E+03  0.28296174980E+03  0.00000000000E+00 0.  1.
<mgrwt>
<rscale>  4 0.23054875E+03</rscale>
<asrwt>0</asrwt>
<pdfrwt beam="1">  1       21 0.78150526E-01 0.23054875E+03</pdfrwt>
<pdfrwt beam="2">  1       21 0.33750644E-01 0.23054875E+03</pdfrwt>
<totfact> 0.11969308E+04</totfact>
</mgrwt>
</event>
<event>
 5    0  0.1200001E+000  0.2582885E+03  0.7546771E-02  0.1108176E+00
         21   -1    0    0  503  501  0.00000000000E+00  0.00000000000E+00  0.27056203085E+03  0.27056203085E+03  0.00000000000E+00 0.  1.
         21   -1    0    0  501  502 -0.00000000000E+00 -0.00000000000E+00 -0.70969945796E+03  0.70969945796E+03  0.00000000000E+00 0.  1.
         25    1    1    2    0    0  0.15651838287E+03  0.12485320346E+03  0.80180349221E+02  0.24927939143E+03  0.12500000000E+03 0.  0.
         21    1    1    2  503  504  0.10015957512E+02  0.32953992459E+02  0.81160952786E+02  0.88166803736E+02  0.00000000000E+00 0.  1.
         21    1    1    2  504  502 -0.16653434038E+03 -0.15780719592E+03 -0.60047872912E+03  0.64281529364E+03  0.00000000000E+00 0.  1.
<mgrwt>
<rscale>  4 0.25828854E+03</rscale>
<asrwt>0</asrwt>
<pdfrwt beam="1">  1       21 0.41624929E-01 0.25828854E+03</pdfrwt>
<pdfrwt beam="2">  1       21 0.10918453E+00 0.25828854E+03</pdfrwt>
<totfact> 0.35188686E+03</totfact>
</mgrwt>
</event>
<event>
 5    0  0.1200001E+000  0.2740110E+03  0.7546771E-02  0.1099006E+00
         21   -1    0    0  503  501  0.00000000000E+00  0.00000000000E+00  0.77150988840E+03  0.77150988840E+03  0.00000000000E+00 0.  1.
         21   -1    0    0  501  502 -0.00000000000E+00 -0.00000000000E+00 -0.19037420977E+03  0.19037420977E+03  0.00000000000E+00 0.  1.
         25    1    1    2    0    0  0.25793238062E+03 -0.33094996222E+01  0.42920343890E+02  0.28983999324E+03  0.12500000000E+03 0.  0.
         21    1    1    2  503  504 -0.32029401860E+02  0.39485115340E+02  0.40320227934E+03  0.40639517097E+03  0.00000000000E+00 0.  1.
         21    1    1    2  504  502 -0.22590297876E+03 -0.36175615718E+02  0.13501305540E+03  0.26564893396E+03  0.00000000000E+00 0.  1.
<mgrwt>
<rscale>  4 0.27401103E+03</rscale>
<asrwt>0</asrwt>
<pdfrwt beam="1">  1       21 0.11869383E+00 0.27401103E+03</pdfrwt>
<pdfrwt beam="2">  1       21 0.29288340E-01 0.27401103E+03</pdfrwt>
<totfact> 0.57345655E+03</totfact>
</mgrwt>
</event>
<event>
 5    0  0.1200001E+000  0.3775534E+03  0.7546771E-02  0.1051842E+00
         21   -1    0    0  503  501  0.00000000000E+00  0.00000000000E+00  0.41074671789E+03  0.41074671789E+03  0.00000000000E+00 0. -1.
         21   -1    0    0  501  502 -0.00000000000E+00 -0.00000000000E+00 -0.88507188313E+03  0.88507188313E+03  0.00000000000E+00 0.  1.
         25    1    1    2    0    0 -0.35161729033E+03 -0.71590464954E+02 -0.73512812040E+03  0.82752538748E+03  0.12500000000E+03 0.  0.
         21    1    1    2  503  504  0.12248155398E+02  0.36240306738E+02  0.63546916248E+02  0.74172688423E+02  0.00000000000E+00 0. -1.
         21    1    1    2  504  502  0.33936913493E+03  0.35350158215E+02  0.19725603891E+03  0.39412052511E+03  0.00000000000E+00 0. -1.
<mgrwt>
<rscale>  4 0.37755339E+03</rscale>
<asrwt>0</asrwt>
<pdfrwt beam="1">  1       21 0.63191803E-01 0.37755339E+03</pdfrwt>
<pdfrwt beam="2">  1       21 0.13616490E+00 0.37755339E+03</pdfrwt>
<totfact> 0.77628371E+02</totfact>
</mgrwt>
</event>
<event>
 5    0  0.1200001E+000  0.2400033E+03  0.7546771E-02  0.1119791E+00
         21   -1    0    0  503  501  0.00000000000E+00  0.00000000000E+00  0.47005820636E+03  0.47005820636E+03  0.00000000000E+00 0. -1.
         21   -1    0    0  504  502 -0.00000000000E+00 -0.00000000000E+00 -0.27173987383E+03  0.27173987383E+03  0.00000000000E+00 0. -1.
         25    1    1    2    0    0 -0.87536353619E+01 -0.20212448693E+03 -0.31984220487E+02  0.23995608913E+03  0.12500000000E+03 0.  0.
         21    1    1    2  503  502  0.84262795135E+02  0.19587424534E+03 -0.43609842104E+02  0.21764364672E+03  0.00000000000E+00 0. -1.
         21    1    1    2  504  501 -0.75509159773E+02  0.62502415928E+01  0.27391239512E+03  0.28419834434E+03  0.00000000000E+00 0. -1.
<mgrwt>
<rscale>  4 0.24000330E+03</rscale>
<asrwt>0</asrwt>
<pdfrwt beam="1">  1       21 0.72316647E-01 0.24000330E+03</pdfrwt>
<pdfrwt beam="2">  1       21 0.41806134E-01 0.24000330E+03</pdfrwt>
<totfact> 0.92090998E+03</totfact>
</mgrwt>
</event>
<event>
 5    0  0.1200001E+000  0.3593027E+03  0.7546771E-02  0.1058860E+00
         21   -1    0    0  503  501  0.00000000000E+00  0.00000000000E+00  0.15555054441E+03  0.15555054441E+03  0.00000000000E+00 0. -1.
         21   -1    0    0  501  502 -0.00000000000E+00 -0.00000000000E+00 -0.97912782645E+03  0.97912782645E+03  0.00000000000E+00 0. -1.
         25    1    1    2    0    0  0.14058155457E+03  0.28443220197E+03 -0.35940772036E+03  0.49544299415E+03  0.12500000000E+03 0.  0.
         21    1    1    2  503  504 -0.10525607614E+02  0.45190347978E+02  0.98238776383E+01  0.47428520300E+02  0.00000000000E+00 0. -1.
         21    1    1    2  504  502 -0.13005594696E+03 -0.32962254995E+03 -0.47399343932E+03  0.59180685641E+03  0.00000000000E+00 0. -1.
<mgrwt>
<rscale>  4 0.35930275E+03</rscale>
<asrwt>0</asrwt>
<pdfrwt beam="1">  1       21 0.23930853E-01 0.35930275E+03</pdfrwt>
<pdfrwt beam="2">  1       21 0.15063505E+00 0.35930275E+03</pdfrwt>
<totfact> 0.43840099E+03</totfact>
</mgrwt>
</event>
<event>
 5    0  0.1200001E+000  0.2879128E+03  0.7546771E-02  0.1091444E+00
         21   -1    0    0  502  501  0.00000000000E+00  0.00000000000E+00  0.24680312213E+04  0.24680312213E+04  0.00000000000E+00 0.  1.
         21   -1    0    0  504  502 -0.00000000000E+00 -0.00000000000E+00 -0.59673215681E+03  0.59673215681E+03  0.00000000000E+00 0.  1.
         25    1    1    2    0    0  0.25928850708E+03  0.61869889071E+01 -0.55438450454E+03  0.62468871256E+03  0.12500000000E+03 0.  0.
         21    1    1    2  503  501 -0.23573327346E+03  0.72649552142E+01  0.22471037346E+04  0.22594464255E+04  0.00000000000E+00 0.  1.
         21    1    1    2  504  503 -0.23555233621E+02 -0.13451944121E+02  0.17857983440E+03  0.18062824001E+03  0.00000000000E+00 0. -1.
<mgrwt>
<rscale>  4 0.28791285E+03</rscale>
<asrwt>0</asrwt>
<pdfrwt beam="1">  1       21 0.37969711E+00 0.28791285E+03</pdfrwt>
<pdfrwt beam="2">  1       21 0.91804949E-01 0.28791285E+03</pdfrwt>
<totfact> 0.99213711E+00</totfact>
</mgrwt>
</event>
<event>
 5    0  0.1200001E+000  0.2359709E+03  0.7546771E-02  0.1122506E+00
         21   -1    0    0  502  501  0.00000000000E+00  0.00000000000E+00  0.20722403255E+03  0.20722403255E+03  0.00000000000E+00 0. -1.
         21   -1    0    0  504  502 -0.00000000000E+00 -0.00000000000E+00 -0.33044099827E+03  0.33044099827E+03  0.00000000000E+00 0.  1.
         25    1    1    2    0    0 -0.14249612630E+03 -0.14054217782E+03 -0.21090930855E+03  0.31648852458E+03  0.12500000000E+03 0.  0.
         21    1    1    2  503  501  0.12304126557E+03  0.13243890974E+03  0.85543482707E+02  0.19999226305E+03  0.00000000000E+00 0. -1.
         21    1    1    2  504  503  0.19454860737E+02  0.81032680766E+01  0.21488601225E+01  0.21184243193E+02  0.00000000000E+00 0.  1.
<mgrwt>
<rscale>  4 0.23597087E+03</rscale>
<asrwt>0</asrwt>
<pdfrwt beam="1">  1       21 0.31880620E-01 0.23597087E+03</pdfrwt>
<pdfrwt beam="2">  1       21 0.50837077E-01 0.23597087E+03</pdfrwt>
<totfact> 0.34074852E+04</totfact>
</mgrwt>
</event>
<event>
 5    0  0.1200001E+000  0.2636829E+03  0.7546771E-02  0.1104950E+00
         21   -1    0    0  502  501  0.00000000000E+00  0.00000000000E+00  0.14522964428E+03  0.14522964428E+03  0.00000000000E+00 0. -1.
         21   -1    0    0  503  502 -0.00000000000E+00 -0.00000000000E+00 -0.82531323365E+03  0.82531323365E+03  0.00000000000E+00 0.  1.
         25    1    1    2    0    0 -0.19660939143E+03  0.43409213679E+02 -0.62784603896E+03  0.67108513713E+03  0.12500000000E+03 0.  0.
         21    1    1    2  503  504 -0.38594830817E+02 -0.69964753741E+01 -0.47237032385E+02  0.61399094961E+02  0.00000000000E+00 0. -1.
         21    1    1    2  504  501  0.23520422225E+03 -0.36412738304E+02 -0.50005180195E+01  0.23805864583E+03  0.00000000000E+00 0. -1.
<mgrwt>
<rscale>  4 0.26368293E+03</rscale>
<asrwt>0</asrwt>
<pdfrwt beam="1">  1       21 0.22343023E-01 0.26368293E+03</pdfrwt>
<pdfrwt beam="2">  1       21 0.12697126E+00 0.26368293E+03</pdfrwt>
<totfact> 0.82053214E+03</totfact>
</mgrwt>
</event>
<event>
 5    0  0.1200001E+000  0.2832962E+03  0.7546771E-02  0.1093902E+00
         21   -1    0    0  503  501  0.00000000000E+00  0.00000000000E+00  0.38188622822E+03  0.38188622822E+03  0.00000000000E+00 0.  1.
         21   -1    0    0  501  502 -0.00000000000E+00 -0.00000000000E+00 -0.23447779389E+03  0.23447779389E+03  0.00000000000E+00 0. -1.
         25    1    1    2    0    0 -0.17058472373E+02 -0.25027077648E+03 -0.66603163519E+01  0.28034944775E+03  0.12500000000E+03 0.  0.
         21    1    1    2  503  504  0.35705535998E+02 -0.99516536755E+01  0.26782278675E+02  0.45729762331E+02  0.00000000000E+00 0.  1.
         21    1    1    2  504  502 -0.18647063625E+02  0.26022243016E+03  0.12728647200E+03  0.29028481203E+03  0.00000000000E+00 0.  1.
<mgrwt>
<rscale>  4 0.28329618E+03</rscale>
<asrwt>0</asrwt>
<pdfrwt beam="1">  1       21 0.58751727E-01 0.28329618E+03</pdfrwt>
<pdfrwt beam="2">  1       21 0.36073507E-01 0.28329618E+03</pdfrwt>
<totfact> 0.19172254E+04</totfact>
</mgrwt>
</event>
<event>
 5    0  0.1200001E+000  0.3029319E+03  0.7546771E-02  0.1083784E+00
         21   -1    0    0  503  501  0.00000000000E+00  0.00000000000E+00  0.32796289651E+03  0.32796289651E+03  0.00000000000E+00 0.  1.
         21   -1    0    0  501  502 -0.00000000000E+00 -0.00000000000E+00 -0.33753516800E+03  0.33753516800E+03  0.00000000000E+00 0.  1.
         25    1    1    2    0    0 -0.23841051136E+03  0.13499472903E+03  0.84235115928E+02  0.31270385918E+03  0.12500000000E+03 0.  0.
         21    1    1    2  503  504  0.26663481798E+02  0.45967409197E+02  0.12613469972E+02  0.54617246311E+02  0.00000000000E+00 0. -1.
         21    1    1    2  504  502  0.21174702956E+03 -0.18096213823E+03 -0.10642085739E+03  0.29817695902E+03  0.00000000000E+00 0.  1.
<mgrwt>
<rscale>  4 0.30293188E+03</rscale>
<asrwt>0</asrwt>
<pdfrwt beam="1">  1       21 0.50455830E-01 0.30293188E+03</pdfrwt>
<pdfrwt beam="2">  1       21 0.51928487E-01 0.30293188E+03</pdfrwt>
<totfact> 0.12405913E+04</totfact>
</mgrwt>
</event>
<event>
 5    0  0.1200001E+000  0.2588128E+03  0.7546771E-02  0.1107859E+00
         21   -1    0    0  502  501  0.00000000000E+00  0.00000000000E+00  0.30198606957E+03  0.30198606957E+03  0.00000000000E+00 0. -1.
         21   -1    0    0  504  502 -0.00000000000E+00 -0.00000000000E+00 -0.41844456137E+03  0.41844456137E+03  0.00000000000E+00 0.  1.
         25    1    1    2    0    0  0.10337119817E+03 -0.20167658702E+03 -0.32074820782E+03  0.41214495409E+03  0.12500000000E+03 0.  0.
         21    1    1    2  503  501 -0.99566004918E+02  0.15753582661E+03  0.15970954622E+03  0.24543444167E+03  0.00000000000E+00 0. -1.
         21    1    1    2  504  503 -0.38051932492E+01  0.44140760411E+02  0.44580169793E+02  0.62851235183E+02  0.00000000000E+00 0. -1.
<mgrwt>
<rscale>  4 0.25881277E+03</rscale>
<asrwt>0</asrwt>
<pdfrwt beam="1">  1       21 0.46459395E-01 0.25881277E+03</pdfrwt>
<pdfrwt beam="2">  1       21 0.64376086E-01 0.25881277E+03</pdfrwt>
<totfact> 0.94808979E+03</totfact>
</mgrwt>
</event>
<event>
 5    0  0.1200001E+000  0.2190186E+03  0.7546771E-02  0.1134617E+00
         21   -1    0    0  503  501  0.00000000000E+00  0.00000000000E+00  0.93019614927E+03  0.93019614927E+03  0.00000000000E+00 0. -1.
         21   -1    0    0  501  502 -0.00000000000E+00 -0.00000000000E+00 -0.30861152425E+03  0.30861152425E+03  0.00000000000E+00 0. -1.
         25    1    1    2    0    0  0.13107946617E+02 -0.20249666897E+03  0.44858612562E+03  0.50796774633E+03  0.12500000000E+03 0.  0.
         21    1    1    2  503  504  0.73454484886E+01  0.25192947352E+02  0.42291886022E+03  0.42373222976E+03  0.00000000000E+00 0. -1.
         21    1    1    2  504  502 -0.20453395106E+02  0.17730372162E+03 -0.24992036081E+03  0.30710769743E+03  0.00000000000E+00 0. -1.
<mgrwt>
<rscale>  4 0.21901862E+03</rscale>
<asrwt>0</asrwt>
<pdfrwt beam="1">  1       21 0.14310710E+00 0.21901862E+03</pdfrwt>
<pdfrwt beam="2">  1       21 0.47478696E-01 0.21901862E+03</pdfrwt>
<totfact> 0.13985860E+03</totfact>
</mgrwt>
</event>
<event>
 5    0  0.1200001E+000  0.2840557E+03  0.7546771E-02  0.1093494E+00
         21   -1    0    0  503  501  0.00000000000E+00  0.00000000000E+00  0.68248716100E+02  0.68248716100E+02  0.00000000000E+00 0.  1.
         21   -1    0    0  504  502 -0.00000000000E+00 -0.00000000000E+00 -0.13774851877E+04  0.13774851877E+04  0.00000000000E+00 0.  1.
         25    1    1    2    0    0  0.18981775993E+03 -0.13966900512E+03 -0.71662615085E+03  0.76466741336E+03  0.12500000000E+03 0.  0.
         21    1    1    2  503  502 -0.23561832065E+03  0.15880040969E+03 -0.52792601529E+03  0.59953268532E+03  0.00000000000E+00 0.  1.
         21    1    1    2  504  501  0.45800560721E+02 -0.19131404570E+02 -0.64684305420E+02  0.81533805080E+02  0.00000000000E+00 0.  1.
<mgrwt>
<rscale>  4 0.28405574E+03</rscale>
<asrwt>0</asrwt>
<pdfrwt beam="1">  1       21 0.10499802E-01 0.28405574E+03</pdfrwt>
<pdfrwt beam="2">  1       21 0.21192080E+00 0.28405574E+03</pdfrwt>
<totfact> 0.78465323E+03</totfact>
</mgrwt>
</event>
<event>
 5    0  0.1200001E+000  0.2793020E+03  0.7546771E-02  0.1096071E+00
         21   -1    0    0  503  501  0.00000000000E+00  0.00000000000E+00  0.16109887156E+03  0.16109887156E+03  0.00000000000E+00 0. -1.
         21   -1    0    0  501  502 -0.00000000000E+00 -0.00000000000E+00 -0.63556099553E+03  0.63556099553E+03  0.00000000000E+00 0. -1.
         25    1    1    2    0    0  0.65166187154E+02  0.22638637812E+03 -0.27783111448E+03  0.38511368753E+03  0.12500000000E+03 0.  0.
         21    1    1    2  503  504  0.22766803521E+02  0.24258901241E+02  0.42614962184E+02  0.54063450075E+02  0.00000000000E+00 0. -1.
         21    1    1    2  504  502 -0.87932990675E+02 -0.25064527936E+03 -0.23924597167E+03  0.35748272948E+03  0.00000000000E+00 0. -1.
<mgrwt>
<rscale>  4 0.27930197E+03</rscale>
<asrwt>0</asrwt>
<pdfrwt beam="1">  1       21 0.24784442E-01 0.27930197E+03</pdfrwt>
<pdfrwt beam="2">  1       21 0.97778615E-01 0.27930197E+03</pdfrwt>
<totfact> 0.12682854E+04</totfact>
</mgrwt>
</event>
<event>
 5    0  0.1200001E+000  0.3778345E+03  0.7546771E-02  0.1051737E+00
         21   -1    0    0  503  501  0.00000000000E+00  0.00000000000E+00  0.70816854277E+03  0.70816854277E+03  0.00000000000E+00 0. -1.
         21   -1    0    0  501  502 -0.00000000000E+00 -0.00000000000E+00 -0.73650869803E+03  0.73650869803E+03  0.00000000000E+00 0. -1.
         25    1    1    2    0    0 -0.11008494108E+02 -0.33824044475E+03  0.28974991637E+03  0.46271783999E+03  0.12500000000E+03 0.  0.
         21    1    1    2  503  504  0.12031290194E+02 -0.20732595622E+02  0.28182636944E+03  0.28284394103E+03  0.00000000000E+00 0. -1.
         21    1    1    2  504  502 -0.10227960866E+01  0.35897304037E+03 -0.59991644108E+03  0.69911545978E+03  0.00000000000E+00 0. -1.
<mgrwt>
<rscale>  4 0.37783446E+03</rscale>
<asrwt>0</asrwt>
<pdfrwt beam="1">  1       21 0.10894901E+00 0.37783446E+03</pdfrwt>
<pdfrwt beam="2">  1       21 0.11330903E+00 0.37783446E+03</pdfrwt>
<totfact> 0.34962741E+02</totfact>
</mgrwt>
</event>
<event>
 5    0  0.1200001E+000  0.3054462E+03  0.7546771E-02  0.1082549E+00
         21   -1    0    0  503  501  0.00000000000E+00  0.00000000000E+00  0.31649071676E+03  0.31649071676E+03  0.00000000000E+00 0. -1.
         21   -1    0    0  501  502 -0.00000000000E+00 -0.00000000000E+00 -0.33850841092E+03  0.33850841092E+03  0.00000000000E+00 0. -1.
         25    1    1    2    0    0 -0.24738721372E+03 -0.16177666403E+03  0.56225414930E+02  0.32581961240E+03  0.12500000000E+03 0.  0.
         21    1    1    2  503  504  0.72344278197E+01  0.36790468528E+02  0.18336060658E+02  0.41738311428E+02  0.00000000000E+00 0. -1.
         21    1    1    2  504  502  0.24015278590E+03  0.12498619550E+03 -0.96579169753E+02  0.28744120385E+03  0.00000000000E+00 0. -1.
<mgrwt>
<rscale>  4 0.30544616E+03</rscale>
<asrwt>0</asrwt>
<pdfrwt beam="1">  1       21 0.48690880E-01 0.30544616E+03</pdfrwt>
<pdfrwt beam="2">  1       21 0.52078217E-01 0.30544616E+03</pdfrwt>
<totfact> 0.13276244E+04</totfact>
</mgrwt>
</event>
<event>
 5    0  0.1200001E+000  0.2590590E+03  0.7546771E-02  0.1107710E+00
         21   -1    0    0  503  501  0.00000000000E+00  0.00000000000E+00  0.22531651166E+03  0.22531651166E+03  0.00000000000E+00 0.  1.
         21   -1    0    0  501  502 -0.00000000000E+00 -0.00000000000E+00 -0.44400179530E+03  0.44400179530E+03  0.00000000000E+00 0.  1.
         25    1    1    2    0    0 -0.20148986713E+02 -0.21488802782E+03 -0.23264525974E+03  0.34107427790E+03  0.12500000000E+03 0.  0.
         21    1    1    2  503  504  0.35761955161E+02 -0.35198792047E+02  0.54868003985E+02  0.74353011102E+02  0.00000000000E+00 0.  1.
         21    1    1    2  504  502 -0.15612968448E+02  0.25008681987E+03 -0.40908027892E+02  0.25389101796E+03  0.00000000000E+00 0.  1.
<mgrwt>
<rscale>  4 0.25905898E+03</rscale>
<asrwt>0</asrwt>
<pdfrwt beam="1">  1       21 0.34664079E-01 0.25905898E+03</pdfrwt>
<pdfrwt beam="2">  1       21 0.68307968E-01 0.25905898E+03</pdfrwt>
<totfact> 0.15104627E+04</totfact>
</mgrwt>
</event>
<event>
 5    0  0.1492321E+000  0.2449900E+03  0.7546771E-02  0.1116513E+00
         21   -1    0    0  502  501  0.00000000000E+00  0.00000000000E+00  0.89895306273E+03  0.89895306273E+03  0.00000000000E+00 0.  1.
         21   -1    0    0  503  502 -0.00000000000E+00 -0.00000000000E+00 -0.69904312103E+02  0.69904312103E+02  0.00000000000E+00 0.  1.
         25    1    1    2    0    0  0.16661242301E+02  0.20221201511E+03  0.28023819601E+03  0.36786647381E+03  0.12500000000E+03 0.  0.
         21    1    1    2  503  504 -0.46813952021E+01  0.20925484747E+02  0.45006978031E+02  0.49853981229E+02  0.00000000000E+00 0. -1.
         21    1    1    2  504  501 -0.11979847099E+02 -0.22313749986E+03  0.50380357658E+03  0.55113691979E+03  0.00000000000E+00 0.  1.
<mgrwt>
<rscale>  4 0.24498996E+03</rscale>
<asrwt>0</asrwt>
<pdfrwt beam="1">  1       21 0.13830046E+00 0.24498996E+03</pdfrwt>
<pdfrwt beam="2">  1       21 0.10754510E-01 0.24498996E+03</pdfrwt>
<totfact> 0.25558436E+04</totfact>
</mgrwt>
</event>
<event>
 5    0  0.1200001E+000  0.2575099E+03  0.7546771E-02  0.1108649E+00
         21   -1    0    0  503  501  0.00000000000E+00  0.00000000000E+00  0.20667987668E+03  0.20667987668E+03  0.00000000000E+00 0. -1.
         21   -1    0    0  504  502 -0.00000000000E+00 -0.00000000000E+00 -0.74356316447E+03  0.74356316447E+03  0.00000000000E+00 0.  1.
         25    1    1    2    0    0 -0.14894599545E+03 -0.17925578478E+03 -0.57729792427E+03  0.63499247185E+03  0.12500000000E+03 0.  0.
         21    1    1    2  503  502  0.12552967457E+03  0.16088049800E+03 -0.58236490085E+02  0.21220679209E+03  0.00000000000E+00 0. -1.
         21    1    1    2  504  501  0.23416320881E+02  0.18375286782E+02  0.98651126564E+02  0.10304377720E+03  0.00000000000E+00 0. -1.
<mgrwt>
<rscale>  4 0.25750992E+03</rscale>
<asrwt>0</asrwt>
<pdfrwt beam="1">  1       21 0.31796904E-01 0.25750992E+03</pdfrwt>
<pdfrwt beam="2">  1       21 0.11439433E+00 0.25750992E+03</pdfrwt>
<totfact> 0.53961252E+03</totfact>
</mgrwt>
</event>
<event>
 5    0  0.1200001E+000  0.3003096E+03  0.7546771E-02  0.1085086E+00
         21   -1    0    0  502  501  0.00000000000E+00  0.00000000000E+00  0.78800284256E+03  0.78800284256E+03  0.00000000000E+00 0. -1.
         21   -1    0    0  504  502 -0.00000000000E+00 -0.00000000000E+00 -0.19362952335E+03  0.19362952335E+03  0.00000000000E+00 0.  1.
         25    1    1    2    0    0 -0.30764123706E+03 -0.75661949476E+02  0.74198877804E+02  0.34856611253E+03  0.12500000000E+03 0.  0.
         21    1    1    2  503  501  0.26231167425E+03  0.22127503698E+02  0.49095515527E+03  0.55707630119E+03  0.00000000000E+00 0. -1.
         21    1    1    2  504  503  0.45329562816E+02  0.53534445778E+02  0.29219286136E+02  0.75989952179E+02  0.00000000000E+00 0. -1.
<mgrwt>
<rscale>  4 0.30030956E+03</rscale>
<asrwt>0</asrwt>
<pdfrwt beam="1">  1       21 0.12123120E+00 0.30030956E+03</pdfrwt>
<pdfrwt beam="2">  1       21 0.29789158E-01 0.30030956E+03</pdfrwt>
<totfact> 0.51851539E+03</totfact>
</mgrwt>
</event>
<event>
 5    0  0.1200001E+000  0.4711370E+03  0.7546771E-02  0.1035044E+00
         21   -1    0    0  503  501  0.00000000000E+00  0.00000000000E+00  0.81617003986E+03  0.81617003986E+03  0.00000000000E+00 0.  1.
         21   -1    0    0  501  502 -0.00000000000E+00 -0.00000000000E+00 -0.91542618182E+03  0.91542618182E+03  0.00000000000E+00 0.  1.
         25    1    1    2    0    0 -0.12050762619E+02  0.28967629289E+03 -0.22502797676E+03  0.38771144665E+03  0.12500000000E+03 0.  0.
         21    1    1    2  503  504  0.45012839072E+03 -0.18951217582E+03  0.54324461210E+03  0.73051019260E+03  0.00000000000E+00 0.  1.
         21    1    1    2  504  502 -0.43807762810E+03 -0.10016411707E+03 -0.41747277730E+03  0.61337458243E+03  0.00000000000E+00 0.  1.
<mgrwt>
<rscale>  4 0.42627300E+03</rscale>
<asrwt>0</asrwt>
<pdfrwt beam="1">  1       21 0.12556462E+00 0.47113702E+03</pdfrwt>
<pdfrwt beam="2">  1       21 0.14083480E+00 0.47113702E+03</pdfrwt>
<totfact> 0.13293358E+02</totfact>
</mgrwt>
</event>
<event>
 5    0  0.1200001E+000  0.2425070E+03  0.7546771E-02  0.1118134E+00
         21   -1    0    0  502  501  0.00000000000E+00  0.00000000000E+00  0.97956846729E+02  0.97956846729E+02  0.00000000000E+00 0. -1.
         21   -1    0    0  503  502 -0.00000000000E+00 -0.00000000000E+00 -0.11686934682E+04  0.11686934682E+04  0.00000000000E+00 0.  1.
         25    1    1    2    0    0  0.20407483290E+03 -0.33479369764E+02 -0.98464466064E+03  0.10138626699E+04  0.12500000000E+03 0.  0.
         21    1    1    2  503  504  0.96265803551E+01  0.21015833606E+02 -0.13392012802E+02  0.26714833302E+02  0.00000000000E+00 0. -1.
         21    1    1    2  504  501 -0.21370141325E+03  0.12463536158E+02 -0.72699947983E+02  0.22607281171E+03  0.00000000000E+00 0. -1.
<mgrwt>
<rscale>  4 0.24250699E+03</rscale>
<asrwt>0</asrwt>
<pdfrwt beam="1">  1       21 0.15070285E-01 0.24250699E+03</pdfrwt>
<pdfrwt beam="2">  1       21 0.17979899E+00 0.24250699E+03</pdfrwt>
<totfact> 0.68298744E+03</totfact>
</mgrwt>
</event>
<event>
 5    0  0.1200001E+000  0.2944920E+03  0.7546771E-02  0.1088027E+00
         21   -1    0    0  503  501  0.00000000000E+00  0.00000000000E+00  0.24861128191E+04  0.24861128191E+04  0.00000000000E+00 0. -1.
         21   -1    0    0  501  502 -0.00000000000E+00 -0.00000000000E+00 -0.94458814597E+02  0.94458814597E+02  0.00000000000E+00 0.  1.
         25    1    1    2    0    0 -0.21946063263E+03  0.14692974353E+03  0.17241648659E+03  0.33926945582E+03  0.12500000000E+03 0.  0.
         21    1    1    2  503  504 -0.16026918645E+02  0.18294377928E+02  0.11944085512E+03  0.12189201884E+03  0.00000000000E+00 0.  1.
         21    1    1    2  504  502  0.23548755127E+03 -0.16522412146E+03  0.20997966628E+04  0.21194101591E+04  0.00000000000E+00 0. -1.
<mgrwt>
<rscale>  4 0.29449201E+03</rscale>
<asrwt>0</asrwt>
<pdfrwt beam="1">  1       21 0.38247885E+00 0.29449201E+03</pdfrwt>
<pdfrwt beam="2">  1       21 0.14532127E-01 0.29449201E+03</pdfrwt>
<totfact> 0.40700356E+02</totfact>
</mgrwt>
</event>
<event>
 5    0  0.1200001E+000  0.2983007E+03  0.7546771E-02  0.1086093E+00
         21   -1    0    0  502  501  0.00000000000E+00  0.00000000000E+00  0.22903206867E+03  0.22903206867E+03  0.00000000000E+00 0. -1.
         21   -1    0    0  503  502 -0.00000000000E+00 -0.00000000000E+00 -0.20999205930E+04  0.20999205930E+04  0.00000000000E+00 0. -1.
         25    1    1    2    0    0  0.53529888600E+02 -0.26388031558E+03 -0.18458246031E+04  0.18695431890E+04  0.12500000000E+03 0.  0.
         21    1    1    2  503  504 -0.77825740436E+02 -0.44185079825E+02 -0.10721184715E+03  0.13965510131E+03  0.00000000000E+00 0. -1.
         21    1    1    2  504  501  0.24295851836E+02  0.30806539541E+03  0.82147925973E+02  0.31975437136E+03  0.00000000000E+00 0. -1.
<mgrwt>
<rscale>  4 0.29830074E+03</rscale>
<asrwt>0</asrwt>
<pdfrwt beam="1">  1       21 0.35235704E-01 0.29830074E+03</pdfrwt>
<pdfrwt beam="2">  1       21 0.32306470E+00 0.29830074E+03</pdfrwt>
<totfact> 0.17043316E+02</totfact>
</mgrwt>
</event>
<event>
 5    0  0.1200001E+000  0.2920057E+03  0.7546771E-02  0.1089307E+00
         21   -1    0    0  502  501  0.00000000000E+00  0.00000000000E+00  0.12077271078E+04  0.12077271078E+04  0.00000000000E+00 0.  1.
         21   -1    0    0  503  502 -0.00000000000E+00 -0.00000000000E+00 -0.65650033487E+02  0.65650033487E+02  0.00000000000E+00 0.  1.
         25    1    1    2    0    0  0.45729992908E+02 -0.25990589395E+03  0.54169765395E+03  0.61538902676E+03  0.12500000000E+03 0.  0.
         21    1    1    2  503  504 -0.20749853828E+02  0.10765927481E+03  0.31558998279E+03  0.33409297077E+03  0.00000000000E+00 0.  1.
         21    1    1    2  504  501 -0.24980139081E+02  0.15224661914E+03  0.28478943753E+03  0.32389514370E+03  0.00000000000E+00 0.  1.
<mgrwt>
<rscale>  4 0.29200566E+03</rscale>
<asrwt>0</asrwt>
<pdfrwt beam="1">  1       21 0.18580415E+00 0.29200566E+03</pdfrwt>
<pdfrwt beam="2">  1       21 0.10100006E-01 0.29200566E+03</pdfrwt>
<totfact> 0.12426061E+04</totfact>
</mgrwt>
</event>
<event>
 5    0  0.1200001E+000  0.3394906E+03  0.7546771E-02  0.1067013E+00
         21   -1    0    0  503  501  0.00000000000E+00  0.00000000000E+00  0.78913750639E+03  0.78913750639E+03  0.00000000000E+00 0.  1.
         21   -1    0    0  504  502 -0.00000000000E+00 -0.00000000000E+00 -0.16599386374E+03  0.16599386374E+03  0.00000000000E+00 0.  1.
         25    1    1    2    0    0  0.21136451467E+03 -0.22597661441E+03  0.20275739366E+03  0.39048168843E+03  0.12500000000E+03 0.  0.
         21    1    1    2  503  502 -0.20797434612E+03  0.24793860648E+03  0.29689091661E+03  0.43917092070E+03  0.00000000000E+00 0.  1.
         21    1    1    2  504  501 -0.33901685475E+01 -0.21961992070E+02  0.12349533238E+03  0.12547876099E+03  0.00000000000E+00 0. -1.
<mgrwt>
<rscale>  4 0.33949056E+03</rscale>
<asrwt>0</asrwt>
<pdfrwt beam="1">  1       21 0.12140577E+00 0.33949056E+03</pdfrwt>
<pdfrwt beam="2">  1       21 0.25537518E-01 0.33949056E+03</pdfrwt>
<totfact> 0.68486403E+03</totfact>
</mgrwt>
</event>
<event>
 5    0  0.1200001E+000  0.3074792E+03  0.7546771E-02  0.1081560E+00
         21   -1    0    0  502  501  0.00000000000E+00  0.00000000000E+00  0.45176334727E+03  0.45176334727E+03  0.00000000000E+00 0.  1.
         21   -1    0    0  503  502 -0.00000000000E+00 -0.00000000000E+00 -0.35662804517E+03  0.35662804517E+03  0.00000000000E+00 0.  1.
         25    1    1    2    0    0 -0.25706449606E+02 -0.28572409229E+03 -0.16081551981E+03  0.35183193414E+03  0.12500000000E+03 0.  0.
         21    1    1    2  503  504 -0.33214162294E+02  0.21415405038E+02  0.16687225191E+03  0.17148804217E+03  0.00000000000E+00 0. -1.
         21    1    1    2  504  501  0.58920611900E+02  0.26430868725E+03  0.89078569995E+02  0.28507141613E+03  0.00000000000E+00 0.  1.
<mgrwt>
<rscale>  4 0.30747923E+03</rscale>
<asrwt>0</asrwt>
<pdfrwt beam="1">  1       21 0.69502054E-01 0.30747923E+03</pdfrwt>
<pdfrwt beam="2">  1       21 0.54865853E-01 0.30747923E+03</pdfrwt>
<totfact> 0.54995630E+03</totfact>
</mgrwt>
</event>
<event>
 5    0  0.1200001E+000  0.3077493E+03  0.7546771E-02  0.1081430E+00
         21   -1    0    0  503  501  0.00000000000E+00  0.00000000000E+00  0.16749592041E+03  0.16749592041E+03  0.00000000000E+00 0.  1.
         21   -1    0    0  501  502 -0.00000000000E+00 -0.00000000000E+00 -0.13788168931E+04  0.13788168931E+04  0.00000000000E+00 0.  1.
         25    1    1    2    0    0  0.28242591550E+02  0.24469875294E+03 -0.35092648516E+03  0.44659771792E+03  0.12500000000E+03 0.  0.
         21    1    1    2  503  504 -0.22611660931E+03  0.29108112921E+02 -0.67361653970E+02  0.23772588347E+03  0.00000000000E+00 0.  1.
         21    1    1    2  504  502  0.19787401776E+03 -0.27380686586E+03 -0.79303283360E+03  0.86198921216E+03  0.00000000000E+00 0.  1.
<mgrwt>
<rscale>  4 0.30774927E+03</rscale>
<asrwt>0</asrwt>
<pdfrwt beam="1">  1       21 0.25768604E-01 0.30774927E+03</pdfrwt>
<pdfrwt beam="2">  1       21 0.21212567E+00 0.30774927E+03</pdfrwt>
<totfact> 0.14556653E+03</totfact>
</mgrwt>
</event>
<event>
 5    0  0.1200001E+000  0.2657192E+03  0.7546771E-02  0.1103755E+00
         21   -1    0    0  503  501  0.00000000000E+00  0.00000000000E+00  0.89097869248E+03  0.89097869248E+03  0.00000000000E+00 0.  1.
         21   -1    0    0  501  502 -0.00000000000E+00 -0.00000000000E+00 -0.88794728629E+02  0.88794728629E+02  0.00000000000E+00 0. -1.
         25    1    1    2    0    0  0.12313181601E+03  0.19944499682E+03  0.26013046661E+03  0.37179646385E+03  0.12500000000E+03 0.  0.
         21    1    1    2  503  504  0.30486995824E+02 -0.19902710498E+02  0.10505939498E+03  0.11118925880E+03  0.00000000000E+00 0.  1.
         21    1    1    2  504  502 -0.15361881184E+03 -0.17954228632E+03  0.43699410226E+03  0.49678769846E+03  0.00000000000E+00 0. -1.
<mgrwt>
<rscale>  4 0.26571915E+03</rscale>
<asrwt>0</asrwt>
<pdfrwt beam="1">  1       21 0.13707364E+00 0.26571915E+03</pdfrwt>
<pdfrwt beam="2">  1       21 0.13660728E-01 0.26571915E+03</pdfrwt>
<totfact> 0.16817267E+04</totfact>
</mgrwt>
</event>
<event>
 5    0  0.1200001E+000  0.2855364E+03  0.7546771E-02  0.1092703E+00
         21   -1    0    0  502  501  0.00000000000E+00  0.00000000000E+00  0.62994793191E+03  0.62994793191E+03  0.00000000000E+00 0.  1.
         21   -1    0    0  504  502 -0.00000000000E+00 -0.00000000000E+00 -0.12423070345E+03  0.12423070345E+03  0.00000000000E+00 0.  1.
         25    1    1    2    0    0  0.12042766111E+03  0.22672279627E+03  0.19050466579E+03  0.34325366072E+03  0.12500000000E+03 0.  0.
         21    1    1    2  503  501 -0.12523575995E+03 -0.19651143785E+03  0.27734153315E+03  0.36224172425E+03  0.00000000000E+00 0.  1.
         21    1    1    2  504  503  0.48080988387E+01 -0.30211358422E+02  0.37871029519E+02  0.48683250395E+02  0.00000000000E+00 0.  1.
<mgrwt>
<rscale>  4 0.28553642E+03</rscale>
<asrwt>0</asrwt>
<pdfrwt beam="1">  1       21 0.96915065E-01 0.28553642E+03</pdfrwt>
<pdfrwt beam="2">  1       21 0.19112416E-01 0.28553642E+03</pdfrwt>
<totfact> 0.21164907E+04</totfact>
</mgrwt>
</event>
<event>
 5    0  0.1200001E+000  0.2970846E+03  0.7546771E-02  0.1086707E+00
         21   -1    0    0  502  501  0.00000000000E+00  0.00000000000E+00  0.42328457499E+03  0.42328457499E+03  0.00000000000E+00 0.  1.
         21   -1    0    0  503  502 -0.00000000000E+00 -0.00000000000E+00 -0.73831039441E+03  0.73831039441E+03  0.00000000000E+00 0.  1.
         25    1    1    2    0    0 -0.95826165616E+02 -0.23753821600E+03 -0.52861973129E+03  0.60055880510E+03  0.12500000000E+03 0.  0.
         21    1    1    2  503  504 -0.99952900081E+02 -0.91334941824E+02  0.43585717655E+02  0.14224053085E+03  0.00000000000E+00 0.  1.
         21    1    1    2  504  501  0.19577906570E+03  0.32887315783E+03  0.17000819421E+03  0.41879563346E+03  0.00000000000E+00 0.  1.
<mgrwt>
<rscale>  4 0.29708462E+03</rscale>
<asrwt>0</asrwt>
<pdfrwt beam="1">  1       21 0.65120703E-01 0.29708462E+03</pdfrwt>
<pdfrwt beam="2">  1       21 0.11358622E+00 0.29708462E+03</pdfrwt>
<totfact> 0.12066580E+03</totfact>
</mgrwt>
</event>
<event>
 5    0  0.1200001E+000  0.2389915E+03  0.7546771E-02  0.1120466E+00
         21   -1    0    0  502  501  0.00000000000E+00  0.00000000000E+00  0.91046194578E+02  0.91046194578E+02  0.00000000000E+00 0. -1.
         21   -1    0    0  504  502 -0.00000000000E+00 -0.00000000000E+00 -0.65465131566E+03  0.65465131566E+03  0.00000000000E+00 0. -1.
         25    1    1    2    0    0  0.76864972405E+01 -0.20355061932E+03 -0.43490980988E+03  0.49624941269E+03  0.12500000000E+03 0.  0.
         21    1    1    2  503  501 -0.44758054319E+01  0.14202787311E+03 -0.12235325696E+03  0.18751605015E+03  0.00000000000E+00 0. -1.
         21    1    1    2  504  503 -0.32106918086E+01  0.61522746212E+02 -0.63420542421E+01  0.61932047402E+02  0.00000000000E+00 0. -1.
<mgrwt>
<rscale>  4 0.23899150E+03</rscale>
<asrwt>0</asrwt>
<pdfrwt beam="1">  1       21 0.14007106E-01 0.23899150E+03</pdfrwt>
<pdfrwt beam="2">  1       21 0.10071559E+00 0.23899150E+03</pdfrwt>
<totfact> 0.35006397E+04</totfact>
</mgrwt>
</event>
<event>
 5    0  0.1200001E+000  0.2484055E+03  0.7546771E-02  0.1114317E+00
         21   -1    0    0  503  501  0.00000000000E+00  0.00000000000E+00  0.10697388716E+03  0.10697388716E+03  0.00000000000E+00 0. -1.
         21   -1    0    0  504  502 -0.00000000000E+00 -0.00000000000E+00 -0.67691636850E+03  0.67691636850E+03  0.00000000000E+00 0. -1.
         25    1    1    2    0    0 -0.71336035343E+02 -0.20528019247E+03 -0.13099429859E+03  0.28286621153E+03  0.12500000000E+03 0.  0.
         21    1    1    2  503  502  0.42751641503E+02  0.20592235536E+03 -0.40715821299E+03  0.45826796713E+03  0.00000000000E+00 0. -1.
         21    1    1    2  504  501  0.28584393840E+02 -0.64216289008E+00 -0.31789969755E+02  0.42756077012E+02  0.00000000000E+00 0. -1.
<mgrwt>
<rscale>  4 0.24840552E+03</rscale>
<asrwt>0</asrwt>
<pdfrwt beam="1">  1       21 0.16457521E-01 0.24840552E+03</pdfrwt>
<pdfrwt beam="2">  1       21 0.10414098E+00 0.24840552E+03</pdfrwt>
<totfact> 0.23929048E+04</totfact>
</mgrwt>
</event>
<event>
 5    0  0.1200001E+000  0.3234351E+03  0.7546771E-02  0.1074079E+00
         21   -1    0    0  503  501  0.00000000000E+00  0.00000000000E+00  0.75737519927E+03  0.75737519927E+03  0.00000000000E+00 0. -1.
         21   -1    0    0  501  502 -0.00000000000E+00 -0.00000000000E+00 -0.24017331804E+04  0.24017331804E+04  0.00000000000E+00 0.  1.
         25    1    1    2    0    0  0.28429654421E+03 -0.92125298888E+02 -0.23558407622E+04  0.23780080514E+04  0.12500000000E+03 0.  0.
         21    1    1    2  503  504 -0.32038428614E+02 -0.86749332917E+01  0.19229777961E+03  0.19514136266E+03  0.00000000000E+00 0. -1.
         21    1    1    2  504  502 -0.25225811560E+03  0.10080023218E+03  0.51918500143E+03  0.58595896563E+03  0.00000000000E+00 0. -1.
<mgrwt>
<rscale>  4 0.32343506E+03</rscale>
<asrwt>0</asrwt>
<pdfrwt beam="1">  1       21 0.11651926E+00 0.32343506E+03</pdfrwt>
<pdfrwt beam="2">  1       21 0.36949741E+00 0.32343506E+03</pdfrwt>
<totfact> 0.61527993E+00</totfact>
</mgrwt>
</event>
<event>
 5    0  0.1200001E+000  0.2218137E+03  0.7546771E-02  0.1132538E+00
         21   -1    0    0  503  501  0.00000000000E+00  0.00000000000E+00  0.14081768075E+04  0.14081768075E+04  0.00000000000E+00 0. -1.
         21   -1    0    0  501  502 -0.00000000000E+00 -0.00000000000E+00 -0.10067574831E+04  0.10067574831E+04  0.00000000000E+00 0. -1.
         25    1    1    2    0    0 -0.57852260188E+02  0.20709819358E+03 -0.44924511077E+02  0.25274445095E+03  0.12500000000E+03 0.  0.
         21    1    1    2  503  504 -0.33698781287E+02 -0.51064026230E+02  0.12939989659E+04  0.12954445053E+04  0.00000000000E+00 0. -1.
         21    1    1    2  504  502  0.91551041474E+02 -0.15603416735E+03 -0.84765513039E+03  0.86674533437E+03  0.00000000000E+00 0. -1.
<mgrwt>
<rscale>  4 0.22181366E+03</rscale>
<asrwt>0</asrwt>
<pdfrwt beam="1">  1       21 0.21664259E+00 0.22181366E+03</pdfrwt>
<pdfrwt beam="2">  1       21 0.15488577E+00 0.22181366E+03</pdfrwt>
<totfact> 0.27658473E+01</totfact>
</mgrwt>
</event>
<event>
 5    0  0.1200001E+000  0.2579072E+03  0.7546771E-02  0.1108407E+00
         21   -1    0    0  502  501  0.00000000000E+00  0.00000000000E+00  0.99035969091E+02  0.99035969091E+02  0.00000000000E+00 0. -1.
         21   -1    0    0  503  502 -0.00000000000E+00 -0.00000000000E+00 -0.78962787537E+03  0.78962787537E+03  0.00000000000E+00 0. -1.
         25    1    1    2    0    0  0.21758505648E+03  0.89544345835E+02 -0.50844425585E+03  0.57402265459E+03  0.12500000000E+03 0.  0.
         21    1    1    2  503  504 -0.19961977490E+03 -0.71084697713E+02 -0.19306716236E+03  0.28666359720E+03  0.00000000000E+00 0. -1.
         21    1    1    2  504  501 -0.17965281578E+02 -0.18459648122E+02  0.10919511929E+02  0.27977592672E+02  0.00000000000E+00 0.  1.
<mgrwt>
<rscale>  4 0.25790725E+03</rscale>
<asrwt>0</asrwt>
<pdfrwt beam="1">  1       21 0.15236303E-01 0.25790725E+03</pdfrwt>
<pdfrwt beam="2">  1       21 0.12148121E+00 0.25790725E+03</pdfrwt>
<totfact> 0.18808726E+04</totfact>
</mgrwt>
</event>
<event>
 5    0  0.1200001E+000  0.3333173E+03  0.7546771E-02  0.1069678E+00
         21   -1    0    0  503  501  0.00000000000E+00  0.00000000000E+00  0.10497564243E+04  0.10497564243E+04  0.00000000000E+00 0. -1.
         21   -1    0    0  504  502 -0.00000000000E+00 -0.00000000000E+00 -0.27719393754E+03  0.27719393754E+03  0.00000000000E+00 0. -1.
         25    1    1    2    0    0  0.30824589177E+03  0.18730801823E+02 -0.12527472358E+03  0.35592854494E+03  0.12500000000E+03 0.  0.
         21    1    1    2  503  502 -0.30793522037E+03 -0.41585863080E+02  0.63253543565E+03  0.70473722855E+03  0.00000000000E+00 0. -1.
         21    1    1    2  504  501 -0.31067140406E+00  0.22855061257E+02  0.26530177473E+03  0.26628458840E+03  0.00000000000E+00 0. -1.
<mgrwt>
<rscale>  4 0.33331735E+03</rscale>
<asrwt>0</asrwt>
<pdfrwt beam="1">  1       21 0.16150099E+00 0.33331735E+03</pdfrwt>
<pdfrwt beam="2">  1       21 0.42645222E-01 0.33331735E+03</pdfrwt>
<totfact> 0.11622077E+03</totfact>
</mgrwt>
</event>
<event>
 5    0  0.1200001E+000  0.6142468E+03  0.7546771E-02  0.9876281E-01
         21   -1    0    0  502  501  0.00000000000E+00  0.00000000000E+00  0.60806247448E+03  0.60806247448E+03  0.00000000000E+00 0.  1.
         21   -1    0    0  503  502 -0.00000000000E+00 -0.00000000000E+00 -0.86135549902E+03  0.86135549902E+03  0.00000000000E+00 0. -1.
         25    1    1    2    0    0 -0.16947477948E+03  0.52761985510E+03 -0.26233098936E+03  0.62573713359E+03  0.12500000000E+03 0.  0.
         21    1    1    2  503  504 -0.62229093670E+02  0.11118698904E+03  0.94725070345E+02  0.15876978800E+03  0.00000000000E+00 0. -1.
         21    1    1    2  504  501  0.23170387315E+03 -0.63880684414E+03 -0.85687105525E+02  0.68491105190E+03  0.00000000000E+00 0.  1.
<mgrwt>
<rscale>  4 0.61424684E+03</rscale>
<asrwt>0</asrwt>
<pdfrwt beam="1">  1       21 0.93548073E-01 0.61424684E+03</pdfrwt>
<pdfrwt beam="2">  1       21 0.13251623E+00 0.61424684E+03</pdfrwt>
<totfact> 0.30607073E+02</totfact>
</mgrwt>
</event>
<event>
 5    0  0.1200001E+000  0.2557003E+03  0.7546771E-02  0.1109754E+00
         21   -1    0    0  503  501  0.00000000000E+00  0.00000000000E+00  0.23772366311E+03  0.23772366311E+03  0.00000000000E+00 0. -1.
         21   -1    0    0  504  502 -0.00000000000E+00 -0.00000000000E+00 -0.34076733233E+03  0.34076733233E+03  0.00000000000E+00 0. -1.
         25    1    1    2    0    0  0.13076909682E+03 -0.17883945928E+03 -0.17828034223E+03  0.31063320703E+03  0.12500000000E+03 0.  0.
         21    1    1    2  503  502 -0.15240276990E+03  0.16839234996E+03  0.49114251339E+02  0.23236780647E+03  0.00000000000E+00 0. -1.
         21    1    1    2  504  501  0.21633673078E+02  0.10447109326E+02  0.26122421678E+02  0.35489981945E+02  0.00000000000E+00 0. -1.
<mgrwt>
<rscale>  4 0.25570026E+03</rscale>
<asrwt>0</asrwt>
<pdfrwt beam="1">  1       21 0.36572871E-01 0.25570026E+03</pdfrwt>
<pdfrwt beam="2">  1       21 0.52425743E-01 0.25570026E+03</pdfrwt>
<totfact> 0.24080900E+04</totfact>
</mgrwt>
</event>
<event>
 5    0  0.1200001E+000  0.4081122E+03  0.7546771E-02  0.1041006E+00
         21   -1    0    0  503  501  0.00000000000E+00  0.00000000000E+00  0.20452349368E+03  0.20452349368E+03  0.00000000000E+00 0. -1.
         21   -1    0    0  501  502 -0.00000000000E+00 -0.00000000000E+00 -0.13031705280E+04  0.13031705280E+04  0.00000000000E+00 0. -1.
         25    1    1    2    0    0 -0.33282660724E+03 -0.18318603345E+03 -0.72169386799E+03  0.82510466756E+03  0.12500000000E+03 0.  0.
         21    1    1    2  503  504  0.30829441147E+02 -0.93584048762E+02  0.32157227530E+02  0.10364610898E+03  0.00000000000E+00 0.  1.
         21    1    1    2  504  502  0.30199716609E+03  0.27677008221E+03 -0.40911039387E+03  0.57894324515E+03  0.00000000000E+00 0. -1.
<mgrwt>
<rscale>  4 0.40811225E+03</rscale>
<asrwt>0</asrwt>
<pdfrwt beam="1">  1       21 0.31465152E-01 0.40811225E+03</pdfrwt>
<pdfrwt beam="2">  1       21 0.20048778E+00 0.40811225E+03</pdfrwt>
<totfact> 0.11032093E+03</totfact>
</mgrwt>
</event>
<event>
 5    0  0.1200001E+000  0.2832559E+03  0.7546771E-02  0.1093924E+00
         21   -1    0    0  503  501  0.00000000000E+00  0.00000000000E+00  0.31750676729E+03  0.31750676729E+03  0.00000000000E+00 0.  1.
         21   -1    0    0  504  502 -0.00000000000E+00 -0.00000000000E+00 -0.40973568226E+03  0.40973568226E+03  0.00000000000E+00 0.  1.
         25    1    1    2    0    0  0.83762343510E+01  0.25180828047E+03 -0.27087632149E+03  0.39048246179E+03  0.12500000000E+03 0.  0.
         21    1    1    2  503  502 -0.26686666177E+02 -0.26196377419E+03  0.15665873984E+03  0.30639705924E+03  0.00000000000E+00 0.  1.
         21    1    1    2  504  501  0.18310431826E+02  0.10155493717E+02  0.21988666679E+02  0.30362928525E+02  0.00000000000E+00 0. -1.
<mgrwt>
<rscale>  4 0.28325587E+03</rscale>
<asrwt>0</asrwt>
<pdfrwt beam="1">  1       21 0.48847195E-01 0.28325587E+03</pdfrwt>
<pdfrwt beam="2">  1       21 0.63036259E-01 0.28325587E+03</pdfrwt>
<totfact> 0.88294797E+03</totfact>
</mgrwt>
</event>
<event>
 5    0  0.1200001E+000  0.3903223E+03  0.7546771E-02  0.1047183E+00
         21   -1    0    0  503  501  0.00000000000E+00  0.00000000000E+00  0.21347146202E+04  0.21347146202E+04  0.00000000000E+00 0.  1.
         21   -1    0    0  504  502 -0.00000000000E+00 -0.00000000000E+00 -0.25407103132E+03  0.25407103132E+03  0.00000000000E+00 0. -1.
         25    1    1    2    0    0  0.22544201505E+03 -0.31541281466E+03  0.15488591682E+02  0.40764475009E+03  0.12500000000E+03 0.  0.
         21    1    1    2  503  502 -0.21062139981E+03  0.25415939122E+03  0.41801902599E+03  0.53263334133E+03  0.00000000000E+00 0. -1.
         21    1    1    2  504  501 -0.14820615235E+02  0.61253423442E+02  0.14471359712E+04  0.14485075601E+04  0.00000000000E+00 0.  1.
<mgrwt>
<rscale>  4 0.39032233E+03</rscale>
<asrwt>0</asrwt>
<pdfrwt beam="1">  1       21 0.32841762E+00 0.39032233E+03</pdfrwt>
<pdfrwt beam="2">  1       21 0.39087852E-01 0.39032233E+03</pdfrwt>
<totfact> 0.11828787E+02</totfact>
</mgrwt>
</event>
<event>
 5    0  0.1200001E+000  0.2256253E+03  0.7546771E-02  0.1129757E+00
         21   -1    0    0  502  501  0.00000000000E+00  0.00000000000E+00  0.38323307472E+03  0.38323307472E+03  0.00000000000E+00 0.  1.
         21   -1    0    0  503  502 -0.00000000000E+00 -0.00000000000E+00 -0.19406859782E+03  0.19406859782E+03  0.00000000000E+00 0.  1.
         25    1    1    2    0    0  0.16616642941E+03 -0.13727960864E+03 -0.34668073888E+02  0.25156281235E+03  0.12500000000E+03 0.  0.
         21    1    1    2  503  504 -0.15043335334E+02  0.36335898407E+02  0.25727917177E+01  0.39410895806E+02  0.00000000000E+00 0.  1.
         21    1    1    2  504  501 -0.15112309407E+03  0.10094371024E+03  0.22125975908E+03  0.28632796438E+03  0.00000000000E+00 0.  1.
<mgrwt>
<rscale>  4 0.22562533E+03</rscale>
<asrwt>0</asrwt>
<pdfrwt beam="1">  1       21 0.58958934E-01 0.22562533E+03</pdfrwt>
<pdfrwt beam="2">  1       21 0.29856707E-01 0.22562533E+03</pdfrwt>
<totfact> 0.28430268E+04</totfact>
</mgrwt>
</event>
<event>
 5    0  0.1200001E+000  0.4169972E+03  0.7546771E-02  0.1038048E+00
         21   -1    0    0  503  501  0.00000000000E+00  0.00000000000E+00  0.93356175745E+03  0.93356175745E+03  0.00000000000E+00 0.  1.
         21   -1    0    0  504  502 -0.00000000000E+00 -0.00000000000E+00 -0.55276719530E+03  0.55276719530E+03  0.00000000000E+00 0.  1.
         25    1    1    2    0    0  0.34303134723E+03  0.19629835376E+03 -0.29939821964E+03  0.51133926389E+03  0.12500000000E+03 0.  0.
         21    1    1    2  503  502 -0.39491945226E+03 -0.11983866658E+03  0.15361168323E+03  0.44036261082E+03  0.00000000000E+00 0.  1.
         21    1    1    2  504  501  0.51888105039E+02 -0.76459687175E+02  0.52658109857E+03  0.53462707804E+03  0.00000000000E+00 0.  1.
<mgrwt>
<rscale>  4 0.41699722E+03</rscale>
<asrwt>0</asrwt>
<pdfrwt beam="1">  1       21 0.14362489E+00 0.41699722E+03</pdfrwt>
<pdfrwt beam="2">  1       21 0.85041107E-01 0.41699722E+03</pdfrwt>
<totfact> 0.33677967E+02</totfact>
</mgrwt>
</event>
<event>
 5    0  0.1200001E+000  0.2172028E+03  0.7546771E-02  0.1135986E+00
         21   -1    0    0  503  501  0.00000000000E+00  0.00000000000E+00  0.19825648477E+03  0.19825648477E+03  0.00000000000E+00 0. -1.
         21   -1    0    0  504  502 -0.00000000000E+00 -0.00000000000E+00 -0.77520138358E+03  0.77520138358E+03  0.00000000000E+00 0. -1.
         25    1    1    2    0    0  0.61693530685E+02 -0.21697291165E+03 -0.47299154820E+03  0.53872937621E+03  0.12500000000E+03 0.  0.
         21    1    1    2  503  502  0.33482422952E+02  0.14897210701E+03 -0.22141514064E+03  0.26895803728E+03  0.00000000000E+00 0. -1.
         21    1    1    2  504  501 -0.95175953637E+02  0.68000804647E+02  0.11746179004E+03  0.16577045486E+03  0.00000000000E+00 0. -1.
<mgrwt>
<rscale>  4 0.21720282E+03</rscale>
<asrwt>0</asrwt>
<pdfrwt beam="1">  1       21 0.30500998E-01 0.21720282E+03</pdfrwt>
<pdfrwt beam="2">  1       21 0.11926175E+00 0.21720282E+03</pdfrwt>
<totfact> 0.54286467E+03</totfact>
</mgrwt>
</event>
<event>
 5    0  0.1200001E+000  0.3637459E+03  0.7546771E-02  0.1057110E+00
         21   -1    0    0  502  501  0.00000000000E+00  0.00000000000E+00  0.47389096672E+03  0.47389096672E+03  0.00000000000E+00 0. -1.
         21   -1    0    0  504  502 -0.00000000000E+00 -0.00000000000E+00 -0.33811229982E+03  0.33811229982E+03  0.00000000000E+00 0.  1.
         25    1    1    2    0    0  0.33015451650E+03  0.30609549059E+02 -0.98566847252E+02  0.36780344294E+03  0.12500000000E+03 0.  0.
         21    1    1    2  503  501 -0.34566179397E+03 -0.84107251579E+01  0.23328014150E+03  0.41710003659E+03  0.00000000000E+00 0. -1.
         21    1    1    2  504  503  0.15507277464E+02 -0.22198823901E+02  0.10653726443E+01  0.27099787007E+02  0.00000000000E+00 0.  1.
<mgrwt>
<rscale>  4 0.36374595E+03</rscale>
<asrwt>0</asrwt>
<pdfrwt beam="1">  1       21 0.72906303E-01 0.36374595E+03</pdfrwt>
<pdfrwt beam="2">  1       21 0.52017277E-01 0.36374595E+03</pdfrwt>
<totfact> 0.53988024E+03</totfact>
</mgrwt>
</event>
<event>
 5    0  0.1200001E+000  0.4349536E+03  0.7546771E-02  0.1032307E+00
         21   -1    0    0  503  501  0.00000000000E+00  0.00000000000E+00  0.34019645502E+03  0.34019645502E+03  0.00000000000E+00 0. -1.
         21   -1    0    0  501  502 -0.00000000000E+00 -0.00000000000E+00 -0.18538361367E+04  0.18538361367E+04  0.00000000000E+00 0. -1.
         25    1    1    2    0    0 -0.37406545305E+03 -0.22559260206E+03 -0.89241200909E+03  0.10014195820E+04  0.12500000000E+03 0.  0.
         21    1    1    2  503  504  0.52042778896E+02 -0.13318206386E+02  0.23823576056E+03  0.24421732753E+03  0.00000000000E+00 0. -1.
         21    1    1    2  504  502  0.32202267416E+03  0.23891080845E+03 -0.85946343309E+03  0.94839568213E+03  0.00000000000E+00 0. -1.
<mgrwt>
<rscale>  4 0.43495356E+03</rscale>
<asrwt>0</asrwt>
<pdfrwt beam="1">  1       21 0.52337916E-01 0.43495356E+03</pdfrwt>
<pdfrwt beam="2">  1       21 0.28520556E+00 0.43495356E+03</pdfrwt>
<totfact> 0.11301255E+02</totfact>
</mgrwt>
</event>
<event>
 5    0  0.1200001E+000  0.2523342E+03  0.7546771E-02  0.1111839E+00
         21   -1    0    0  503  501  0.00000000000E+00  0.00000000000E+00  0.18275084528E+04  0.18275084528E+04  0.00000000000E+00 0.  1.
         21   -1    0    0  504  502 -0.00000000000E+00 -0.00000000000E+00 -0.52730231055E+03  0.52730231055E+03  0.00000000000E+00 0. -1.
         25    1    1    2    0    0 -0.22196686152E+03  0.35157266736E+02 -0.40849051445E+03  0.48269537124E+03  0.12500000000E+03 0.  0.
         21    1    1    2  503  502  0.20526228678E+03  0.39770976336E+02  0.54403310588E+02  0.21604179488E+03  0.00000000000E+00 0. -1.
         21    1    1    2  504  501  0.16704574738E+02 -0.74928243072E+02  0.16542933461E+04  0.16560735972E+04  0.00000000000E+00 0.  1.
<mgrwt>
<rscale>  4 0.25233415E+03</rscale>
<asrwt>0</asrwt>
<pdfrwt beam="1">  1       21 0.28115514E+00 0.25233415E+03</pdfrwt>
<pdfrwt beam="2">  1       21 0.81123433E-01 0.25233415E+03</pdfrwt>
<totfact> 0.53496614E+01</totfact>
</mgrwt>
</event>
<event>
 5    0  0.1200001E+000  0.5730336E+03  0.7546771E-02  0.9962988E-01
         21   -1    0    0  503  501  0.00000000000E+00  0.00000000000E+00  0.91041749575E+03  0.91041749575E+03  0.00000000000E+00 0.  1.
         21   -1    0    0  501  502 -0.00000000000E+00 -0.00000000000E+00 -0.84663563761E+03  0.84663563761E+03  0.00000000000E+00 0. -1.
         25    1    1    2    0    0  0.27750532161E+03  0.37854502825E+03  0.13990256176E+03  0.50547331158E+03  0.12500000000E+03 0.  0.
         21    1    1    2  503  504  0.10414881891E+03  0.81178535780E+02  0.44164005851E+03  0.46095864504E+03  0.00000000000E+00 0.  1.
         21    1    1    2  504  502 -0.38165414051E+03 -0.45972356403E+03 -0.51776076214E+03  0.79062117674E+03  0.00000000000E+00 0. -1.
<mgrwt>
<rscale>  4 0.57303355E+03</rscale>
<asrwt>0</asrwt>
<pdfrwt beam="1">  1       21 0.14006423E+00 0.57303355E+03</pdfrwt>
<pdfrwt beam="2">  1       21 0.13025164E+00 0.57303355E+03</pdfrwt>
<totfact> 0.11702492E+02</totfact>
</mgrwt>
</event>
<event>
 5    0  0.1200001E+000  0.5145640E+03  0.7546771E-02  0.1010046E+00
         21   -1    0    0  503  501  0.00000000000E+00  0.00000000000E+00  0.20736774666E+03  0.20736774666E+03  0.00000000000E+00 0.  1.
         21   -1    0    0  504  502 -0.00000000000E+00 -0.00000000000E+00 -0.28423547014E+04  0.28423547014E+04  0.00000000000E+00 0. -1.
         25    1    1    2    0    0  0.41376107494E+03 -0.26168576384E+03 -0.21898429369E+04  0.22473795305E+04  0.12500000000E+03 0.  0.
         21    1    1    2  503  502 -0.50913695601E+03  0.21153403446E+03 -0.41613138294E+03  0.69074772209E+03  0.00000000000E+00 0.  1.
         21    1    1    2  504  501  0.95375881063E+02  0.50151729389E+02 -0.29012634874E+02  0.11159519538E+03  0.00000000000E+00 0.  1.
<mgrwt>
<rscale>  4 0.51456398E+03</rscale>
<asrwt>0</asrwt>
<pdfrwt beam="1">  1       21 0.31902732E-01 0.51456398E+03</pdfrwt>
<pdfrwt beam="2">  1       21 0.43728531E+00 0.51456398E+03</pdfrwt>
<totfact> 0.33460091E+01</totfact>
</mgrwt>
</event>
<event>
 5    0  0.1200001E+000  0.3153462E+03  0.7546771E-02  0.1077811E+00
         21   -1    0    0  502  501  0.00000000000E+00  0.00000000000E+00  0.43158338784E+03  0.43158338784E+03  0.00000000000E+00 0. -1.
         21   -1    0    0  503  502 -0.00000000000E+00 -0.00000000000E+00 -0.78189201575E+03  0.78189201575E+03  0.00000000000E+00 0. -1.
         25    1    1    2    0    0  0.93360247363E+02 -0.27404760613E+03 -0.69259693092E+03  0.76100836719E+03  0.12500000000E+03 0.  0.
         21    1    1    2  503  504 -0.29373706180E+01  0.19828621239E+02  0.52365474350E+01  0.20717716945E+02  0.00000000000E+00 0. -1.
         21    1    1    2  504  501 -0.90422876745E+02  0.25421898489E+03  0.33705175557E+03  0.43174931946E+03  0.00000000000E+00 0. -1.
<mgrwt>
<rscale>  4 0.31534620E+03</rscale>
<asrwt>0</asrwt>
<pdfrwt beam="1">  1       21 0.66397445E-01 0.31534620E+03</pdfrwt>
<pdfrwt beam="2">  1       21 0.12029108E+00 0.31534620E+03</pdfrwt>
<totfact> 0.99092752E+02</totfact>
</mgrwt>
</event>
<event>
 5    0  0.1200001E+000  0.2613100E+03  0.7546771E-02  0.1106359E+00
         21   -1    0    0  503  501  0.00000000000E+00  0.00000000000E+00  0.51520002465E+03  0.51520002465E+03  0.00000000000E+00 0.  1.
         21   -1    0    0  501  502 -0.00000000000E+00 -0.00000000000E+00 -0.23148341035E+03  0.23148341035E+03  0.00000000000E+00 0.  1.
         25    1    1    2    0    0 -0.48622169413E+02 -0.22967174831E+03 -0.79754533267E+02  0.27766709007E+03  0.12500000000E+03 0.  0.
         21    1    1    2  503  504 -0.17074514457E+01  0.22932749200E+03  0.34723341921E+03  0.41613106276E+03  0.00000000000E+00 0.  1.
         21    1    1    2  504  502  0.50329620859E+02  0.34425630980E+00  0.16237728361E+02  0.52885282173E+02  0.00000000000E+00 0.  1.
<mgrwt>
<rscale>  4 0.26131000E+03</rscale>
<asrwt>0</asrwt>
<pdfrwt beam="1">  1       21 0.79261542E-01 0.26131000E+03</pdfrwt>
<pdfrwt beam="2">  1       21 0.35612833E-01 0.26131000E+03</pdfrwt>
<totfact> 0.10239780E+04</totfact>
</mgrwt>
</event>
<event>
 5    0  0.1200001E+000  0.2623284E+03  0.7546771E-02  0.1105752E+00
         21   -1    0    0  503  501  0.00000000000E+00  0.00000000000E+00  0.17315871858E+03  0.17315871858E+03  0.00000000000E+00 0. -1.
         21   -1    0    0  501  502 -0.00000000000E+00 -0.00000000000E+00 -0.10087185724E+04  0.10087185724E+04  0.00000000000E+00 0. -1.
         25    1    1    2    0    0  0.21690794180E+03  0.63188047782E+02 -0.83807869646E+03  0.87695078884E+03  0.12500000000E+03 0.  0.
         21    1    1    2  503  504  0.39818481687E+02 -0.10575376766E+02  0.11289344577E+02  0.42717670566E+02  0.00000000000E+00 0.  1.
         21    1    1    2  504  502 -0.25672642348E+03 -0.52612671016E+02 -0.87705019619E+01  0.26220883160E+03  0.00000000000E+00 0. -1.
<mgrwt>
<rscale>  4 0.26232841E+03</rscale>
<asrwt>0</asrwt>
<pdfrwt beam="1">  1       21 0.26639803E-01 0.26232841E+03</pdfrwt>
<pdfrwt beam="2">  1       21 0.15518747E+00 0.26232841E+03</pdfrwt>
<totfact> 0.34698521E+03</totfact>
</mgrwt>
</event>
<event>
 5    0  0.1200001E+000  0.2265180E+03  0.7546771E-02  0.1129115E+00
         21   -1    0    0  503  501  0.00000000000E+00  0.00000000000E+00  0.19024509678E+04  0.19024509678E+04  0.00000000000E+00 0.  1.
         21   -1    0    0  504  502 -0.00000000000E+00 -0.00000000000E+00 -0.81966275973E+03  0.81966275973E+03  0.00000000000E+00 0.  1.
         25    1    1    2    0    0 -0.73296036725E+02 -0.22323423924E+03 -0.17038055767E+03  0.31600691290E+03  0.12500000000E+03 0.  0.
         21    1    1    2  503  502  0.12489003549E+03  0.41650637731E+02 -0.56399882028E+03  0.57916057002E+03  0.00000000000E+00 0.  1.
         21    1    1    2  504  501 -0.51593998761E+02  0.18158360151E+03  0.18171675860E+04  0.18269462446E+04  0.00000000000E+00 0.  1.
<mgrwt>
<rscale>  4 0.22651800E+03</rscale>
<asrwt>0</asrwt>
<pdfrwt beam="1">  1       21 0.29268476E+00 0.22651800E+03</pdfrwt>
<pdfrwt beam="2">  1       21 0.12610196E+00 0.22651800E+03</pdfrwt>
<totfact> 0.16536418E+01</totfact>
</mgrwt>
</event>
<event>
 5    0  0.1200001E+000  0.2546807E+03  0.7546771E-02  0.1110382E+00
         21   -1    0    0  503  501  0.00000000000E+00  0.00000000000E+00  0.30574293642E+03  0.30574293642E+03  0.00000000000E+00 0. -1.
         21   -1    0    0  504  502 -0.00000000000E+00 -0.00000000000E+00 -0.21566172632E+03  0.21566172632E+03  0.00000000000E+00 0. -1.
         25    1    1    2    0    0 -0.22000381613E+03  0.20016217187E+02 -0.11519363775E+01  0.25382800283E+03  0.12500000000E+03 0.  0.
         21    1    1    2  503  502  0.21978123500E+03 -0.40954450489E+02  0.62710728966E+02  0.23219322514E+03  0.00000000000E+00 0. -1.
         21    1    1    2  504  501  0.22258113268E+00  0.20938233301E+02  0.28522417506E+02  0.35383434776E+02  0.00000000000E+00 0. -1.
<mgrwt>
<rscale>  4 0.25468074E+03</rscale>
<asrwt>0</asrwt>
<pdfrwt beam="1">  1       21 0.47037375E-01 0.25468074E+03</pdfrwt>
<pdfrwt beam="2">  1       21 0.33178727E-01 0.25468074E+03</pdfrwt>
<totfact> 0.36740692E+04</totfact>
</mgrwt>
</event>
<event>
 5    0  0.1200001E+000  0.5479819E+03  0.7546771E-02  0.1001962E+00
         21   -1    0    0  503  501  0.00000000000E+00  0.00000000000E+00  0.83583477521E+03  0.83583477521E+03  0.00000000000E+00 0. -1.
         21   -1    0    0  504  502 -0.00000000000E+00 -0.00000000000E+00 -0.55139417464E+03  0.55139417464E+03  0.00000000000E+00 0. -1.
         25    1    1    2    0    0 -0.20170132814E+02  0.52858693690E+03 -0.24699193760E+03  0.59702680121E+03  0.12500000000E+03 0.  0.
         21    1    1    2  503  502  0.10945719356E+02 -0.54888836934E+03  0.46280797494E+03  0.71804559217E+03  0.00000000000E+00 0. -1.
         21    1    1    2  504  501  0.92244134583E+01  0.20301432438E+02  0.68624563225E+02  0.72156556463E+02  0.00000000000E+00 0. -1.
<mgrwt>
<rscale>  4 0.54798191E+03</rscale>
<asrwt>0</asrwt>
<pdfrwt beam="1">  1       21 0.12858997E+00 0.54798191E+03</pdfrwt>
<pdfrwt beam="2">  1       21 0.84829873E-01 0.54798191E+03</pdfrwt>
<totfact> 0.42796436E+02</totfact>
</mgrwt>
</event>
<event>
 5    0  0.1200001E+000  0.1998548E+03  0.7546771E-02  0.1149862E+00
         21   -1    0    0  503  501  0.00000000000E+00  0.00000000000E+00  0.81076870731E+03  0.81076870731E+03  0.00000000000E+00 0. -1.
         21   -1    0    0  501  502 -0.00000000000E+00 -0.00000000000E+00 -0.28032971308E+03  0.28032971308E+03  0.00000000000E+00 0. -1.
         25    1    1    2    0    0  0.21258130747E+03  0.32268208753E+02  0.23701698655E+03  0.34356091381E+03  0.12500000000E+03 0.  0.
         21    1    1    2  503  504 -0.10001727559E+03  0.72165612130E+02  0.48590451931E+03  0.50131280941E+03  0.00000000000E+00 0. -1.
         21    1    1    2  504  502 -0.11256403189E+03 -0.10443382088E+03 -0.19248251162E+03  0.24622469718E+03  0.00000000000E+00 0. -1.
<mgrwt>
<rscale>  4 0.19985477E+03</rscale>
<asrwt>0</asrwt>
<pdfrwt beam="1">  1       21 0.12473365E+00 0.19985477E+03</pdfrwt>
<pdfrwt beam="2">  1       21 0.43127648E-01 0.19985477E+03</pdfrwt>
<totfact> 0.24631391E+03</totfact>
</mgrwt>
</event>
<event>
 5    0  0.1200001E+000  0.2641038E+03  0.7546771E-02  0.1104702E+00
         21   -1    0    0  503  501  0.00000000000E+00  0.00000000000E+00  0.85222102423E+03  0.85222102423E+03  0.00000000000E+00 0. -1.
         21   -1    0    0  504  502 -0.00000000000E+00 -0.00000000000E+00 -0.12766885988E+03  0.12766885988E+03  0.00000000000E+00 0. -1.
         25    1    1    2    0    0 -0.16274767444E+03  0.16551420229E+03  0.56877918512E+03  0.62691029512E+03  0.12500000000E+03 0.  0.
         21    1    1    2  503  502  0.11258216862E+03 -0.20584883077E+03  0.68277799404E+02  0.24435700054E+03  0.00000000000E+00 0. -1.
         21    1    1    2  504  501  0.50165505820E+02  0.40334628488E+02  0.87495179828E+02  0.10862258845E+03  0.00000000000E+00 0.  1.
<mgrwt>
<rscale>  4 0.26410384E+03</rscale>
<asrwt>0</asrwt>
<pdfrwt beam="1">  1       21 0.13111092E+00 0.26410384E+03</pdfrwt>
<pdfrwt beam="2">  1       21 0.19641364E-01 0.26410384E+03</pdfrwt>
<totfact> 0.96448876E+03</totfact>
</mgrwt>
</event>
<event>
 5    0  0.1238849E+000  0.3389361E+03  0.7546771E-02  0.1067250E+00
         21   -1    0    0  502  501  0.00000000000E+00  0.00000000000E+00  0.79743926020E+03  0.79743926020E+03  0.00000000000E+00 0.  1.
         21   -1    0    0  503  502 -0.00000000000E+00 -0.00000000000E+00 -0.15898140565E+03  0.15898140565E+03  0.00000000000E+00 0.  1.
         25    1    1    2    0    0  0.29000036189E+03 -0.43798955837E+02  0.34019360384E+03  0.46623518370E+03  0.12500000000E+03 0.  0.
         21    1    1    2  503  504  0.42634085844E+02  0.29225054452E+02  0.67777758684E+02  0.85238451744E+02  0.00000000000E+00 0. -1.
         21    1    1    2  504  501 -0.33263444774E+03  0.14573901384E+02  0.23048649203E+03  0.40494703040E+03  0.00000000000E+00 0.  1.
<mgrwt>
<rscale>  4 0.33893608E+03</rscale>
<asrwt>0</asrwt>
<pdfrwt beam="1">  1       21 0.12268296E+00 0.33893608E+03</pdfrwt>
<pdfrwt beam="2">  1       21 0.24458678E-01 0.33893608E+03</pdfrwt>
<totfact> 0.72517240E+03</totfact>
</mgrwt>
</event>
<event>
 5    0  0.1200001E+000  0.2624390E+03  0.7546771E-02  0.1105687E+00
         21   -1    0    0  503  501  0.00000000000E+00  0.00000000000E+00  0.96292935513E+03  0.96292935513E+03  0.00000000000E+00 0.  1.
         21   -1    0    0  501  502 -0.00000000000E+00 -0.00000000000E+00 -0.17122829480E+03  0.17122829480E+03  0.00000000000E+00 0.  1.
         25    1    1    2    0    0 -0.86322696756E+02  0.23763070465E+03  0.78909263960E+02  0.29286794244E+03  0.12500000000E+03 0.  0.
         21    1    1    2  503  504 -0.11110153438E+03 -0.20221877885E+03  0.48942394710E+03  0.54108389872E+03  0.00000000000E+00 0.  1.
         21    1    1    2  504  502  0.19742423114E+03 -0.35411925805E+02  0.22336784928E+03  0.30020580877E+03  0.00000000000E+00 0.  1.
<mgrwt>
<rscale>  4 0.26243899E+03</rscale>
<asrwt>0</asrwt>
<pdfrwt beam="1">  1       21 0.14814297E+00 0.26243899E+03</pdfrwt>
<pdfrwt beam="2">  1       21 0.26342815E-01 0.26243899E+03</pdfrwt>
<totfact> 0.40142767E+03</totfact>
</mgrwt>
</event>
<event>
 5    0  0.1200001E+000  0.2253198E+03  0.7546771E-02  0.1129978E+00
         21   -1    0    0  503  501  0.00000000000E+00  0.00000000000E+00  0.28927180029E+04  0.28927180029E+04  0.00000000000E+00 0.  1.
         21   -1    0    0  504  502 -0.00000000000E+00 -0.00000000000E+00 -0.69069063911E+02  0.69069063911E+02  0.00000000000E+00 0.  1.
         25    1    1    2    0    0 -0.13131248001E+03 -0.16633380131E+03  0.15753644448E+04  0.15944616756E+04  0.12500000000E+03 0.  0.
         21    1    1    2  503  502  0.16333349687E+03  0.90178742870E+02  0.91875250088E+02  0.20796898433E+03  0.00000000000E+00 0.  1.
         21    1    1    2  504  501 -0.32021016856E+02  0.76155058443E+02  0.11564092440E+04  0.11593564069E+04  0.00000000000E+00 0.  1.
<mgrwt>
<rscale>  4 0.22531982E+03</rscale>
<asrwt>0</asrwt>
<pdfrwt beam="1">  1       21 0.44503344E+00 0.22531982E+03</pdfrwt>
<pdfrwt beam="2">  1       21 0.10626012E-01 0.22531982E+03</pdfrwt>
<totfact> 0.31031726E+02</totfact>
</mgrwt>
</event>
<event>
 5    0  0.1200001E+000  0.2311396E+03  0.7546771E-02  0.1125840E+00
         21   -1    0    0  503  501  0.00000000000E+00  0.00000000000E+00  0.23130012876E+03  0.23130012876E+03  0.00000000000E+00 0. -1.
         21   -1    0    0  501  502 -0.00000000000E+00 -0.00000000000E+00 -0.54403822458E+03  0.54403822458E+03  0.00000000000E+00 0. -1.
         25    1    1    2    0    0  0.19791066670E+03  0.13204681403E+03 -0.27641368684E+02  0.27017408897E+03  0.12500000000E+03 0.  0.
         21    1    1    2  503  504 -0.92987285790E+02  0.24741407541E+02  0.58909198718E+02  0.11282316367E+03  0.00000000000E+00 0. -1.
         21    1    1    2  504  502 -0.10492338091E+03 -0.15678822157E+03 -0.34400592585E+03  0.39234110070E+03  0.00000000000E+00 0. -1.
<mgrwt>
<rscale>  4 0.23113955E+03</rscale>
<asrwt>0</asrwt>
<pdfrwt beam="1">  1       21 0.35584636E-01 0.23113955E+03</pdfrwt>
<pdfrwt beam="2">  1       21 0.83698186E-01 0.23113955E+03</pdfrwt>
<totfact> 0.92120716E+03</totfact>
</mgrwt>
</event>
<event>
 5    0  0.1200001E+000  0.2587563E+03  0.7546771E-02  0.1107893E+00
         21   -1    0    0  502  501  0.00000000000E+00  0.00000000000E+00  0.26390754760E+03  0.26390754760E+03  0.00000000000E+00 0.  1.
         21   -1    0    0  503  502 -0.00000000000E+00 -0.00000000000E+00 -0.52278296093E+03  0.52278296093E+03  0.00000000000E+00 0.  1.
         25    1    1    2    0    0  0.21470796736E+03 -0.60247371037E+02 -0.40295512291E+03  0.47720759428E+03  0.12500000000E+03 0.  0.
         21    1    1    2  503  504  0.25746844460E+02  0.41975682862E+01  0.66930709679E+01  0.26931705815E+02  0.00000000000E+00 0.  1.
         21    1    1    2  504  501 -0.24045481182E+03  0.56049802751E+02  0.13738663861E+03  0.28255120843E+03  0.00000000000E+00 0.  1.
<mgrwt>
<rscale>  4 0.25875628E+03</rscale>
<asrwt>0</asrwt>
<pdfrwt beam="1">  1       21 0.40601161E-01 0.25875628E+03</pdfrwt>
<pdfrwt beam="2">  1       21 0.80428148E-01 0.25875628E+03</pdfrwt>
<totfact> 0.76101829E+03</totfact>
</mgrwt>
</event>
<event>
 5    0  0.1200001E+000  0.2231184E+03  0.7546771E-02  0.1131579E+00
         21   -1    0    0  503  501  0.00000000000E+00  0.00000000000E+00  0.75597076631E+03  0.75597076631E+03  0.00000000000E+00 0.  1.
         21   -1    0    0  501  502 -0.00000000000E+00 -0.00000000000E+00 -0.17604481870E+03  0.17604481870E+03  0.00000000000E+00 0.  1.
         25    1    1    2    0    0  0.13727983220E+03  0.17927907626E+03 -0.12539762846E+02  0.25839695270E+03  0.12500000000E+03 0.  0.
         21    1    1    2  503  504 -0.14810302469E+03 -0.10485289533E+03  0.56520656363E+03  0.59362201370E+03  0.00000000000E+00 0.  1.
         21    1    1    2  504  502  0.10823192487E+02 -0.74426180933E+02  0.27259146825E+02  0.79996618613E+02  0.00000000000E+00 0.  1.
<mgrwt>
<rscale>  4 0.22311838E+03</rscale>
<asrwt>0</asrwt>
<pdfrwt beam="1">  1       21 0.11630319E+00 0.22311838E+03</pdfrwt>
<pdfrwt beam="2">  1       21 0.27083819E-01 0.22311838E+03</pdfrwt>
<totfact> 0.72474424E+03</totfact>
</mgrwt>
</event>
<event>
 5    0  0.1200001E+000  0.2541342E+03  0.7546771E-02  0.1110720E+00
         21   -1    0    0  503  501  0.00000000000E+00  0.00000000000E+00  0.24781443509E+03  0.24781443509E+03  0.00000000000E+00 0.  1.
         21   -1    0    0  504  502 -0.00000000000E+00 -0.00000000000E+00 -0.84880756585E+03  0.84880756585E+03  0.00000000000E+00 0.  1.
         25    1    1    2    0    0  0.17582234887E+03  0.15385403532E+03 -0.72604622330E+03  0.77288594302E+03  0.12500000000E+03 0.  0.
         21    1    1    2  503  502 -0.10783643899E+03 -0.14171269703E+03 -0.31618779071E+01  0.17810441754E+03  0.00000000000E+00 0.  1.
         21    1    1    2  504  501 -0.67985909876E+02 -0.12141338291E+02  0.12821497045E+03  0.14563164039E+03  0.00000000000E+00 0.  1.
<mgrwt>
<rscale>  4 0.25413424E+03</rscale>
<asrwt>0</asrwt>
<pdfrwt beam="1">  1       21 0.38125298E-01 0.25413424E+03</pdfrwt>
<pdfrwt beam="2">  1       21 0.13058578E+00 0.25413424E+03</pdfrwt>
<totfact> 0.27000732E+03</totfact>
</mgrwt>
</event>
<event>
 5    0  0.1200001E+000  0.2998463E+03  0.7546771E-02  0.1085317E+00
         21   -1    0    0  503  501  0.00000000000E+00  0.00000000000E+00  0.38194037018E+03  0.38194037018E+03  0.00000000000E+00 0.  1.
         21   -1    0    0  501  502 -0.00000000000E+00 -0.00000000000E+00 -0.32879136200E+03  0.32879136200E+03  0.00000000000E+00 0.  1.
         25    1    1    2    0    0 -0.20852603855E+03 -0.18298069170E+03 -0.52778404822E+02  0.30882940647E+03  0.12500000000E+03 0.  0.
         21    1    1    2  503  504 -0.18469427993E+02  0.38027458272E+02  0.12494402620E+03  0.13190230110E+03  0.00000000000E+00 0.  1.
         21    1    1    2  504  502  0.22699546654E+03  0.14495323343E+03 -0.19016613193E+02  0.27000002461E+03  0.00000000000E+00 0.  1.
<mgrwt>
<rscale>  4 0.29984635E+03</rscale>
<asrwt>0</asrwt>
<pdfrwt beam="1">  1       21 0.58760057E-01 0.29984635E+03</pdfrwt>
<pdfrwt beam="2">  1       21 0.50583287E-01 0.29984635E+03</pdfrwt>
<totfact> 0.94838018E+03</totfact>
</mgrwt>
</event>
<event>
 5    0  0.1200001E+000  0.2384864E+03  0.7546771E-02  0.1120805E+00
         21   -1    0    0  503  501  0.00000000000E+00  0.00000000000E+00  0.16510324872E+03  0.16510324872E+03  0.00000000000E+00 0.  1.
         21   -1    0    0  504  502 -0.00000000000E+00 -0.00000000000E+00 -0.37938241081E+03  0.37938241081E+03  0.00000000000E+00 0.  1.
         25    1    1    2    0    0 -0.19246280888E+03 -0.64875491558E+02 -0.23169505172E+03  0.33250317171E+03  0.12500000000E+03 0.  0.
         21    1    1    2  503  502  0.17061196779E+03  0.41769793967E+02 -0.15292786630E+00  0.17565074047E+03  0.00000000000E+00 0.  1.
         21    1    1    2  504  501  0.21850841091E+02  0.23105697591E+02  0.17568817501E+02  0.36331747357E+02  0.00000000000E+00 0.  1.
<mgrwt>
<rscale>  4 0.23848640E+03</rscale>
<asrwt>0</asrwt>
<pdfrwt beam="1">  1       21 0.25400500E-01 0.23848640E+03</pdfrwt>
<pdfrwt beam="2">  1       21 0.58366524E-01 0.23848640E+03</pdfrwt>
<totfact> 0.39507327E+04</totfact>
</mgrwt>
</event>
<event>
 5    0  0.1200001E+000  0.2255066E+03  0.7546771E-02  0.1129843E+00
         21   -1    0    0  503  501  0.00000000000E+00  0.00000000000E+00  0.10448240024E+04  0.10448240024E+04  0.00000000000E+00 0.  1.
         21   -1    0    0  501  502 -0.00000000000E+00 -0.00000000000E+00 -0.21561181518E+03  0.21561181518E+03  0.00000000000E+00 0.  1.
         25    1    1    2    0    0 -0.18018260254E+03 -0.15563422551E+03 -0.59896183894E+02  0.27550015472E+03  0.12500000000E+03 0.  0.
         21    1    1    2  503  504  0.18682723707E+03  0.13064823557E+02  0.78819432348E+03  0.81013912243E+03  0.00000000000E+00 0.  1.
         21    1    1    2  504  502 -0.66446345280E+01  0.14256940195E+03  0.10091404765E+03  0.17479654045E+03  0.00000000000E+00 0.  1.
<mgrwt>
<rscale>  4 0.22550661E+03</rscale>
<asrwt>0</asrwt>
<pdfrwt beam="1">  1       21 0.16074215E+00 0.22550661E+03</pdfrwt>
<pdfrwt beam="2">  1       21 0.33171049E-01 0.22550661E+03</pdfrwt>
<totfact> 0.21108354E+03</totfact>
</mgrwt>
</event>
<event>
 5    0  0.1200001E+000  0.3086831E+03  0.7546771E-02  0.1080979E+00
         21   -1    0    0  502  501  0.00000000000E+00  0.00000000000E+00  0.25783220940E+03  0.25783220940E+03  0.00000000000E+00 0.  1.
         21   -1    0    0  503  502 -0.00000000000E+00 -0.00000000000E+00 -0.94886577170E+03  0.94886577170E+03  0.00000000000E+00 0.  1.
         25    1    1    2    0    0  0.21377750509E+03  0.17836658498E+03 -0.78343731674E+03  0.84078207021E+03  0.12500000000E+03 0.  0.
         21    1    1    2  503  504  0.92011426665E+01  0.38748117857E+02 -0.42013481824E+01  0.40046585253E+02  0.00000000000E+00 0.  1.
         21    1    1    2  504  501 -0.22297864776E+03 -0.21711470284E+03  0.96605102625E+02  0.32586932565E+03  0.00000000000E+00 0.  1.
<mgrwt>
<rscale>  4 0.30868314E+03</rscale>
<asrwt>0</asrwt>
<pdfrwt beam="1">  1       21 0.39666493E-01 0.30868314E+03</pdfrwt>
<pdfrwt beam="2">  1       21 0.14597935E+00 0.30868314E+03</pdfrwt>
<totfact> 0.17995012E+03</totfact>
</mgrwt>
</event>
<event>
 5    0  0.1200001E+000  0.4039793E+03  0.7546771E-02  0.1042410E+00
         21   -1    0    0  502  501  0.00000000000E+00  0.00000000000E+00  0.13001704757E+04  0.13001704757E+04  0.00000000000E+00 0. -1.
         21   -1    0    0  504  502 -0.00000000000E+00 -0.00000000000E+00 -0.82052188044E+03  0.82052188044E+03  0.00000000000E+00 0.  1.
         25    1    1    2    0    0  0.28631190152E+03  0.25055853103E+03 -0.66738042164E+03  0.77831594460E+03  0.12500000000E+03 0.  0.
         21    1    1    2  503  501 -0.43187725999E+03 -0.20114822687E+03  0.10681830539E+04  0.11696125912E+04  0.00000000000E+00 0. -1.
         21    1    1    2  504  503  0.14556535847E+03 -0.49410304156E+02  0.78845963052E+02  0.17276382039E+03  0.00000000000E+00 0. -1.
<mgrwt>
<rscale>  4 0.40397934E+03</rscale>
<asrwt>0</asrwt>
<pdfrwt beam="1">  1       21 0.20002623E+00 0.40397934E+03</pdfrwt>
<pdfrwt beam="2">  1       21 0.12623414E+00 0.40397934E+03</pdfrwt>
<totfact> 0.50339068E+01</totfact>
</mgrwt>
</event>
<event>
 5    0  0.1200001E+000  0.3501568E+03  0.7546771E-02  0.1062551E+00
         21   -1    0    0  503  501  0.00000000000E+00  0.00000000000E+00  0.82155699025E+03  0.82155699025E+03  0.00000000000E+00 0.  1.
         21   -1    0    0  501  502 -0.00000000000E+00 -0.00000000000E+00 -0.47489691224E+03  0.47489691224E+03  0.00000000000E+00 0. -1.
         25    1    1    2    0    0  0.69570589375E+02 -0.24414529320E+03  0.16992209036E+03  0.33006894414E+03  0.12500000000E+03 0.  0.
         21    1    1    2  503  504  0.12127185431E+03 -0.53607191611E+02  0.48156401790E+03  0.49948423096E+03  0.00000000000E+00 0.  1.
         21    1    1    2  504  502 -0.19084244369E+03  0.29775248481E+03 -0.30482603024E+03  0.46690072739E+03  0.00000000000E+00 0. -1.
<mgrwt>
<rscale>  4 0.35015679E+03</rscale>
<asrwt>0</asrwt>
<pdfrwt beam="1">  1       21 0.12639338E+00 0.35015679E+03</pdfrwt>
<pdfrwt beam="2">  1       21 0.73061064E-01 0.35015679E+03</pdfrwt>
<totfact> 0.69122347E+02</totfact>
</mgrwt>
</event>
<event>
 5    0  0.1200001E+000  0.2756334E+03  0.7546771E-02  0.1098098E+00
         21   -1    0    0  503  501  0.00000000000E+00  0.00000000000E+00  0.54599557258E+03  0.54599557258E+03  0.00000000000E+00 0. -1.
         21   -1    0    0  504  502 -0.00000000000E+00 -0.00000000000E+00 -0.42423534302E+03  0.42423534302E+03  0.00000000000E+00 0. -1.
         25    1    1    2    0    0  0.13294802250E+03 -0.17244817367E+03  0.29212420634E+02  0.25276850043E+03  0.12500000000E+03 0.  0.
         21    1    1    2  503  502 -0.13654971099E+03  0.21701579330E+03 -0.25819750492E+03  0.36387859192E+03  0.00000000000E+00 0. -1.
         21    1    1    2  504  501  0.36016884907E+01 -0.44567619628E+02  0.35074531384E+03  0.35358382325E+03  0.00000000000E+00 0. -1.
<mgrwt>
<rscale>  4 0.27563342E+03</rscale>
<asrwt>0</asrwt>
<pdfrwt beam="1">  1       21 0.83999319E-01 0.27563342E+03</pdfrwt>
<pdfrwt beam="2">  1       21 0.65266976E-01 0.27563342E+03</pdfrwt>
<totfact> 0.25003875E+03</totfact>
</mgrwt>
</event>
<event>
 5    0  0.1200001E+000  0.3315413E+03  0.7546771E-02  0.1070457E+00
         21   -1    0    0  503  501  0.00000000000E+00  0.00000000000E+00  0.30939040661E+03  0.30939040661E+03  0.00000000000E+00 0. -1.
         21   -1    0    0  504  502 -0.00000000000E+00 -0.00000000000E+00 -0.48470230622E+03  0.48470230622E+03  0.00000000000E+00 0. -1.
         25    1    1    2    0    0  0.27471055255E+03  0.13790190272E+03 -0.44918213716E+02  0.33485141239E+03  0.12500000000E+03 0.  0.
         21    1    1    2  503  502 -0.26299473029E+03 -0.15883755730E+03 -0.21258856046E+03  0.37361677399E+03  0.00000000000E+00 0. -1.
         21    1    1    2  504  501 -0.11715822256E+02  0.20935654581E+02  0.82194874566E+02  0.85624526444E+02  0.00000000000E+00 0.  1.
<mgrwt>
<rscale>  4 0.33154126E+03</rscale>
<asrwt>0</asrwt>
<pdfrwt beam="1">  1       21 0.47598524E-01 0.33154126E+03</pdfrwt>
<pdfrwt beam="2">  1       21 0.74569585E-01 0.33154126E+03</pdfrwt>
<totfact> 0.62740877E+03</totfact>
</mgrwt>
</event>
<event>
 5    0  0.1200001E+000  0.2499945E+03  0.7546771E-02  0.1113308E+00
         21   -1    0    0  503  501  0.00000000000E+00  0.00000000000E+00  0.19800189151E+04  0.19800189151E+04  0.00000000000E+00 0. -1.
         21   -1    0    0  501  502 -0.00000000000E+00 -0.00000000000E+00 -0.88960819373E+02  0.88960819373E+02  0.00000000000E+00 0.  1.
         25    1    1    2    0    0  0.94380771653E+02 -0.18911848915E+03  0.17446218980E+03  0.30122348625E+03  0.12500000000E+03 0.  0.
         21    1    1    2  503  504  0.51010937261E+02  0.87113350043E+01  0.12053015048E+04  0.12064119199E+04  0.00000000000E+00 0. -1.
         21    1    1    2  504  502 -0.14539170891E+03  0.18040715415E+03  0.51129440118E+03  0.56134432835E+03  0.00000000000E+00 0.  1.
<mgrwt>
<rscale>  4 0.24999452E+03</rscale>
<asrwt>0</asrwt>
<pdfrwt beam="1">  1       21 0.30461826E+00 0.24999452E+03</pdfrwt>
<pdfrwt beam="2">  1       21 0.13686281E-01 0.24999452E+03</pdfrwt>
<totfact> 0.13915347E+03</totfact>
</mgrwt>
</event>
<event>
 5    0  0.1200001E+000  0.2885157E+03  0.7546771E-02  0.1091127E+00
         21   -1    0    0  503  501  0.00000000000E+00  0.00000000000E+00  0.23820593429E+04  0.23820593429E+04  0.00000000000E+00 0.  1.
         21   -1    0    0  504  502 -0.00000000000E+00 -0.00000000000E+00 -0.16985364553E+03  0.16985364553E+03  0.00000000000E+00 0.  1.
         25    1    1    2    0    0 -0.15272630882E+03  0.24558063201E+03  0.28573001975E+03  0.42532554168E+03  0.12500000000E+03 0.  0.
         21    1    1    2  503  502  0.14492150369E+03 -0.20078765918E+03  0.53852980882E+02  0.25341284471E+03  0.00000000000E+00 0.  1.
         21    1    1    2  504  501  0.78048051321E+01 -0.44792972824E+02  0.18726226968E+04  0.18731746021E+04  0.00000000000E+00 0.  1.
<mgrwt>
<rscale>  4 0.28851570E+03</rscale>
<asrwt>0</asrwt>
<pdfrwt beam="1">  1       21 0.36647064E+00 0.28851570E+03</pdfrwt>
<pdfrwt beam="2">  1       21 0.26131332E-01 0.28851570E+03</pdfrwt>
<totfact> 0.17028673E+02</totfact>
</mgrwt>
</event>
<event>
 5    0  0.1200001E+000  0.2052974E+03  0.7546771E-02  0.1145345E+00
         21   -1    0    0  503  501  0.00000000000E+00  0.00000000000E+00  0.12779251373E+04  0.12779251373E+04  0.00000000000E+00 0.  1.
         21   -1    0    0  504  502 -0.00000000000E+00 -0.00000000000E+00 -0.34720135058E+03  0.34720135058E+03  0.00000000000E+00 0.  1.
         25    1    1    2    0    0  0.22209277421E+03 -0.18998862054E+03  0.83949858682E+03  0.89766572485E+03  0.12500000000E+03 0.  0.
         21    1    1    2  503  502 -0.15001070311E+03  0.55994566491E+02 -0.28206985313E+03  0.32434858497E+03  0.00000000000E+00 0.  1.
         21    1    1    2  504  501 -0.72082071097E+02  0.13399405405E+03  0.37329505298E+03  0.40311217803E+03  0.00000000000E+00 0.  1.
<mgrwt>
<rscale>  4 0.20529742E+03</rscale>
<asrwt>0</asrwt>
<pdfrwt beam="1">  1       21 0.19660386E+00 0.20529742E+03</pdfrwt>
<pdfrwt beam="2">  1       21 0.53415593E-01 0.20529742E+03</pdfrwt>
<totfact> 0.46147134E+02</totfact>
</mgrwt>
</event>
<event>
 5    0  0.1200001E+000  0.2297712E+03  0.7546771E-02  0.1126801E+00
         21   -1    0    0  503  501  0.00000000000E+00  0.00000000000E+00  0.13308894807E+03  0.13308894807E+03  0.00000000000E+00 0.  1.
         21   -1    0    0  501  502 -0.00000000000E+00 -0.00000000000E+00 -0.66780142178E+03  0.66780142178E+03  0.00000000000E+00 0.  1.
         25    1    1    2    0    0 -0.27436086906E+01  0.20056519696E+03 -0.44211178780E+03  0.50132001609E+03  0.12500000000E+03 0.  0.
         21    1    1    2  503  504  0.76582190595E+01 -0.18918557180E+02  0.59309900417E+02  0.62723396053E+02  0.00000000000E+00 0.  1.
         21    1    1    2  504  502 -0.49146103689E+01 -0.18164663978E+03 -0.15191058632E+03  0.23684695770E+03  0.00000000000E+00 0.  1.
<mgrwt>
<rscale>  4 0.22977119E+03</rscale>
<asrwt>0</asrwt>
<pdfrwt beam="1">  1       21 0.20475223E-01 0.22977119E+03</pdfrwt>
<pdfrwt beam="2">  1       21 0.10273868E+00 0.22977119E+03</pdfrwt>
<totfact> 0.16621982E+04</totfact>
</mgrwt>
</event>
<event>
 5    0  0.1200001E+000  0.2435819E+03  0.7546771E-02  0.1117429E+00
         21   -1    0    0  502  501  0.00000000000E+00  0.00000000000E+00  0.51359305978E+02  0.51359305978E+02  0.00000000000E+00 0.  1.
         21   -1    0    0  504  502 -0.00000000000E+00 -0.00000000000E+00 -0.19450356439E+04  0.19450356439E+04  0.00000000000E+00 0.  1.
         25    1    1    2    0    0 -0.20507685400E+03  0.86865809775E+02 -0.54952805769E+03  0.60597712098E+03  0.12500000000E+03 0.  0.
         21    1    1    2  503  501  0.19759748019E+03 -0.56887507064E+02 -0.13438794924E+04  0.13595194161E+04  0.00000000000E+00 0.  1.
         21    1    1    2  504  503  0.74793738152E+01 -0.29978302711E+02 -0.26878781043E+00  0.30898412791E+02  0.00000000000E+00 0.  1.
<mgrwt>
<rscale>  4 0.24358189E+03</rscale>
<asrwt>0</asrwt>
<pdfrwt beam="1">  1       21 0.79014309E-02 0.24358189E+03</pdfrwt>
<pdfrwt beam="2">  1       21 0.29923628E+00 0.24358189E+03</pdfrwt>
<totfact> 0.40061059E+03</totfact>
</mgrwt>
</event>
<event>
 5    0  0.1200001E+000  0.3914523E+03  0.7546771E-02  0.1046780E+00
         21   -1    0    0  503  501  0.00000000000E+00  0.00000000000E+00  0.58971548048E+03  0.58971548048E+03  0.00000000000E+00 0. -1.
         21   -1    0    0  501  502 -0.00000000000E+00 -0.00000000000E+00 -0.37612290378E+03  0.37612290378E+03  0.00000000000E+00 0. -1.
         25    1    1    2    0    0 -0.36302447181E+03  0.12732528728E+02 -0.14230477845E+03  0.40966392859E+03  0.12500000000E+03 0.  0.
         21    1    1    2  503  504 -0.31468980271E+02  0.46746768418E+01  0.35453043188E+02  0.47634730966E+02  0.00000000000E+00 0.  1.
         21    1    1    2  504  502  0.39449345208E+03 -0.17407205570E+02  0.32044431196E+03  0.50853972471E+03  0.00000000000E+00 0. -1.
<mgrwt>
<rscale>  4 0.39145233E+03</rscale>
<asrwt>0</asrwt>
<pdfrwt beam="1">  1       21 0.90725458E-01 0.39145233E+03</pdfrwt>
<pdfrwt beam="2">  1       21 0.57865062E-01 0.39145233E+03</pdfrwt>
<totfact> 0.25618214E+03</totfact>
</mgrwt>
</event>
<event>
 5    0  0.1200001E+000  0.3639734E+03  0.7546771E-02  0.1057022E+00
         21   -1    0    0  503  501  0.00000000000E+00  0.00000000000E+00  0.24586281647E+03  0.24586281647E+03  0.00000000000E+00 0.  1.
         21   -1    0    0  504  502 -0.00000000000E+00 -0.00000000000E+00 -0.80263020328E+03  0.80263020328E+03  0.00000000000E+00 0.  1.
         25    1    1    2    0    0  0.14739788014E+03 -0.30632549906E+03 -0.40753496289E+03  0.54522581782E+03  0.12500000000E+03 0.  0.
         21    1    1    2  503  502 -0.60217161536E+02  0.34764439195E+03 -0.18741622156E+03  0.39950916123E+03  0.00000000000E+00 0.  1.
         21    1    1    2  504  501 -0.87180718604E+02 -0.41318892895E+02  0.38183797646E+02  0.10375804070E+03  0.00000000000E+00 0.  1.
<mgrwt>
<rscale>  4 0.36397338E+03</rscale>
<asrwt>0</asrwt>
<pdfrwt beam="1">  1       21 0.37825049E-01 0.36397338E+03</pdfrwt>
<pdfrwt beam="2">  1       21 0.12348157E+00 0.36397338E+03</pdfrwt>
<totfact> 0.29749576E+03</totfact>
</mgrwt>
</event>
<event>
 5    0  0.1200001E+000  0.2640780E+03  0.7546771E-02  0.1104718E+00
         21   -1    0    0  502  501  0.00000000000E+00  0.00000000000E+00  0.16760040122E+03  0.16760040122E+03  0.00000000000E+00 0.  1.
         21   -1    0    0  504  502 -0.00000000000E+00 -0.00000000000E+00 -0.58878568944E+03  0.58878568944E+03  0.00000000000E+00 0.  1.
         25    1    1    2    0    0 -0.57648571950E+02 -0.22536376754E+03 -0.43276266728E+03  0.50697210155E+03  0.12500000000E+03 0.  0.
         21    1    1    2  503  501  0.15724546645E+02  0.19799462294E+03  0.31516213470E+01  0.19864305877E+03  0.00000000000E+00 0.  1.
         21    1    1    2  504  503  0.41924025305E+02  0.27369144593E+02  0.84257577136E+01  0.50770930330E+02  0.00000000000E+00 0.  1.
<mgrwt>
<rscale>  4 0.26407799E+03</rscale>
<asrwt>0</asrwt>
<pdfrwt beam="1">  1       21 0.25784677E-01 0.26407799E+03</pdfrwt>
<pdfrwt beam="2">  1       21 0.90582413E-01 0.26407799E+03</pdfrwt>
<totfact> 0.14180501E+04</totfact>
</mgrwt>
</event>
<event>
 5    0  0.1200001E+000  0.2491256E+03  0.7546771E-02  0.1113859E+00
         21   -1    0    0  503  501  0.00000000000E+00  0.00000000000E+00  0.67376423960E+03  0.67376423960E+03  0.00000000000E+00 0.  1.
         21   -1    0    0  501  502 -0.00000000000E+00 -0.00000000000E+00 -0.12194522860E+03  0.12194522860E+03  0.00000000000E+00 0.  1.
         25    1    1    2    0    0 -0.17331577200E+03  0.12177131139E+03  0.26047606544E+03  0.35824487403E+03  0.12500000000E+03 0.  0.
         21    1    1    2  503  504 -0.51401965794E+02 -0.83493997657E+02  0.96799530211E+02  0.13778083605E+03  0.00000000000E+00 0.  1.
         21    1    1    2  504  502  0.22471773780E+03 -0.38277313735E+02  0.19454341535E+03  0.29968375812E+03  0.00000000000E+00 0.  1.
<mgrwt>
<rscale>  4 0.24912556E+03</rscale>
<asrwt>0</asrwt>
<pdfrwt beam="1">  1       21 0.10365603E+00 0.24912556E+03</pdfrwt>
<pdfrwt beam="2">  1       21 0.18760805E-01 0.24912556E+03</pdfrwt>
<totfact> 0.18970464E+04</totfact>
</mgrwt>
</event>
<event>
 5    0  0.1200001E+000  0.4497137E+03  0.7546771E-02  0.1027807E+00
         21   -1    0    0  503  501  0.00000000000E+00  0.00000000000E+00  0.68765957234E+03  0.68765957234E+03  0.00000000000E+00 0.  1.
         21   -1    0    0  501  502 -0.00000000000E+00 -0.00000000000E+00 -0.65182623136E+03  0.65182623136E+03  0.00000000000E+00 0.  1.
         25    1    1    2    0    0 -0.25536766498E+03  0.34713729700E+03 -0.42096053898E+03  0.61526394553E+03  0.12500000000E+03 0.  0.
         21    1    1    2  503  504 -0.19246504775E+02 -0.82305147275E+01  0.23304428953E+03  0.23398249977E+03  0.00000000000E+00 0.  1.
         21    1    1    2  504  502  0.27461416975E+03 -0.33890678228E+03  0.22374959043E+03  0.49023935839E+03  0.00000000000E+00 0.  1.
<mgrwt>
<rscale>  4 0.44971371E+03</rscale>
<asrwt>0</asrwt>
<pdfrwt beam="1">  1       21 0.10579378E+00 0.44971371E+03</pdfrwt>
<pdfrwt beam="2">  1       21 0.10028096E+00 0.44971371E+03</pdfrwt>
<totfact> 0.48942141E+02</totfact>
</mgrwt>
</event>
<event>
 5    0  0.1200001E+000  0.4201391E+03  0.7546771E-02  0.1037021E+00
         21   -1    0    0  503  501  0.00000000000E+00  0.00000000000E+00  0.13134796872E+03  0.13134796872E+03  0.00000000000E+00 0. -1.
         21   -1    0    0  501  502 -0.00000000000E+00 -0.00000000000E+00 -0.18159923547E+04  0.18159923547E+04  0.00000000000E+00 0. -1.
         25    1    1    2    0    0  0.20461500644E+03 -0.34844069477E+03 -0.92694497024E+03  0.10188867437E+04  0.12500000000E+03 0.  0.
         21    1    1    2  503  504  0.51657081924E+02  0.40412240126E+02  0.61619251952E+01  0.65875432347E+02  0.00000000000E+00 0. -1.
         21    1    1    2  504  502 -0.25627208836E+03  0.30802845465E+03 -0.76386134095E+03  0.86257814739E+03  0.00000000000E+00 0. -1.
<mgrwt>
<rscale>  4 0.42013911E+03</rscale>
<asrwt>0</asrwt>
<pdfrwt beam="1">  1       21 0.20207381E-01 0.42013911E+03</pdfrwt>
<pdfrwt beam="2">  1       21 0.27938342E+00 0.42013911E+03</pdfrwt>
<totfact> 0.83666225E+02</totfact>
</mgrwt>
</event>
<event>
 5    0  0.1200001E+000  0.3242132E+03  0.7546771E-02  0.1073726E+00
         21   -1    0    0  503  501  0.00000000000E+00  0.00000000000E+00  0.31354513054E+03  0.31354513054E+03  0.00000000000E+00 0.  1.
         21   -1    0    0  504  502 -0.00000000000E+00 -0.00000000000E+00 -0.18557706845E+04  0.18557706845E+04  0.00000000000E+00 0. -1.
         25    1    1    2    0    0  0.29678834813E+03 -0.21748270823E+01 -0.17143078819E+04  0.17442948625E+04  0.12500000000E+03 0.  0.
         21    1    1    2  503  502 -0.33911125446E+03 -0.20355729504E+02  0.14062813879E+03  0.36767794609E+03  0.00000000000E+00 0.  1.
         21    1    1    2  504  501  0.42322906327E+02  0.22530556587E+02  0.31454189099E+02  0.57343006479E+02  0.00000000000E+00 0. -1.
<mgrwt>
<rscale>  4 0.32421321E+03</rscale>
<asrwt>0</asrwt>
<pdfrwt beam="1">  1       21 0.48237712E-01 0.32421321E+03</pdfrwt>
<pdfrwt beam="2">  1       21 0.28550318E+00 0.32421321E+03</pdfrwt>
<totfact> 0.14555911E+02</totfact>
</mgrwt>
</event>
<event>
 5    0  0.1200001E+000  0.2649831E+03  0.7546771E-02  0.1104186E+00
         21   -1    0    0  503  501  0.00000000000E+00  0.00000000000E+00  0.55666062888E+03  0.55666062888E+03  0.00000000000E+00 0.  1.
         21   -1    0    0  504  502 -0.00000000000E+00 -0.00000000000E+00 -0.27005427102E+03  0.27005427102E+03  0.00000000000E+00 0. -1.
         25    1    1    2    0    0 -0.22424413673E+03 -0.74469982306E+02  0.32130622214E+03  0.41796399307E+03  0.12500000000E+03 0.  0.
         21    1    1    2  503  502  0.22821128531E+03  0.48975915988E+02 -0.15859981744E+03  0.28219307784E+03  0.00000000000E+00 0. -1.
         21    1    1    2  504  501 -0.39671485871E+01  0.25494066318E+02  0.12389995315E+03  0.12655782898E+03  0.00000000000E+00 0.  1.
<mgrwt>
<rscale>  4 0.26498306E+03</rscale>
<asrwt>0</asrwt>
<pdfrwt beam="1">  1       21 0.85640097E-01 0.26498306E+03</pdfrwt>
<pdfrwt beam="2">  1       21 0.41546811E-01 0.26498306E+03</pdfrwt>
<totfact> 0.62638210E+03</totfact>
</mgrwt>
</event>
<event>
 5    0  0.1200001E+000  0.2625501E+03  0.7546771E-02  0.1105621E+00
         21   -1    0    0  503  501  0.00000000000E+00  0.00000000000E+00  0.14189815726E+04  0.14189815726E+04  0.00000000000E+00 0. -1.
         21   -1    0    0  504  502 -0.00000000000E+00 -0.00000000000E+00 -0.49386120259E+03  0.49386120259E+03  0.00000000000E+00 0. -1.
         25    1    1    2    0    0 -0.96118710394E+02  0.21363353014E+03 -0.33525359699E+03  0.42766583448E+03  0.12500000000E+03 0.  0.
         21    1    1    2  503  502  0.39490432923E+01 -0.23577537890E+03  0.15090438903E+02  0.23629080724E+03  0.00000000000E+00 0. -1.
         21    1    1    2  504  501  0.92169667102E+02  0.22141848768E+02  0.12452835281E+04  0.12488861335E+04  0.00000000000E+00 0. -1.
<mgrwt>
<rscale>  4 0.26255014E+03</rscale>
<asrwt>0</asrwt>
<pdfrwt beam="1">  1       21 0.21830486E+00 0.26255014E+03</pdfrwt>
<pdfrwt beam="2">  1       21 0.75978647E-01 0.26255014E+03</pdfrwt>
<totfact> 0.14620477E+02</totfact>
</mgrwt>
</event>
<event>
 5    0  0.1200001E+000  0.2616363E+03  0.7546771E-02  0.1106164E+00
         21   -1    0    0  503  501  0.00000000000E+00  0.00000000000E+00  0.27929864167E+03  0.27929864167E+03  0.00000000000E+00 0.  1.
         21   -1    0    0  504  502 -0.00000000000E+00 -0.00000000000E+00 -0.38272658226E+03  0.38272658226E+03  0.00000000000E+00 0.  1.
         25    1    1    2    0    0  0.10517028817E+03  0.17601896245E+03  0.34217175033E+02  0.24256809296E+03  0.12500000000E+03 0.  0.
         21    1    1    2  503  502 -0.13618170981E+03 -0.19679281206E+03 -0.22249038225E+03  0.32676419504E+03  0.00000000000E+00 0.  1.
         21    1    1    2  504  501  0.31011421643E+02  0.20773849612E+02  0.84845266630E+02  0.92692935921E+02  0.00000000000E+00 0.  1.
<mgrwt>
<rscale>  4 0.26163626E+03</rscale>
<asrwt>0</asrwt>
<pdfrwt beam="1">  1       21 0.42969022E-01 0.26163626E+03</pdfrwt>
<pdfrwt beam="2">  1       21 0.58881013E-01 0.26163626E+03</pdfrwt>
<totfact> 0.13505975E+04</totfact>
</mgrwt>
</event>
<event>
 5    0  0.1200001E+000  0.2694085E+03  0.7546771E-02  0.1101619E+00
         21   -1    0    0  503  501  0.00000000000E+00  0.00000000000E+00  0.26282278841E+03  0.26282278841E+03  0.00000000000E+00 0. -1.
         21   -1    0    0  501  502 -0.00000000000E+00 -0.00000000000E+00 -0.48941729208E+03  0.48941729208E+03  0.00000000000E+00 0. -1.
         25    1    1    2    0    0  0.22022660317E+03  0.98191621809E+02 -0.28469344512E+03  0.39346754508E+03  0.12500000000E+03 0.  0.
         21    1    1    2  503  504 -0.26343371544E+02  0.38353106822E+02  0.10696845773E+03  0.11664983916E+03  0.00000000000E+00 0. -1.
         21    1    1    2  504  502 -0.19388323162E+03 -0.13654472863E+03 -0.48869516283E+02  0.24212269626E+03  0.00000000000E+00 0. -1.
<mgrwt>
<rscale>  4 0.26940853E+03</rscale>
<asrwt>0</asrwt>
<pdfrwt beam="1">  1       21 0.40434275E-01 0.26940853E+03</pdfrwt>
<pdfrwt beam="2">  1       21 0.75294968E-01 0.26940853E+03</pdfrwt>
<totfact> 0.88610409E+03</totfact>
</mgrwt>
</event>
<event>
 5    0  0.1200001E+000  0.2606980E+03  0.7546771E-02  0.1106725E+00
         21   -1    0    0  502  501  0.00000000000E+00  0.00000000000E+00  0.39724253832E+03  0.39724253832E+03  0.00000000000E+00 0.  1.
         21   -1    0    0  504  502 -0.00000000000E+00 -0.00000000000E+00 -0.37974171905E+03  0.37974171905E+03  0.00000000000E+00 0.  1.
         25    1    1    2    0    0 -0.22876913898E+03  0.17660999290E+01 -0.29111155289E+03  0.39078046815E+03  0.12500000000E+03 0.  0.
         21    1    1    2  503  501  0.20609186346E+03  0.53887311237E+01  0.29092708125E+03  0.35656901325E+03  0.00000000000E+00 0.  1.
         21    1    1    2  504  503  0.22677275526E+02 -0.71548310527E+01  0.17685290904E+02  0.29634775974E+02  0.00000000000E+00 0. -1.
<mgrwt>
<rscale>  4 0.26069798E+03</rscale>
<asrwt>0</asrwt>
<pdfrwt beam="1">  1       21 0.61114236E-01 0.26069798E+03</pdfrwt>
<pdfrwt beam="2">  1       21 0.58421803E-01 0.26069798E+03</pdfrwt>
<totfact> 0.65350755E+03</totfact>
</mgrwt>
</event>
<event>
 5    0  0.1200001E+000  0.3178299E+03  0.7546771E-02  0.1076652E+00
         21   -1    0    0  503  501  0.00000000000E+00  0.00000000000E+00  0.83969678421E+02  0.83969678421E+02  0.00000000000E+00 0. -1.
         21   -1    0    0  501  502 -0.00000000000E+00 -0.00000000000E+00 -0.12893702993E+04  0.12893702993E+04  0.00000000000E+00 0. -1.
         25    1    1    2    0    0  0.23338514401E+03  0.14072747207E+03 -0.52210586600E+03  0.60207340263E+03  0.12500000000E+03 0.  0.
         21    1    1    2  503  504  0.35376367675E+02  0.12440720346E+02 -0.28577953083E+02  0.47148258875E+02  0.00000000000E+00 0.  1.
         21    1    1    2  504  502 -0.26876151168E+03 -0.15316819241E+03 -0.65471680176E+03  0.72411831619E+03  0.00000000000E+00 0. -1.
<mgrwt>
<rscale>  4 0.31782992E+03</rscale>
<asrwt>0</asrwt>
<pdfrwt beam="1">  1       21 0.12918412E-01 0.31782992E+03</pdfrwt>
<pdfrwt beam="2">  1       21 0.19836466E+00 0.31782992E+03</pdfrwt>
<totfact> 0.64815772E+03</totfact>
</mgrwt>
</event>
<event>
 5    0  0.1200001E+000  0.2482341E+03  0.7546771E-02  0.1114426E+00
         21   -1    0    0  503  501  0.00000000000E+00  0.00000000000E+00  0.15223674256E+03  0.15223674256E+03  0.00000000000E+00 0.  1.
         21   -1    0    0  501  502 -0.00000000000E+00 -0.00000000000E+00 -0.79904758494E+03  0.79904758494E+03  0.00000000000E+00 0.  1.
         25    1    1    2    0    0 -0.16931679956E+03 -0.12810154404E+03 -0.65048015841E+03  0.69557718528E+03  0.12500000000E+03 0.  0.
         21    1    1    2  503  504  0.55100296195E+01 -0.28514696100E+02  0.10709700744E+01  0.29061921770E+02  0.00000000000E+00 0.  1.
         21    1    1    2  504  502  0.16380676994E+03  0.15661624014E+03  0.25983459602E+01  0.22664522045E+03  0.00000000000E+00 0.  1.
<mgrwt>
<rscale>  4 0.24823410E+03</rscale>
<asrwt>0</asrwt>
<pdfrwt beam="1">  1       21 0.23421037E-01 0.24823410E+03</pdfrwt>
<pdfrwt beam="2">  1       21 0.12293040E+00 0.24823410E+03</pdfrwt>
<totfact> 0.82130417E+03</totfact>
</mgrwt>
</event>
<event>
 5    0  0.1200001E+000  0.3842013E+03  0.7546771E-02  0.1049392E+00
         21   -1    0    0  503  501  0.00000000000E+00  0.00000000000E+00  0.10720844769E+04  0.10720844769E+04  0.00000000000E+00 0. -1.
         21   -1    0    0  501  502 -0.00000000000E+00 -0.00000000000E+00 -0.19670530774E+03  0.19670530774E+03  0.00000000000E+00 0.  1.
         25    1    1    2    0    0 -0.38028271385E+03  0.31751643758E+02  0.59108821948E+03  0.71458616873E+03  0.12500000000E+03 0.  0.
         21    1    1    2  503  504  0.25132255044E+02  0.93188607928E+00  0.18122098902E+03  0.18295776976E+03  0.00000000000E+00 0. -1.
         21    1    1    2  504  502  0.35515045881E+03 -0.32683529838E+02  0.10306996071E+03  0.37124584619E+03  0.00000000000E+00 0.  1.
<mgrwt>
<rscale>  4 0.38420130E+03</rscale>
<asrwt>0</asrwt>
<pdfrwt beam="1">  1       21 0.16493607E+00 0.38420130E+03</pdfrwt>
<pdfrwt beam="2">  1       21 0.30262356E-01 0.38420130E+03</pdfrwt>
<totfact> 0.21344011E+03</totfact>
</mgrwt>
</event>
<event>
 5    0  0.1200001E+000  0.2571220E+03  0.7546771E-02  0.1108885E+00
         21   -1    0    0  503  501  0.00000000000E+00  0.00000000000E+00  0.48390399060E+03  0.48390399060E+03  0.00000000000E+00 0.  1.
         21   -1    0    0  501  502 -0.00000000000E+00 -0.00000000000E+00 -0.17513537033E+03  0.17513537033E+03  0.00000000000E+00 0.  1.
         25    1    1    2    0    0 -0.22704884740E+03  0.34647827145E+02 -0.31721175308E+01  0.26150853402E+03  0.12500000000E+03 0.  0.
         21    1    1    2  503  504  0.21504525202E+02  0.23615878366E+02  0.30281948895E+02  0.44013074695E+02  0.00000000000E+00 0. -1.
         21    1    1    2  504  502  0.20554432220E+03 -0.58263705511E+02  0.28165878891E+03  0.35351775222E+03  0.00000000000E+00 0.  1.
<mgrwt>
<rscale>  4 0.25712201E+03</rscale>
<asrwt>0</asrwt>
<pdfrwt beam="1">  1       21 0.74446767E-01 0.25712201E+03</pdfrwt>
<pdfrwt beam="2">  1       21 0.26943903E-01 0.25712201E+03</pdfrwt>
<totfact> 0.20484978E+04</totfact>
</mgrwt>
</event>
<event>
 5    0  0.1200001E+000  0.3047796E+03  0.7546771E-02  0.1082875E+00
         21   -1    0    0  503  501  0.00000000000E+00  0.00000000000E+00  0.74439592863E+03  0.74439592863E+03  0.00000000000E+00 0. -1.
         21   -1    0    0  501  502 -0.00000000000E+00 -0.00000000000E+00 -0.13163971360E+04  0.13163971360E+04  0.00000000000E+00 0.  1.
         25    1    1    2    0    0  0.11269586306E+03  0.25462191712E+03 -0.12575991567E+04  0.12941071505E+04  0.12500000000E+03 0.  0.
         21    1    1    2  503  504 -0.47242128404E+02  0.66141082581E+01  0.25036795154E+03  0.25487188210E+03  0.00000000000E+00 0. -1.
         21    1    1    2  504  502 -0.65453734657E+02 -0.26123602538E+03  0.43522999778E+03  0.51181403196E+03  0.00000000000E+00 0. -1.
<mgrwt>
<rscale>  4 0.30477959E+03</rscale>
<asrwt>0</asrwt>
<pdfrwt beam="1">  1       21 0.11452245E+00 0.30477959E+03</pdfrwt>
<pdfrwt beam="2">  1       21 0.20252264E+00 0.30477959E+03</pdfrwt>
<totfact> 0.67114468E+01</totfact>
</mgrwt>
</event>
<event>
 5    0  0.1200001E+000  0.2487615E+03  0.7546771E-02  0.1114090E+00
         21   -1    0    0  502  501  0.00000000000E+00  0.00000000000E+00  0.32582466009E+03  0.32582466009E+03  0.00000000000E+00 0.  1.
         21   -1    0    0  503  502 -0.00000000000E+00 -0.00000000000E+00 -0.32456262961E+03  0.32456262961E+03  0.00000000000E+00 0.  1.
         25    1    1    2    0    0 -0.18976225051E+03 -0.10123029696E+03 -0.21309273088E+03  0.32755273880E+03  0.12500000000E+03 0.  0.
         21    1    1    2  503  504  0.37332427225E+02  0.75457206689E+02  0.98942993942E+02  0.12991234050E+03  0.00000000000E+00 0.  1.
         21    1    1    2  504  501  0.15242982329E+03  0.25773090276E+02  0.11541176742E+03  0.19292221041E+03  0.00000000000E+00 0.  1.
<mgrwt>
<rscale>  4 0.24876150E+03</rscale>
<asrwt>0</asrwt>
<pdfrwt beam="1">  1       21 0.50126871E-01 0.24876150E+03</pdfrwt>
<pdfrwt beam="2">  1       21 0.49932712E-01 0.24876150E+03</pdfrwt>
<totfact> 0.14014837E+04</totfact>
</mgrwt>
</event>
<event>
 5    0  0.1200001E+000  0.2723885E+03  0.7546771E-02  0.1099920E+00
         21   -1    0    0  503  501  0.00000000000E+00  0.00000000000E+00  0.19753423206E+03  0.19753423206E+03  0.00000000000E+00 0.  1.
         21   -1    0    0  504  502 -0.00000000000E+00 -0.00000000000E+00 -0.45074252260E+03  0.45074252260E+03  0.00000000000E+00 0.  1.
         25    1    1    2    0    0  0.19831944131E+03  0.11411100505E+03 -0.88908610410E+02  0.27546626523E+03  0.12500000000E+03 0.  0.
         21    1    1    2  503  502 -0.20631395552E+03 -0.14254958817E+03 -0.20404039066E+03  0.32329292345E+03  0.00000000000E+00 0.  1.
         21    1    1    2  504  501  0.79945142137E+01  0.28438583125E+02  0.39740710531E+02  0.49517565986E+02  0.00000000000E+00 0.  1.
<mgrwt>
<rscale>  4 0.27238846E+03</rscale>
<asrwt>0</asrwt>
<pdfrwt beam="1">  1       21 0.30389882E-01 0.27238846E+03</pdfrwt>
<pdfrwt beam="2">  1       21 0.69345003E-01 0.27238846E+03</pdfrwt>
<totfact> 0.18843537E+04</totfact>
</mgrwt>
</event>
<event>
 5    0  0.1200001E+000  0.2223173E+03  0.7546771E-02  0.1132167E+00
         21   -1    0    0  503  501  0.00000000000E+00  0.00000000000E+00  0.17138308837E+04  0.17138308837E+04  0.00000000000E+00 0. -1.
         21   -1    0    0  504  502 -0.00000000000E+00 -0.00000000000E+00 -0.89147175747E+02  0.89147175747E+02  0.00000000000E+00 0. -1.
         25    1    1    2    0    0 -0.17240142863E+03  0.19282219031E+03  0.26818105110E+03  0.39299965119E+03  0.12500000000E+03 0.  0.
         21    1    1    2  503  502  0.97159996311E+01 -0.12048716671E+03  0.16119077088E+03  0.20147958360E+03  0.00000000000E+00 0. -1.
         21    1    1    2  504  501  0.16268542900E+03 -0.72335023596E+02  0.11953118860E+04  0.12084988247E+04  0.00000000000E+00 0. -1.
<mgrwt>
<rscale>  4 0.22231728E+03</rscale>
<asrwt>0</asrwt>
<pdfrwt beam="1">  1       21 0.26366626E+00 0.22231728E+03</pdfrwt>
<pdfrwt beam="2">  1       21 0.13714951E-01 0.22231728E+03</pdfrwt>
<totfact> 0.24719275E+03</totfact>
</mgrwt>
</event>
<event>
 5    0  0.1200001E+000  0.3029802E+03  0.7546771E-02  0.1083760E+00
         21   -1    0    0  503  501  0.00000000000E+00  0.00000000000E+00  0.16536981792E+04  0.16536981792E+04  0.00000000000E+00 0.  1.
         21   -1    0    0  504  502 -0.00000000000E+00 -0.00000000000E+00 -0.68936425285E+02  0.68936425285E+02  0.00000000000E+00 0.  1.
         25    1    1    2    0    0 -0.14602165149E+02  0.25677435884E+03  0.72831940950E+03  0.78244517817E+03  0.12500000000E+03 0.  0.
         21    1    1    2  503  502 -0.41861470493E+02 -0.28891560786E+03  0.50944202464E+03  0.58715908206E+03  0.00000000000E+00 0.  1.
         21    1    1    2  504  501  0.56463635642E+02  0.32141249021E+02  0.34700031979E+03  0.35303034427E+03  0.00000000000E+00 0.  1.
<mgrwt>
<rscale>  4 0.30298022E+03</rscale>
<asrwt>0</asrwt>
<pdfrwt beam="1">  1       21 0.25441508E+00 0.30298022E+03</pdfrwt>
<pdfrwt beam="2">  1       21 0.10605605E-01 0.30298022E+03</pdfrwt>
<totfact> 0.41708610E+03</totfact>
</mgrwt>
</event>
<event>
 5    0  0.1200001E+000  0.2064206E+03  0.7546771E-02  0.1144432E+00
         21   -1    0    0  503  501  0.00000000000E+00  0.00000000000E+00  0.19891737088E+03  0.19891737088E+03  0.00000000000E+00 0. -1.
         21   -1    0    0  504  502 -0.00000000000E+00 -0.00000000000E+00 -0.44924893858E+03  0.44924893858E+03  0.00000000000E+00 0. -1.
         25    1    1    2    0    0 -0.14321656793E+02 -0.20544858629E+03 -0.28303481441E+03  0.37168257644E+03  0.12500000000E+03 0.  0.
         21    1    1    2  503  502 -0.54958941182E+02  0.11917308273E+03 -0.47776897412E+02  0.13966152222E+03  0.00000000000E+00 0. -1.
         21    1    1    2  504  501  0.69280597975E+02  0.86275503566E+02  0.80480144112E+02  0.13682221080E+03  0.00000000000E+00 0. -1.
<mgrwt>
<rscale>  4 0.20642062E+03</rscale>
<asrwt>0</asrwt>
<pdfrwt beam="1">  1       21 0.30602672E-01 0.20642062E+03</pdfrwt>
<pdfrwt beam="2">  1       21 0.69115221E-01 0.20642062E+03</pdfrwt>
<totfact> 0.19370687E+04</totfact>
</mgrwt>
</event>
<event>
 5    0  0.1552655E+000  0.3619562E+03  0.7546771E-02  0.1057812E+00
         21   -1    0    0  503  501  0.00000000000E+00  0.00000000000E+00  0.14454886039E+04  0.14454886039E+04  0.00000000000E+00 0. -1.
         21   -1    0    0  501  502 -0.00000000000E+00 -0.00000000000E+00 -0.30197823070E+03  0.30197823070E+03  0.00000000000E+00 0.  1.
         25    1    1    2    0    0 -0.19061036675E+02  0.31481999307E+03  0.60155412476E+03  0.69062820400E+03  0.12500000000E+03 0.  0.
         21    1    1    2  503  504 -0.96773787852E+01  0.28004002508E+02  0.68400014279E+03  0.68464156399E+03  0.00000000000E+00 0. -1.
         21    1    1    2  504  502  0.28738415461E+02 -0.34282399557E+03 -0.14204389434E+03  0.37219706660E+03  0.00000000000E+00 0.  1.
<mgrwt>
<rscale>  4 0.36195620E+03</rscale>
<asrwt>0</asrwt>
<pdfrwt beam="1">  1       21 0.22238286E+00 0.36195620E+03</pdfrwt>
<pdfrwt beam="2">  1       21 0.46458190E-01 0.36195620E+03</pdfrwt>
<totfact> 0.36934089E+02</totfact>
</mgrwt>
</event>
<event>
 5    0  0.1200001E+000  0.2475548E+03  0.7546771E-02  0.1114860E+00
         21   -1    0    0  503  501  0.00000000000E+00  0.00000000000E+00  0.59005239926E+03  0.59005239926E+03  0.00000000000E+00 0. -1.
         21   -1    0    0  504  502 -0.00000000000E+00 -0.00000000000E+00 -0.31609171822E+03  0.31609171822E+03  0.00000000000E+00 0. -1.
         25    1    1    2    0    0  0.87986102882E+02 -0.20369881649E+03 -0.22713525406E+03  0.34124798282E+03  0.12500000000E+03 0.  0.
         21    1    1    2  503  502 -0.10775228672E+03  0.11961803118E+03  0.40425295145E+03  0.43513156336E+03  0.00000000000E+00 0. -1.
         21    1    1    2  504  501  0.19766183835E+02  0.84080785314E+02  0.96842983643E+02  0.12976457129E+03  0.00000000000E+00 0. -1.
<mgrwt>
<rscale>  4 0.24755484E+03</rscale>
<asrwt>0</asrwt>
<pdfrwt beam="1">  1       21 0.90777292E-01 0.24755484E+03</pdfrwt>
<pdfrwt beam="2">  1       21 0.48629495E-01 0.24755484E+03</pdfrwt>
<totfact> 0.39928034E+03</totfact>
</mgrwt>
</event>
<event>
 5    0  0.1200001E+000  0.2560815E+03  0.7546771E-02  0.1109521E+00
         21   -1    0    0  503  501  0.00000000000E+00  0.00000000000E+00  0.21023444280E+04  0.21023444280E+04  0.00000000000E+00 0. -1.
         21   -1    0    0  501  502 -0.00000000000E+00 -0.00000000000E+00 -0.48665799278E+02  0.48665799278E+02  0.00000000000E+00 0. -1.
         25    1    1    2    0    0 -0.19731325794E+03 -0.66763831979E+02  0.47119101880E+03  0.53012819885E+03  0.12500000000E+03 0.  0.
         21    1    1    2  503  504 -0.23121364673E+02 -0.81563209524E+02  0.40859800479E+03  0.41730023265E+03  0.00000000000E+00 0.  1.
         21    1    1    2  504  502  0.22043462261E+03  0.14832704150E+03  0.11738896052E+04  0.12035817958E+04  0.00000000000E+00 0. -1.
<mgrwt>
<rscale>  4 0.25608154E+03</rscale>
<asrwt>0</asrwt>
<pdfrwt beam="1">  1       21 0.32343753E+00 0.25608154E+03</pdfrwt>
<pdfrwt beam="2">  1       21 0.74870477E-02 0.25608154E+03</pdfrwt>
<totfact> 0.31394553E+03</totfact>
</mgrwt>
</event>
<event>
 5    0  0.1200001E+000  0.2670277E+03  0.7546771E-02  0.1102993E+00
         21   -1    0    0  503  501  0.00000000000E+00  0.00000000000E+00  0.47012133219E+03  0.47012133219E+03  0.00000000000E+00 0.  1.
         21   -1    0    0  504  502 -0.00000000000E+00 -0.00000000000E+00 -0.18592853342E+03  0.18592853342E+03  0.00000000000E+00 0.  1.
         25    1    1    2    0    0  0.43127455735E+02 -0.23251727475E+03  0.49927668034E+02  0.27210665654E+03  0.12500000000E+03 0.  0.
         21    1    1    2  503  502 -0.67947109286E+02  0.22611541560E+03  0.11623979045E+03  0.26316663868E+03  0.00000000000E+00 0.  1.
         21    1    1    2  504  501  0.24819653551E+02  0.64018591508E+01  0.11802534029E+03  0.12077657039E+03  0.00000000000E+00 0.  1.
<mgrwt>
<rscale>  4 0.26702773E+03</rscale>
<asrwt>0</asrwt>
<pdfrwt beam="1">  1       21 0.72326359E-01 0.26702773E+03</pdfrwt>
<pdfrwt beam="2">  1       21 0.28604390E-01 0.26702773E+03</pdfrwt>
<totfact> 0.19365669E+04</totfact>
</mgrwt>
</event>
<event>
 5    0  0.1200001E+000  0.2648471E+03  0.7546771E-02  0.1104265E+00
         21   -1    0    0  502  501  0.00000000000E+00  0.00000000000E+00  0.49965367424E+03  0.49965367424E+03  0.00000000000E+00 0. -1.
         21   -1    0    0  504  502 -0.00000000000E+00 -0.00000000000E+00 -0.11511826030E+04  0.11511826030E+04  0.00000000000E+00 0.  1.
         25    1    1    2    0    0 -0.23375920232E+03 -0.17779561455E+02 -0.10991733640E+04  0.11308256106E+04  0.12500000000E+03 0.  0.
         21    1    1    2  503  501  0.21444089477E+03 -0.19682663528E+02  0.32103340210E+03  0.38656791106E+03  0.00000000000E+00 0. -1.
         21    1    1    2  504  503  0.19318307549E+02  0.37462224983E+02  0.12661103313E+03  0.13344275558E+03  0.00000000000E+00 0. -1.
<mgrwt>
<rscale>  4 0.26484711E+03</rscale>
<asrwt>0</asrwt>
<pdfrwt beam="1">  1       21 0.76869797E-01 0.26484711E+03</pdfrwt>
<pdfrwt beam="2">  1       21 0.17710501E+00 0.26484711E+03</pdfrwt>
<totfact> 0.26502546E+02</totfact>
</mgrwt>
</event>
<event>
 5    0  0.1200001E+000  0.2532272E+03  0.7546771E-02  0.1111282E+00
         21   -1    0    0  502  501  0.00000000000E+00  0.00000000000E+00  0.92808996846E+03  0.92808996846E+03  0.00000000000E+00 0. -1.
         21   -1    0    0  504  502 -0.00000000000E+00 -0.00000000000E+00 -0.13939936413E+03  0.13939936413E+03  0.00000000000E+00 0. -1.
         25    1    1    2    0    0 -0.86501207355E+02  0.20252540052E+03  0.68513805220E+01  0.25331983370E+03  0.12500000000E+03 0.  0.
         21    1    1    2  503  501  0.60078366528E+00 -0.61055553888E+02  0.23766114396E+03  0.24537921866E+03  0.00000000000E+00 0. -1.
         21    1    1    2  504  503  0.85900423690E+02 -0.14146984663E+03  0.54417807985E+03  0.56879028023E+03  0.00000000000E+00 0. -1.
<mgrwt>
<rscale>  4 0.25322716E+03</rscale>
<asrwt>0</asrwt>
<pdfrwt beam="1">  1       21 0.14278307E+00 0.25322716E+03</pdfrwt>
<pdfrwt beam="2">  1       21 0.21446057E-01 0.25322716E+03</pdfrwt>
<totfact> 0.65950730E+03</totfact>
</mgrwt>
</event>
<event>
 5    0  0.1200001E+000  0.3101509E+03  0.7546771E-02  0.1080274E+00
         21   -1    0    0  503  501  0.00000000000E+00  0.00000000000E+00  0.44958772260E+03  0.44958772260E+03  0.00000000000E+00 0.  1.
         21   -1    0    0  501  502 -0.00000000000E+00 -0.00000000000E+00 -0.21131623348E+03  0.21131623348E+03  0.00000000000E+00 0.  1.
         25    1    1    2    0    0  0.26598055455E+03  0.99110696853E+02  0.59379870551E+02  0.31578403167E+03  0.12500000000E+03 0.  0.
         21    1    1    2  503  504 -0.37594545485E+02 -0.86463721335E+01  0.62131539240E+02  0.73133014225E+02  0.00000000000E+00 0.  1.
         21    1    1    2  504  502 -0.22838600907E+03 -0.90464324720E+02  0.11676007933E+03  0.27198691018E+03  0.00000000000E+00 0.  1.
<mgrwt>
<rscale>  4 0.31015091E+03</rscale>
<asrwt>0</asrwt>
<pdfrwt beam="1">  1       21 0.69167342E-01 0.31015091E+03</pdfrwt>
<pdfrwt beam="2">  1       21 0.32510190E-01 0.31015091E+03</pdfrwt>
<totfact> 0.16320967E+04</totfact>
</mgrwt>
</event>
<event>
 5    0  0.1200001E+000  0.2679221E+03  0.7546771E-02  0.1102475E+00
         21   -1    0    0  502  501  0.00000000000E+00  0.00000000000E+00  0.46343381242E+03  0.46343381242E+03  0.00000000000E+00 0.  1.
         21   -1    0    0  503  502 -0.00000000000E+00 -0.00000000000E+00 -0.21928987772E+03  0.21928987772E+03  0.00000000000E+00 0.  1.
         25    1    1    2    0    0 -0.22387955195E+03 -0.44252068690E+02 -0.48303183382E+02  0.26464787339E+03  0.12500000000E+03 0.  0.
         21    1    1    2  503  504 -0.33162070518E+02  0.18545473525E+01  0.61664589286E+02  0.70040587082E+02  0.00000000000E+00 0. -1.
         21    1    1    2  504  501  0.25704162247E+03  0.42397521338E+02  0.23078252879E+03  0.34803522967E+03  0.00000000000E+00 0.  1.
<mgrwt>
<rscale>  4 0.26792211E+03</rscale>
<asrwt>0</asrwt>
<pdfrwt beam="1">  1       21 0.71297509E-01 0.26792211E+03</pdfrwt>
<pdfrwt beam="2">  1       21 0.33736904E-01 0.26792211E+03</pdfrwt>
<totfact> 0.14434032E+04</totfact>
</mgrwt>
</event>
<event>
 5    0  0.1200001E+000  0.3960670E+03  0.7546771E-02  0.1045150E+00
         21   -1    0    0  503  501  0.00000000000E+00  0.00000000000E+00  0.17839534698E+04  0.17839534698E+04  0.00000000000E+00 0.  1.
         21   -1    0    0  501  502 -0.00000000000E+00 -0.00000000000E+00 -0.24090918049E+03  0.24090918049E+03  0.00000000000E+00 0. -1.
         25    1    1    2    0    0 -0.70298392194E+01  0.37575878077E+03 -0.36639465106E+02  0.39775813049E+03  0.12500000000E+03 0.  0.
         21    1    1    2  503  504 -0.36736785803E+01 -0.46188321350E+02  0.38401274149E+03  0.38679793507E+03  0.00000000000E+00 0.  1.
         21    1    1    2  504  502  0.10703517800E+02 -0.32957045942E+03  0.11956710130E+04  0.12403065848E+04  0.00000000000E+00 0.  1.
<mgrwt>
<rscale>  4 0.39606701E+03</rscale>
<asrwt>0</asrwt>
<pdfrwt beam="1">  1       21 0.27445437E+00 0.39606701E+03</pdfrwt>
<pdfrwt beam="2">  1       21 0.37062952E-01 0.39606701E+03</pdfrwt>
<totfact> 0.27626827E+02</totfact>
</mgrwt>
</event>
<event>
 5    0  0.1200001E+000  0.2271536E+03  0.7546771E-02  0.1128659E+00
         21   -1    0    0  503  501  0.00000000000E+00  0.00000000000E+00  0.16925206675E+03  0.16925206675E+03  0.00000000000E+00 0.  1.
         21   -1    0    0  501  502 -0.00000000000E+00 -0.00000000000E+00 -0.10337390891E+04  0.10337390891E+04  0.00000000000E+00 0.  1.
         25    1    1    2    0    0  0.81509943405E+02  0.18514716410E+03 -0.83573478122E+03  0.86890791675E+03  0.12500000000E+03 0.  0.
         21    1    1    2  503  504  0.32155297991E+01 -0.46656771012E+02  0.11062931247E+03  0.12010844554E+03  0.00000000000E+00 0.  1.
         21    1    1    2  504  502 -0.84725473204E+02 -0.13849039308E+03 -0.13938155355E+03  0.21397479351E+03  0.00000000000E+00 0.  1.
<mgrwt>
<rscale>  4 0.22715358E+03</rscale>
<asrwt>0</asrwt>
<pdfrwt beam="1">  1       21 0.26038779E-01 0.22715358E+03</pdfrwt>
<pdfrwt beam="2">  1       21 0.15903678E+00 0.22715358E+03</pdfrwt>
<totfact> 0.34807504E+03</totfact>
</mgrwt>
</event>
<event>
 5    0  0.1200001E+000  0.2879031E+03  0.7546771E-02  0.1091449E+00
         21   -1    0    0  503  501  0.00000000000E+00  0.00000000000E+00  0.84416202727E+03  0.84416202727E+03  0.00000000000E+00 0.  1.
         21   -1    0    0  501  502 -0.00000000000E+00 -0.00000000000E+00 -0.21692393043E+03  0.21692393043E+03  0.00000000000E+00 0. -1.
         25    1    1    2    0    0  0.67917170970E+02  0.20735139718E+03  0.15457476573E+03  0.29517063239E+03  0.12500000000E+03 0.  0.
         21    1    1    2  503  504 -0.39971412974E+02 -0.27637152003E+03  0.57507819185E+03  0.63929168435E+03  0.00000000000E+00 0.  1.
         21    1    1    2  504  502 -0.27945757996E+02  0.69020122856E+02 -0.10241486074E+03  0.12662364096E+03  0.00000000000E+00 0. -1.
<mgrwt>
<rscale>  4 0.28790311E+03</rscale>
<asrwt>0</asrwt>
<pdfrwt beam="1">  1       21 0.12987108E+00 0.28790311E+03</pdfrwt>
<pdfrwt beam="2">  1       21 0.33372913E-01 0.28790311E+03</pdfrwt>
<totfact> 0.35001645E+03</totfact>
</mgrwt>
</event>
<event>
 5    0  0.1200001E+000  0.2595035E+03  0.7546771E-02  0.1107442E+00
         21   -1    0    0  503  501  0.00000000000E+00  0.00000000000E+00  0.12380854226E+03  0.12380854226E+03  0.00000000000E+00 0.  1.
         21   -1    0    0  504  502 -0.00000000000E+00 -0.00000000000E+00 -0.83882626326E+03  0.83882626326E+03  0.00000000000E+00 0.  1.
         25    1    1    2    0    0  0.22551860605E+03  0.15885165791E+02 -0.54767273574E+03  0.60554224101E+03  0.12500000000E+03 0.  0.
         21    1    1    2  503  502 -0.22678879848E+03 -0.42764357276E+02 -0.20643179433E+03  0.30963855555E+03  0.00000000000E+00 0.  1.
         21    1    1    2  504  501  0.12701924299E+01  0.26879191485E+02  0.39086809077E+02  0.47454008972E+02  0.00000000000E+00 0.  1.
<mgrwt>
<rscale>  4 0.25950351E+03</rscale>
<asrwt>0</asrwt>
<pdfrwt beam="1">  1       21 0.19047468E-01 0.25950351E+03</pdfrwt>
<pdfrwt beam="2">  1       21 0.12905020E+00 0.25950351E+03</pdfrwt>
<totfact> 0.10665009E+04</totfact>
</mgrwt>
</event>
<event>
 5    0  0.1505848E+000  0.2765521E+03  0.7546771E-02  0.1097587E+00
         21   -1    0    0  502  501  0.00000000000E+00  0.00000000000E+00  0.83594828289E+02  0.83594828289E+02  0.00000000000E+00 0.  1.
         21   -1    0    0  503  502 -0.00000000000E+00 -0.00000000000E+00 -0.10009504719E+04  0.10009504719E+04  0.00000000000E+00 0.  1.
         25    1    1    2    0    0 -0.20179069438E+03 -0.14139863284E+03 -0.60375514294E+03  0.66397163369E+03  0.12500000000E+03 0.  0.
         21    1    1    2  503  504 -0.18132359224E+02  0.25926732066E+02 -0.40791604725E+02  0.51622988123E+02  0.00000000000E+00 0. -1.
         21    1    1    2  504  501  0.21992305361E+03  0.11547190077E+03 -0.27280889596E+03  0.36895067840E+03  0.00000000000E+00 0.  1.
<mgrwt>
<rscale>  4 0.27655213E+03</rscale>
<asrwt>0</asrwt>
<pdfrwt beam="1">  1       21 0.12860743E-01 0.27655213E+03</pdfrwt>
<pdfrwt beam="2">  1       21 0.15399238E+00 0.27655213E+03</pdfrwt>
<totfact> 0.13719011E+04</totfact>
</mgrwt>
</event>
<event>
 5    0  0.1200001E+000  0.2668223E+03  0.7546771E-02  0.1103112E+00
         21   -1    0    0  502  501  0.00000000000E+00  0.00000000000E+00  0.11490361736E+04  0.11490361736E+04  0.00000000000E+00 0.  1.
         21   -1    0    0  504  502 -0.00000000000E+00 -0.00000000000E+00 -0.76984089899E+02  0.76984089899E+02  0.00000000000E+00 0.  1.
         25    1    1    2    0    0 -0.21888205025E+03 -0.13035529548E+02  0.58096432023E+03  0.63342230647E+03  0.12500000000E+03 0.  0.
         21    1    1    2  503  501  0.24402717188E+03 -0.45830764973E+01  0.24935929098E+03  0.34892738672E+03  0.00000000000E+00 0.  1.
         21    1    1    2  504  503 -0.25145121637E+02  0.17618606046E+02  0.24172847250E+03  0.24367057031E+03  0.00000000000E+00 0.  1.
<mgrwt>
<rscale>  4 0.26682228E+03</rscale>
<asrwt>0</asrwt>
<pdfrwt beam="1">  1       21 0.17677478E+00 0.26682228E+03</pdfrwt>
<pdfrwt beam="2">  1       21 0.11843707E-01 0.26682228E+03</pdfrwt>
<totfact> 0.10930781E+04</totfact>
</mgrwt>
</event>
<event>
 5    0  0.1200001E+000  0.2590190E+03  0.7546771E-02  0.1107734E+00
         21   -1    0    0  503  501  0.00000000000E+00  0.00000000000E+00  0.69439646891E+03  0.69439646891E+03  0.00000000000E+00 0. -1.
         21   -1    0    0  501  502 -0.00000000000E+00 -0.00000000000E+00 -0.14268828813E+03  0.14268828813E+03  0.00000000000E+00 0. -1.
         25    1    1    2    0    0 -0.21607608622E+03  0.63664008259E+02  0.46160581634E+02  0.26172080597E+03  0.12500000000E+03 0.  0.
         21    1    1    2  503  504  0.60446620911E+01  0.39453082577E+02  0.90423836093E+02  0.98841053203E+02  0.00000000000E+00 0. -1.
         21    1    1    2  504  502  0.21003142412E+03 -0.10311709084E+03  0.41512376305E+03  0.47652289786E+03  0.00000000000E+00 0. -1.
<mgrwt>
<rscale>  4 0.25901897E+03</rscale>
<asrwt>0</asrwt>
<pdfrwt beam="1">  1       21 0.10683022E+00 0.25901897E+03</pdfrwt>
<pdfrwt beam="2">  1       21 0.21952045E-01 0.25901897E+03</pdfrwt>
<totfact> 0.13052552E+04</totfact>
</mgrwt>
</event>
<event>
 5    0  0.1200001E+000  0.2174633E+03  0.7546771E-02  0.1135788E+00
         21   -1    0    0  503  501  0.00000000000E+00  0.00000000000E+00  0.45009782493E+03  0.45009782493E+03  0.00000000000E+00 0. -1.
         21   -1    0    0  504  502 -0.00000000000E+00 -0.00000000000E+00 -0.19633141865E+03  0.19633141865E+03  0.00000000000E+00 0. -1.
         25    1    1    2    0    0  0.16232562613E+03  0.17199282252E+03  0.71745426912E+02  0.27695405067E+03  0.12500000000E+03 0.  0.
         21    1    1    2  503  502 -0.60629388727E+02 -0.14399501909E+03 -0.32608320400E+01  0.15627258661E+03  0.00000000000E+00 0. -1.
         21    1    1    2  504  501 -0.10169623741E+03 -0.27997803429E+02  0.18528181141E+03  0.21320260631E+03  0.00000000000E+00 0. -1.
<mgrwt>
<rscale>  4 0.21746333E+03</rscale>
<asrwt>0</asrwt>
<pdfrwt beam="1">  1       21 0.69245819E-01 0.21746333E+03</pdfrwt>
<pdfrwt beam="2">  1       21 0.30204834E-01 0.21746333E+03</pdfrwt>
<totfact> 0.19664605E+04</totfact>
</mgrwt>
</event>
<event>
 5    0  0.1200001E+000  0.2424651E+03  0.7546771E-02  0.1118161E+00
         21   -1    0    0  502  501  0.00000000000E+00  0.00000000000E+00  0.85925171059E+02  0.85925171059E+02  0.00000000000E+00 0.  1.
         21   -1    0    0  503  502 -0.00000000000E+00 -0.00000000000E+00 -0.14854551382E+04  0.14854551382E+04  0.00000000000E+00 0. -1.
         25    1    1    2    0    0 -0.18550882859E+03 -0.95586765186E+02 -0.12870188417E+04  0.13098064185E+04  0.12500000000E+03 0.  0.
         21    1    1    2  503  504  0.15883509298E+02 -0.15749167006E+02 -0.40514210284E+02  0.46278757156E+02  0.00000000000E+00 0.  1.
         21    1    1    2  504  501  0.16962531929E+03  0.11133593219E+03 -0.71996915152E+02  0.21529513355E+03  0.00000000000E+00 0.  1.
<mgrwt>
<rscale>  4 0.24246509E+03</rscale>
<asrwt>0</asrwt>
<pdfrwt beam="1">  1       21 0.13219257E-01 0.24246509E+03</pdfrwt>
<pdfrwt beam="2">  1       21 0.22853156E+00 0.24246509E+03</pdfrwt>
<totfact> 0.42065303E+03</totfact>
</mgrwt>
</event>
<event>
 5    0  0.1200001E+000  0.2197409E+03  0.7546771E-02  0.1134076E+00
         21   -1    0    0  503  501  0.00000000000E+00  0.00000000000E+00  0.69523312676E+03  0.69523312676E+03  0.00000000000E+00 0. -1.
         21   -1    0    0  504  502 -0.00000000000E+00 -0.00000000000E+00 -0.17151196716E+03  0.17151196716E+03  0.00000000000E+00 0. -1.
         25    1    1    2    0    0  0.17150308810E+03 -0.14938654097E+03  0.58243865854E+01  0.25959308799E+03  0.12500000000E+03 0.  0.
         21    1    1    2  503  502 -0.12202364904E+03  0.67160363707E+02  0.83748852169E+02  0.16252432316E+03  0.00000000000E+00 0. -1.
         21    1    1    2  504  501 -0.49479439066E+02  0.82226177264E+02  0.43414792085E+03  0.44462768278E+03  0.00000000000E+00 0.  1.
<mgrwt>
<rscale>  4 0.21974091E+03</rscale>
<asrwt>0</asrwt>
<pdfrwt beam="1">  1       21 0.10695894E+00 0.21974091E+03</pdfrwt>
<pdfrwt beam="2">  1       21 0.26386457E-01 0.21974091E+03</pdfrwt>
<totfact> 0.93678740E+03</totfact>
</mgrwt>
</event>
<event>
 5    0  0.1200001E+000  0.2238484E+03  0.7546771E-02  0.1131046E+00
         21   -1    0    0  503  501  0.00000000000E+00  0.00000000000E+00  0.35094961405E+03  0.35094961405E+03  0.00000000000E+00 0. -1.
         21   -1    0    0  501  502 -0.00000000000E+00 -0.00000000000E+00 -0.23985284609E+03  0.23985284609E+03  0.00000000000E+00 0. -1.
         25    1    1    2    0    0  0.72240054265E+02 -0.21565497778E+03 -0.32072304718E+02  0.26149441220E+03  0.12500000000E+03 0.  0.
         21    1    1    2  503  504 -0.45218383171E+02  0.17005388068E+03  0.18972212119E+03  0.25876148821E+03  0.00000000000E+00 0. -1.
         21    1    1    2  504  502 -0.27021671095E+02  0.45601097097E+02 -0.46553048509E+02  0.70546559737E+02  0.00000000000E+00 0. -1.
<mgrwt>
<rscale>  4 0.22384837E+03</rscale>
<asrwt>0</asrwt>
<pdfrwt beam="1">  1       21 0.53992248E-01 0.22384837E+03</pdfrwt>
<pdfrwt beam="2">  1       21 0.36900438E-01 0.22384837E+03</pdfrwt>
<totfact> 0.22572550E+04</totfact>
</mgrwt>
</event>
<event>
 5    0  0.1200001E+000  0.3421873E+03  0.7546771E-02  0.1065868E+00
         21   -1    0    0  503  501  0.00000000000E+00  0.00000000000E+00  0.73925418577E+03  0.73925418577E+03  0.00000000000E+00 0. -1.
         21   -1    0    0  504  502 -0.00000000000E+00 -0.00000000000E+00 -0.24026505251E+03  0.24026505251E+03  0.00000000000E+00 0. -1.
         25    1    1    2    0    0  0.21465469208E+03 -0.15351967168E+03 -0.29900084011E+02  0.29353695074E+03  0.12500000000E+03 0.  0.
         21    1    1    2  503  502 -0.28500799814E+03  0.17743511124E+03  0.50778741043E+03  0.60873707945E+03  0.00000000000E+00 0. -1.
         21    1    1    2  504  501  0.70353306055E+02 -0.23915439557E+02  0.21101806839E+02  0.77245208097E+02  0.00000000000E+00 0. -1.
<mgrwt>
<rscale>  4 0.34218731E+03</rscale>
<asrwt>0</asrwt>
<pdfrwt beam="1">  1       21 0.11373141E+00 0.34218731E+03</pdfrwt>
<pdfrwt beam="2">  1       21 0.36963855E-01 0.34218731E+03</pdfrwt>
<totfact> 0.38712962E+03</totfact>
</mgrwt>
</event>
<event>
 5    0  0.1200001E+000  0.2954256E+03  0.7546771E-02  0.1087550E+00
         21   -1    0    0  502  501  0.00000000000E+00  0.00000000000E+00  0.19285870736E+03  0.19285870736E+03  0.00000000000E+00 0.  1.
         21   -1    0    0  503  502 -0.00000000000E+00 -0.00000000000E+00 -0.11246023326E+04  0.11246023326E+04  0.00000000000E+00 0. -1.
         25    1    1    2    0    0 -0.19724964413E+03 -0.17787770595E+03 -0.96445474716E+03  0.10081398017E+04  0.12500000000E+03 0.  0.
         21    1    1    2  503  504 -0.19537867880E+01 -0.23545309484E+02 -0.28926198425E+01  0.23802649665E+02  0.00000000000E+00 0. -1.
         21    1    1    2  504  501  0.19920343092E+03  0.20142301543E+03  0.35603741749E+02  0.28551858865E+03  0.00000000000E+00 0.  1.
<mgrwt>
<rscale>  4 0.29542556E+03</rscale>
<asrwt>0</asrwt>
<pdfrwt beam="1">  1       21 0.29670570E-01 0.29542556E+03</pdfrwt>
<pdfrwt beam="2">  1       21 0.17301574E+00 0.29542556E+03</pdfrwt>
<totfact> 0.20379446E+03</totfact>
</mgrwt>
</event>
<event>
 5    0  0.1200001E+000  0.8660577E+03  0.7546771E-02  0.9469035E-01
         21   -1    0    0  503  501  0.00000000000E+00  0.00000000000E+00  0.19653877279E+04  0.19653877279E+04  0.00000000000E+00 0.  1.
         21   -1    0    0  504  502 -0.00000000000E+00 -0.00000000000E+00 -0.47169964659E+03  0.47169964659E+03  0.00000000000E+00 0. -1.
         25    1    1    2    0    0  0.58340689574E+03 -0.57539099954E+03  0.77699134198E+03  0.11361245327E+04  0.12500000000E+03 0.  0.
         21    1    1    2  503  502 -0.59505679780E+03  0.65403751873E+03  0.39297184533E+03  0.96761797200E+03  0.00000000000E+00 0.  1.
         21    1    1    2  504  501  0.11649902061E+02 -0.78646519183E+02  0.32372489397E+03  0.33334486973E+03  0.00000000000E+00 0. -1.
<mgrwt>
<rscale>  4 0.86605769E+03</rscale>
<asrwt>0</asrwt>
<pdfrwt beam="1">  1       21 0.30236734E+00 0.86605769E+03</pdfrwt>
<pdfrwt beam="2">  1       21 0.72569177E-01 0.86605769E+03</pdfrwt>
<totfact> 0.35292917E+01</totfact>
</mgrwt>
</event>
<event>
 5    0  0.1200001E+000  0.2443667E+03  0.7546771E-02  0.1116918E+00
         21   -1    0    0  502  501  0.00000000000E+00  0.00000000000E+00  0.10134089594E+03  0.10134089594E+03  0.00000000000E+00 0.  1.
         21   -1    0    0  503  502 -0.00000000000E+00 -0.00000000000E+00 -0.10566024523E+04  0.10566024523E+04  0.00000000000E+00 0. -1.
         25    1    1    2    0    0  0.82874094590E+02  0.20409469031E+03 -0.84797839899E+03  0.88499441994E+03  0.12500000000E+03 0.  0.
         21    1    1    2  503  504 -0.54860444845E+02 -0.21774924054E+02  0.10437828371E+01  0.59033085713E+02  0.00000000000E+00 0. -1.
         21    1    1    2  504  501 -0.28013649745E+02 -0.18231976625E+03 -0.10832694020E+03  0.21391584259E+03  0.00000000000E+00 0.  1.
<mgrwt>
<rscale>  4 0.24436667E+03</rscale>
<asrwt>0</asrwt>
<pdfrwt beam="1">  1       21 0.15590907E-01 0.24436667E+03</pdfrwt>
<pdfrwt beam="2">  1       21 0.16255423E+00 0.24436667E+03</pdfrwt>
<totfact> 0.84911271E+03</totfact>
</mgrwt>
</event>
<event>
 5    0  0.1200001E+000  0.3076654E+03  0.7546771E-02  0.1081470E+00
         21   -1    0    0  503  501  0.00000000000E+00  0.00000000000E+00  0.33588664599E+03  0.33588664599E+03  0.00000000000E+00 0.  1.
         21   -1    0    0  504  502 -0.00000000000E+00 -0.00000000000E+00 -0.31483649253E+03  0.31483649253E+03  0.00000000000E+00 0.  1.
         25    1    1    2    0    0 -0.19519210370E+03 -0.21333796011E+03 -0.19224776189E+01  0.31502656792E+03  0.12500000000E+03 0.  0.
         21    1    1    2  503  502  0.20493588027E+03  0.18388087311E+03 -0.27228883072E+02  0.27668086777E+03  0.00000000000E+00 0.  1.
         21    1    1    2  504  501 -0.97437765629E+01  0.29457087004E+02  0.50201514154E+02  0.59015702824E+02  0.00000000000E+00 0. -1.
<mgrwt>
<rscale>  4 0.30766538E+03</rscale>
<asrwt>0</asrwt>
<pdfrwt beam="1">  1       21 0.51674868E-01 0.30766538E+03</pdfrwt>
<pdfrwt beam="2">  1       21 0.48436384E-01 0.30766538E+03</pdfrwt>
<totfact> 0.13633637E+04</totfact>
</mgrwt>
</event>
<event>
 5    0  0.1200001E+000  0.2412052E+03  0.7546771E-02  0.1118993E+00
         21   -1    0    0  503  501  0.00000000000E+00  0.00000000000E+00  0.21997847566E+03  0.21997847566E+03  0.00000000000E+00 0. -1.
         21   -1    0    0  504  502 -0.00000000000E+00 -0.00000000000E+00 -0.11665991609E+04  0.11665991609E+04  0.00000000000E+00 0. -1.
         25    1    1    2    0    0 -0.20811362887E+03 -0.52621582232E+01 -0.10268738094E+04  0.10551937231E+04  0.12500000000E+03 0.  0.
         21    1    1    2  503  502  0.19437475308E+03  0.37626681024E+02 -0.43523293788E+02  0.20271060372E+03  0.00000000000E+00 0. -1.
         21    1    1    2  504  501  0.13738875793E+02 -0.32364522801E+02  0.12377641786E+03  0.12867330983E+03  0.00000000000E+00 0. -1.
<mgrwt>
<rscale>  4 0.24120516E+03</rscale>
<asrwt>0</asrwt>
<pdfrwt beam="1">  1       21 0.33842842E-01 0.24120516E+03</pdfrwt>
<pdfrwt beam="2">  1       21 0.17947680E+00 0.24120516E+03</pdfrwt>
<totfact> 0.14737621E+03</totfact>
</mgrwt>
</event>
<event>
 5    0  0.1200001E+000  0.2847231E+03  0.7546771E-02  0.1093137E+00
         21   -1    0    0  503  501  0.00000000000E+00  0.00000000000E+00  0.16684144626E+04  0.16684144626E+04  0.00000000000E+00 0.  1.
         21   -1    0    0  501  502 -0.00000000000E+00 -0.00000000000E+00 -0.97197495671E+02  0.97197495671E+02  0.00000000000E+00 0. -1.
         25    1    1    2    0    0  0.26854535151E+03 -0.37134215478E+02  0.18896329293E+03  0.35330961189E+03  0.12500000000E+03 0.  0.
         21    1    1    2  503  504 -0.19754508384E+02 -0.12360049300E+02  0.40027990654E+02  0.46316859306E+02  0.00000000000E+00 0. -1.
         21    1    1    2  504  502 -0.24879084313E+03  0.49494264778E+02  0.13422256834E+04  0.13659854871E+04  0.00000000000E+00 0.  1.
<mgrwt>
<rscale>  4 0.28472312E+03</rscale>
<asrwt>0</asrwt>
<pdfrwt beam="1">  1       21 0.25667913E+00 0.28472312E+03</pdfrwt>
<pdfrwt beam="2">  1       21 0.14953462E-01 0.28472312E+03</pdfrwt>
<totfact> 0.21965944E+03</totfact>
</mgrwt>
</event>
<event>
 5    0  0.1200001E+000  0.2115322E+03  0.7546771E-02  0.1140358E+00
         21   -1    0    0  503  501  0.00000000000E+00  0.00000000000E+00  0.23927643892E+04  0.23927643892E+04  0.00000000000E+00 0. -1.
         21   -1    0    0  504  502 -0.00000000000E+00 -0.00000000000E+00 -0.12352705706E+03  0.12352705706E+03  0.00000000000E+00 0. -1.
         25    1    1    2    0    0  0.10262078988E+03  0.21808329932E+03  0.92283204401E+02  0.28676216935E+03  0.12500000000E+03 0.  0.
         21    1    1    2  503  502 -0.10333803137E+03 -0.49149017644E+02  0.12060550525E+03  0.16625300767E+03  0.00000000000E+00 0. -1.
         21    1    1    2  504  501  0.71724148828E+00 -0.16893428168E+03  0.20563486225E+04  0.20632762693E+04  0.00000000000E+00 0. -1.
<mgrwt>
<rscale>  4 0.21153222E+03</rscale>
<asrwt>0</asrwt>
<pdfrwt beam="1">  1       21 0.36811756E+00 0.21153222E+03</pdfrwt>
<pdfrwt beam="2">  1       21 0.19004164E-01 0.21153222E+03</pdfrwt>
<totfact> 0.33634370E+02</totfact>
</mgrwt>
</event>
<event>
 5    0  0.1200001E+000  0.3296958E+03  0.7546771E-02  0.1071272E+00
         21   -1    0    0  503  501  0.00000000000E+00  0.00000000000E+00  0.26351920488E+03  0.26351920488E+03  0.00000000000E+00 0.  1.
         21   -1    0    0  501  502 -0.00000000000E+00 -0.00000000000E+00 -0.45382041767E+03  0.45382041767E+03  0.00000000000E+00 0. -1.
         25    1    1    2    0    0  0.14662522959E+03 -0.26483135759E+03 -0.29113005745E+00  0.32750525290E+03  0.12500000000E+03 0.  0.
         21    1    1    2  503  504  0.26954756205E+02  0.11856833838E+02 -0.95574122996E+00  0.29462804212E+02  0.00000000000E+00 0. -1.
         21    1    1    2  504  502 -0.17357998580E+03  0.25297452376E+03 -0.18905434151E+03  0.36037156545E+03  0.00000000000E+00 0. -1.
<mgrwt>
<rscale>  4 0.32969583E+03</rscale>
<asrwt>0</asrwt>
<pdfrwt beam="1">  1       21 0.40541416E-01 0.32969583E+03</pdfrwt>
<pdfrwt beam="2">  1       21 0.69818525E-01 0.32969583E+03</pdfrwt>
<totfact> 0.10155106E+04</totfact>
</mgrwt>
</event>
<event>
 5    0  0.1200001E+000  0.3123593E+03  0.7546771E-02  0.1079221E+00
         21   -1    0    0  503  501  0.00000000000E+00  0.00000000000E+00  0.17996571242E+03  0.17996571242E+03  0.00000000000E+00 0. -1.
         21   -1    0    0  504  502 -0.00000000000E+00 -0.00000000000E+00 -0.86153253504E+03  0.86153253504E+03  0.00000000000E+00 0. -1.
         25    1    1    2    0    0 -0.14171951010E+03 -0.24287181546E+03 -0.62420869428E+03  0.69594010684E+03  0.12500000000E+03 0.  0.
         21    1    1    2  503  502  0.17646966746E+03  0.24928222402E+03 -0.50831593234E+02  0.30962400038E+03  0.00000000000E+00 0. -1.
         21    1    1    2  504  501 -0.34750157358E+02 -0.64104085513E+01 -0.65265351092E+01  0.35934140240E+02  0.00000000000E+00 0.  1.
<mgrwt>
<rscale>  4 0.31235925E+03</rscale>
<asrwt>0</asrwt>
<pdfrwt beam="1">  1       21 0.27687032E-01 0.31235925E+03</pdfrwt>
<pdfrwt beam="2">  1       21 0.13254347E+00 0.31235925E+03</pdfrwt>
<totfact> 0.47380765E+03</totfact>
</mgrwt>
</event>
<event>
 5    0  0.1200001E+000  0.3026023E+03  0.7546771E-02  0.1083947E+00
         21   -1    0    0  503  501  0.00000000000E+00  0.00000000000E+00  0.17291389466E+03  0.17291389466E+03  0.00000000000E+00 0. -1.
         21   -1    0    0  501  502 -0.00000000000E+00 -0.00000000000E+00 -0.79648405933E+03  0.79648405933E+03  0.00000000000E+00 0. -1.
         25    1    1    2    0    0 -0.15561036604E+03  0.24481622561E+03 -0.48228804965E+03  0.57652088703E+03  0.12500000000E+03 0.  0.
         21    1    1    2  503  504  0.30498373797E+01 -0.38544989035E+02  0.56826081320E+02  0.68732970298E+02  0.00000000000E+00 0. -1.
         21    1    1    2  504  502  0.15256052866E+03 -0.20627123658E+03 -0.19810819634E+03  0.32414409667E+03  0.00000000000E+00 0. -1.
<mgrwt>
<rscale>  4 0.30260229E+03</rscale>
<asrwt>0</asrwt>
<pdfrwt beam="1">  1       21 0.26602138E-01 0.30260229E+03</pdfrwt>
<pdfrwt beam="2">  1       21 0.12253601E+00 0.30260229E+03</pdfrwt>
<totfact> 0.62891845E+03</totfact>
</mgrwt>
</event>
<event>
 5    0  0.1200001E+000  0.2456745E+03  0.7546771E-02  0.1116069E+00
         21   -1    0    0  503  501  0.00000000000E+00  0.00000000000E+00  0.61425389299E+02  0.61425389299E+02  0.00000000000E+00 0.  1.
         21   -1    0    0  504  502 -0.00000000000E+00 -0.00000000000E+00 -0.13428357402E+04  0.13428357402E+04  0.00000000000E+00 0.  1.
         25    1    1    2    0    0  0.23548346941E+03 -0.27182195406E+02 -0.67007158031E+03  0.72167323551E+03  0.12500000000E+03 0.  0.
         21    1    1    2  503  502 -0.16761776608E+03  0.10699671664E+03 -0.39830946359E+03  0.44519034318E+03  0.00000000000E+00 0.  1.
         21    1    1    2  504  501 -0.67865703326E+02 -0.79814521235E+02 -0.21302930700E+03  0.23739755080E+03  0.00000000000E+00 0.  1.
<mgrwt>
<rscale>  4 0.24567449E+03</rscale>
<asrwt>0</asrwt>
<pdfrwt beam="1">  1       21 0.94500604E-02 0.24567449E+03</pdfrwt>
<pdfrwt beam="2">  1       21 0.20659010E+00 0.24567449E+03</pdfrwt>
<totfact> 0.10492293E+04</totfact>
</mgrwt>
</event>
<event>
 5    0  0.1200001E+000  0.4258448E+03  0.7546771E-02  0.1035181E+00
         21   -1    0    0  502  501  0.00000000000E+00  0.00000000000E+00  0.25008988379E+04  0.25008988379E+04  0.00000000000E+00 0. -1.
         21   -1    0    0  503  502 -0.00000000000E+00 -0.00000000000E+00 -0.24963414305E+03  0.24963414305E+03  0.00000000000E+00 0.  1.
         25    1    1    2    0    0 -0.47105275585E+03  0.42502447740E+02  0.81793340775E+02  0.49599627766E+03  0.12500000000E+03 0.  0.
         21    1    1    2  503  504  0.22266870507E+03  0.10050179607E+03  0.15834264645E+04  0.16021614562E+04  0.00000000000E+00 0. -1.
         21    1    1    2  504  501  0.24838405079E+03 -0.14300424381E+03  0.58604488956E+03  0.65237524708E+03  0.00000000000E+00 0.  1.
<mgrwt>
<rscale>  4 0.42584483E+03</rscale>
<asrwt>0</asrwt>
<pdfrwt beam="1">  1       21 0.38475365E+00 0.42584483E+03</pdfrwt>
<pdfrwt beam="2">  1       21 0.38405255E-01 0.42584483E+03</pdfrwt>
<totfact> 0.53722693E+01</totfact>
</mgrwt>
</event>
<event>
 5    0  0.1200001E+000  0.3328222E+03  0.7546771E-02  0.1069895E+00
         21   -1    0    0  503  501  0.00000000000E+00  0.00000000000E+00  0.60182309163E+03  0.60182309163E+03  0.00000000000E+00 0. -1.
         21   -1    0    0  504  502 -0.00000000000E+00 -0.00000000000E+00 -0.26800452799E+03  0.26800452799E+03  0.00000000000E+00 0. -1.
         25    1    1    2    0    0 -0.24412828511E+03 -0.34454502762E+02 -0.59126937017E+02  0.28267777952E+03  0.12500000000E+03 0.  0.
         21    1    1    2  503  502  0.33145298926E+03  0.17580280582E+02  0.36627934718E+03  0.49429820000E+03  0.00000000000E+00 0. -1.
         21    1    1    2  504  501 -0.87324704148E+02  0.16874222180E+02  0.26666153480E+02  0.92851640105E+02  0.00000000000E+00 0. -1.
<mgrwt>
<rscale>  4 0.33282222E+03</rscale>
<asrwt>0</asrwt>
<pdfrwt beam="1">  1       21 0.92588168E-01 0.33282222E+03</pdfrwt>
<pdfrwt beam="2">  1       21 0.41231466E-01 0.33282222E+03</pdfrwt>
<totfact> 0.51227845E+03</totfact>
</mgrwt>
</event>
<event>
 5    0  0.1200001E+000  0.2720778E+03  0.7546771E-02  0.1100096E+00
         21   -1    0    0  502  501  0.00000000000E+00  0.00000000000E+00  0.95159992748E+03  0.95159992748E+03  0.00000000000E+00 0.  1.
         21   -1    0    0  503  502 -0.00000000000E+00 -0.00000000000E+00 -0.59288440042E+03  0.59288440042E+03  0.00000000000E+00 0. -1.
         25    1    1    2    0    0  0.16573450784E+03  0.17577551289E+03 -0.54019659688E+03  0.60481594002E+03  0.12500000000E+03 0.  0.
         21    1    1    2  503  504 -0.16297995341E+02  0.18206274487E+02  0.43440029687E+02  0.49841039938E+02  0.00000000000E+00 0.  1.
         21    1    1    2  504  501 -0.14943651250E+03 -0.19398178738E+03  0.85547209425E+03  0.88982734794E+03  0.00000000000E+00 0.  1.
<mgrwt>
<rscale>  4 0.27207785E+03</rscale>
<asrwt>0</asrwt>
<pdfrwt beam="1">  1       21 0.14639999E+00 0.27207785E+03</pdfrwt>
<pdfrwt beam="2">  1       21 0.91212985E-01 0.27207785E+03</pdfrwt>
<totfact> 0.29914490E+02</totfact>
</mgrwt>
</event>
<event>
 5    0  0.1200001E+000  0.2794529E+03  0.7546771E-02  0.1095988E+00
         21   -1    0    0  502  501  0.00000000000E+00  0.00000000000E+00  0.81293591947E+03  0.81293591947E+03  0.00000000000E+00 0.  1.
         21   -1    0    0  503  502 -0.00000000000E+00 -0.00000000000E+00 -0.11870144661E+03  0.11870144661E+03  0.00000000000E+00 0.  1.
         25    1    1    2    0    0 -0.22877001922E+03  0.70924600622E+02  0.20647287477E+03  0.34003245239E+03  0.12500000000E+03 0.  0.
         21    1    1    2  503  504  0.23591096818E+03 -0.13325354570E+03  0.41389969405E+03  0.49469530934E+03  0.00000000000E+00 0.  1.
         21    1    1    2  504  501 -0.71409489629E+01  0.62328945074E+02  0.73861904038E+02  0.96909604345E+02  0.00000000000E+00 0.  1.
<mgrwt>
<rscale>  4 0.27945294E+03</rscale>
<asrwt>0</asrwt>
<pdfrwt beam="1">  1       21 0.12506706E+00 0.27945294E+03</pdfrwt>
<pdfrwt beam="2">  1       21 0.18261762E-01 0.27945294E+03</pdfrwt>
<totfact> 0.12364325E+04</totfact>
</mgrwt>
</event>
<event>
 5    0  0.1200001E+000  0.2531568E+03  0.7546771E-02  0.1111326E+00
         21   -1    0    0  503  501  0.00000000000E+00  0.00000000000E+00  0.67452923337E+03  0.67452923337E+03  0.00000000000E+00 0.  1.
         21   -1    0    0  501  502 -0.00000000000E+00 -0.00000000000E+00 -0.10299735545E+04  0.10299735545E+04  0.00000000000E+00 0.  1.
         25    1    1    2    0    0 -0.53331464676E+02 -0.24958000171E+03 -0.66765866230E+03  0.72562215493E+03  0.12500000000E+03 0.  0.
         21    1    1    2  503  504  0.50209173558E+01  0.67883168655E+02  0.61701540002E+03  0.62075867941E+03  0.00000000000E+00 0.  1.
         21    1    1    2  504  502  0.48310547320E+02  0.18169683305E+03 -0.30480105882E+03  0.35812195351E+03  0.00000000000E+00 0.  1.
<mgrwt>
<rscale>  4 0.25315685E+03</rscale>
<asrwt>0</asrwt>
<pdfrwt beam="1">  1       21 0.10377373E+00 0.25315685E+03</pdfrwt>
<pdfrwt beam="2">  1       21 0.15845747E+00 0.25315685E+03</pdfrwt>
<totfact> 0.18119967E+02</totfact>
</mgrwt>
</event>
<event>
 5    0  0.1200001E+000  0.2871381E+03  0.7546771E-02  0.1091853E+00
         21   -1    0    0  503  501  0.00000000000E+00  0.00000000000E+00  0.11088958033E+04  0.11088958033E+04  0.00000000000E+00 0. -1.
         21   -1    0    0  504  502 -0.00000000000E+00 -0.00000000000E+00 -0.19900291640E+03  0.19900291640E+03  0.00000000000E+00 0. -1.
         25    1    1    2    0    0  0.23038214927E+03  0.11080589619E+03 -0.58683601126E+02  0.29055575433E+03  0.12500000000E+03 0.  0.
         21    1    1    2  503  502 -0.25152461279E+03 -0.12682729843E+03  0.91778854335E+03  0.96004458478E+03  0.00000000000E+00 0. -1.
         21    1    1    2  504  501  0.21142463517E+02  0.16021402240E+02  0.50787944708E+02  0.57298380614E+02  0.00000000000E+00 0.  1.
<mgrwt>
<rscale>  4 0.28713811E+03</rscale>
<asrwt>0</asrwt>
<pdfrwt beam="1">  1       21 0.17059935E+00 0.28713811E+03</pdfrwt>
<pdfrwt beam="2">  1       21 0.30615834E-01 0.28713811E+03</pdfrwt>
<totfact> 0.20038656E+03</totfact>
</mgrwt>
</event>
<event>
 5    0  0.1200001E+000  0.3115737E+03  0.7546771E-02  0.1079594E+00
         21   -1    0    0  503  501  0.00000000000E+00  0.00000000000E+00  0.20182852310E+04  0.20182852310E+04  0.00000000000E+00 0. -1.
         21   -1    0    0  504  502 -0.00000000000E+00 -0.00000000000E+00 -0.26676737381E+03  0.26676737381E+03  0.00000000000E+00 0. -1.
         25    1    1    2    0    0  0.20122701887E+03 -0.21529863688E+03 -0.14517298508E+03  0.35149112615E+03  0.12500000000E+03 0.  0.
         21    1    1    2  503  502 -0.13717680050E+03  0.69790939069E+02  0.40227038964E+03  0.43070838876E+03  0.00000000000E+00 0. -1.
         21    1    1    2  504  501 -0.64050218369E+02  0.14550769781E+03  0.14944204526E+04  0.15028530899E+04  0.00000000000E+00 0. -1.
<mgrwt>
<rscale>  4 0.31157374E+03</rscale>
<asrwt>0</asrwt>
<pdfrwt beam="1">  1       21 0.31050541E+00 0.31157374E+03</pdfrwt>
<pdfrwt beam="2">  1       21 0.41041136E-01 0.31157374E+03</pdfrwt>
<totfact> 0.14651954E+02</totfact>
</mgrwt>
</event>
<event>
 5    0  0.1200001E+000  0.2854353E+03  0.7546771E-02  0.1092757E+00
         21   -1    0    0  503  501  0.00000000000E+00  0.00000000000E+00  0.21639248813E+03  0.21639248813E+03  0.00000000000E+00 0. -1.
         21   -1    0    0  504  502 -0.00000000000E+00 -0.00000000000E+00 -0.15232036118E+04  0.15232036118E+04  0.00000000000E+00 0.  1.
         25    1    1    2    0    0  0.24850064395E+03  0.60065153426E+02 -0.13276588159E+04  0.13578156444E+04  0.12500000000E+03 0.  0.
         21    1    1    2  503  502 -0.26641488930E+03 -0.14956381152E+02 -0.72552547819E+02  0.27652207647E+03  0.00000000000E+00 0. -1.
         21    1    1    2  504  501  0.17914245350E+02 -0.45108772274E+02  0.93400240054E+02  0.10525837907E+03  0.00000000000E+00 0. -1.
<mgrwt>
<rscale>  4 0.28543528E+03</rscale>
<asrwt>0</asrwt>
<pdfrwt beam="1">  1       21 0.33291152E-01 0.28543528E+03</pdfrwt>
<pdfrwt beam="2">  1       21 0.23433902E+00 0.28543528E+03</pdfrwt>
<totfact> 0.65050539E+02</totfact>
</mgrwt>
</event>
<event>
 5    0  0.1200001E+000  0.3084423E+03  0.7546771E-02  0.1081095E+00
         21   -1    0    0  503  501  0.00000000000E+00  0.00000000000E+00  0.12327862068E+03  0.12327862068E+03  0.00000000000E+00 0. -1.
         21   -1    0    0  504  502 -0.00000000000E+00 -0.00000000000E+00 -0.81943915475E+03  0.81943915475E+03  0.00000000000E+00 0. -1.
         25    1    1    2    0    0  0.72552158612E+02  0.26189779429E+03 -0.40166794569E+03  0.50081574353E+03  0.12500000000E+03 0.  0.
         21    1    1    2  503  502 -0.92710271542E+02 -0.27989975258E+03 -0.29164883562E+03  0.41472654757E+03  0.00000000000E+00 0. -1.
         21    1    1    2  504  501  0.20158112929E+02  0.18001958285E+02 -0.28437527617E+01  0.27175484333E+02  0.00000000000E+00 0. -1.
<mgrwt>
<rscale>  4 0.30844234E+03</rscale>
<asrwt>0</asrwt>
<pdfrwt beam="1">  1       21 0.18965942E-01 0.30844234E+03</pdfrwt>
<pdfrwt beam="2">  1       21 0.12606756E+00 0.30844234E+03</pdfrwt>
<totfact> 0.11133857E+04</totfact>
</mgrwt>
</event>
<event>
 5    0  0.1454981E+000  0.3117234E+03  0.7546771E-02  0.1079523E+00
         21   -1    0    0  503  501  0.00000000000E+00  0.00000000000E+00  0.18265324794E+04  0.18265324794E+04  0.00000000000E+00 0. -1.
         21   -1    0    0  504  502 -0.00000000000E+00 -0.00000000000E+00 -0.84083046646E+02  0.84083046646E+02  0.00000000000E+00 0. -1.
         25    1    1    2    0    0 -0.17565887255E+03 -0.22106477089E+03  0.30188153419E+03  0.43183692885E+03  0.12500000000E+03 0.  0.
         21    1    1    2  503  502  0.20604093744E+03  0.21607423507E+03  0.13631336281E+04  0.13954476812E+04  0.00000000000E+00 0. -1.
         21    1    1    2  504  501 -0.30382064896E+02  0.49905358217E+01  0.77434270406E+02  0.83330915923E+02  0.00000000000E+00 0.  1.
<mgrwt>
<rscale>  4 0.31172337E+03</rscale>
<asrwt>0</asrwt>
<pdfrwt beam="1">  1       21 0.28100497E+00 0.31172337E+03</pdfrwt>
<pdfrwt beam="2">  1       21 0.12935855E-01 0.31172337E+03</pdfrwt>
<totfact> 0.20119250E+03</totfact>
</mgrwt>
</event>
<event>
 5    0  0.1200001E+000  0.2518522E+03  0.7546771E-02  0.1112140E+00
         21   -1    0    0  502  501  0.00000000000E+00  0.00000000000E+00  0.14383515143E+04  0.14383515143E+04  0.00000000000E+00 0.  1.
         21   -1    0    0  503  502 -0.00000000000E+00 -0.00000000000E+00 -0.11029344542E+03  0.11029344542E+03  0.00000000000E+00 0.  1.
         25    1    1    2    0    0  0.12055645500E+03 -0.19206944504E+03  0.10292482207E+03  0.27864502428E+03  0.12500000000E+03 0.  0.
         21    1    1    2  503  504 -0.60559380656E+02 -0.19100816961E+01  0.76085077129E+03  0.76325944682E+03  0.00000000000E+00 0.  1.
         21    1    1    2  504  501 -0.59997074340E+02  0.19397952674E+03  0.46428247554E+03  0.50674048863E+03  0.00000000000E+00 0.  1.
<mgrwt>
<rscale>  4 0.25185216E+03</rscale>
<asrwt>0</asrwt>
<pdfrwt beam="1">  1       21 0.22128484E+00 0.25185216E+03</pdfrwt>
<pdfrwt beam="2">  1       21 0.16968223E-01 0.25185216E+03</pdfrwt>
<totfact> 0.29289750E+03</totfact>
</mgrwt>
</event>
<event>
 5    0  0.1200001E+000  0.2661625E+03  0.7546771E-02  0.1103496E+00
         21   -1    0    0  503  501  0.00000000000E+00  0.00000000000E+00  0.21036158165E+04  0.21036158165E+04  0.00000000000E+00 0. -1.
         21   -1    0    0  504  502 -0.00000000000E+00 -0.00000000000E+00 -0.13195727476E+03  0.13195727476E+03  0.00000000000E+00 0. -1.
         25    1    1    2    0    0 -0.19031247037E+03 -0.16488149779E+03  0.44188194716E+03  0.52372645524E+03  0.12500000000E+03 0.  0.
         21    1    1    2  503  502  0.18661530269E+03  0.13467110567E+03  0.54816096391E+02  0.23657215036E+03  0.00000000000E+00 0. -1.
         21    1    1    2  504  501  0.36971676801E+01  0.30210392115E+02  0.14749604982E+04  0.14752744857E+04  0.00000000000E+00 0. -1.
<mgrwt>
<rscale>  4 0.26616251E+03</rscale>
<asrwt>0</asrwt>
<pdfrwt beam="1">  1       21 0.32363318E+00 0.26616251E+03</pdfrwt>
<pdfrwt beam="2">  1       21 0.20301121E-01 0.26616251E+03</pdfrwt>
<totfact> 0.51030036E+02</totfact>
</mgrwt>
</event>
<event>
 5    0  0.1200001E+000  0.2243479E+03  0.7546771E-02  0.1130682E+00
         21   -1    0    0  503  501  0.00000000000E+00  0.00000000000E+00  0.57895545906E+03  0.57895545906E+03  0.00000000000E+00 0. -1.
         21   -1    0    0  501  502 -0.00000000000E+00 -0.00000000000E+00 -0.30156771372E+03  0.30156771372E+03  0.00000000000E+00 0.  1.
         25    1    1    2    0    0  0.11927221225E+03  0.17964167538E+03  0.50157230609E+02  0.25423953259E+03  0.12500000000E+03 0.  0.
         21    1    1    2  503  504 -0.13801467221E+01 -0.45077055511E+02  0.38507224844E+03  0.38770411689E+03  0.00000000000E+00 0. -1.
         21    1    1    2  504  502 -0.11789206553E+03 -0.13456461987E+03 -0.15784173370E+03  0.23857952330E+03  0.00000000000E+00 0.  1.
<mgrwt>
<rscale>  4 0.22434789E+03</rscale>
<asrwt>0</asrwt>
<pdfrwt beam="1">  1       21 0.89070070E-01 0.22434789E+03</pdfrwt>
<pdfrwt beam="2">  1       21 0.46395033E-01 0.22434789E+03</pdfrwt>
<totfact> 0.46749563E+03</totfact>
</mgrwt>
</event>
<event>
 5    0  0.1200001E+000  0.3129447E+03  0.7546771E-02  0.1078943E+00
         21   -1    0    0  503  501  0.00000000000E+00  0.00000000000E+00  0.52690005730E+03  0.52690005730E+03  0.00000000000E+00 0.  1.
         21   -1    0    0  501  502 -0.00000000000E+00 -0.00000000000E+00 -0.23200138163E+03  0.23200138163E+03  0.00000000000E+00 0.  1.
         25    1    1    2    0    0  0.20453863504E+03 -0.24339043429E+03  0.74633167125E+02  0.34967136909E+03  0.12500000000E+03 0.  0.
         21    1    1    2  503  504 -0.59029921574E+02  0.29262911777E+02  0.10917114624E+03  0.12751152426E+03  0.00000000000E+00 0. -1.
         21    1    1    2  504  502 -0.14550871347E+03  0.21412752251E+03  0.11109436229E+03  0.28171854558E+03  0.00000000000E+00 0.  1.
<mgrwt>
<rscale>  4 0.31294472E+03</rscale>
<asrwt>0</asrwt>
<pdfrwt beam="1">  1       21 0.81061547E-01 0.31294472E+03</pdfrwt>
<pdfrwt beam="2">  1       21 0.35692520E-01 0.31294472E+03</pdfrwt>
<totfact> 0.94471199E+03</totfact>
</mgrwt>
</event>
<event>
 5    0  0.1200001E+000  0.3964347E+03  0.7546771E-02  0.1045021E+00
         21   -1    0    0  503  501  0.00000000000E+00  0.00000000000E+00  0.86672487926E+03  0.86672487926E+03  0.00000000000E+00 0.  1.
         21   -1    0    0  504  502 -0.00000000000E+00 -0.00000000000E+00 -0.39028736917E+03  0.39028736917E+03  0.00000000000E+00 0.  1.
         25    1    1    2    0    0 -0.30320036687E+03 -0.23242767889E+03 -0.20458245949E+03  0.45103444560E+03  0.12500000000E+03 0.  0.
         21    1    1    2  503  502  0.29625006942E+03  0.19168216879E+03  0.45282863095E+03  0.57407310203E+03  0.00000000000E+00 0.  1.
         21    1    1    2  504  501  0.69502974496E+01  0.40745510104E+02  0.22819133863E+03  0.23190470080E+03  0.00000000000E+00 0. -1.
<mgrwt>
<rscale>  4 0.39643468E+03</rscale>
<asrwt>0</asrwt>
<pdfrwt beam="1">  1       21 0.13334229E+00 0.39643468E+03</pdfrwt>
<pdfrwt beam="2">  1       21 0.60044211E-01 0.39643468E+03</pdfrwt>
<totfact> 0.90822362E+02</totfact>
</mgrwt>
</event>
<event>
 5    0  0.1200001E+000  0.2546692E+03  0.7546771E-02  0.1110389E+00
         21   -1    0    0  503  501  0.00000000000E+00  0.00000000000E+00  0.15310021392E+03  0.15310021392E+03  0.00000000000E+00 0.  1.
         21   -1    0    0  501  502 -0.00000000000E+00 -0.00000000000E+00 -0.94742814059E+03  0.94742814059E+03  0.00000000000E+00 0.  1.
         25    1    1    2    0    0 -0.13536504700E+03  0.17893168956E+03 -0.79210422073E+03  0.83270303348E+03  0.12500000000E+03 0.  0.
         21    1    1    2  503  504  0.25299829586E+02  0.26232338274E+01  0.43736867672E+02  0.50595220392E+02  0.00000000000E+00 0.  1.
         21    1    1    2  504  502  0.11006521742E+03 -0.18155492339E+03 -0.45960573616E+02  0.21723010063E+03  0.00000000000E+00 0.  1.
<mgrwt>
<rscale>  4 0.25466916E+03</rscale>
<asrwt>0</asrwt>
<pdfrwt beam="1">  1       21 0.23553879E-01 0.25466916E+03</pdfrwt>
<pdfrwt beam="2">  1       21 0.14575817E+00 0.25466916E+03</pdfrwt>
<totfact> 0.52220870E+03</totfact>
</mgrwt>
</event>
<event>
 5    0  0.1200001E+000  0.2386083E+03  0.7546771E-02  0.1120723E+00
         21   -1    0    0  503  501  0.00000000000E+00  0.00000000000E+00  0.51794175804E+03  0.51794175804E+03  0.00000000000E+00 0. -1.
         21   -1    0    0  501  502 -0.00000000000E+00 -0.00000000000E+00 -0.10146656314E+04  0.10146656314E+04  0.00000000000E+00 0. -1.
         25    1    1    2    0    0 -0.19725816825E+03 -0.60193244154E+02 -0.85843225705E+03  0.89166414727E+03  0.12500000000E+03 0.  0.
         21    1    1    2  503  504  0.35107714115E+01  0.43579176959E+02  0.43197282364E+03  0.43417967542E+03  0.00000000000E+00 0. -1.
         21    1    1    2  504  502  0.19374739684E+03  0.16614067195E+02 -0.70264439939E+02  0.20676356674E+03  0.00000000000E+00 0. -1.
<mgrwt>
<rscale>  4 0.23860829E+03</rscale>
<asrwt>0</asrwt>
<pdfrwt beam="1">  1       21 0.79683349E-01 0.23860829E+03</pdfrwt>
<pdfrwt beam="2">  1       21 0.15610240E+00 0.23860829E+03</pdfrwt>
<totfact> 0.35496538E+02</totfact>
</mgrwt>
</event>
<event>
 5    0  0.1200001E+000  0.2935925E+03  0.7546771E-02  0.1088488E+00
         21   -1    0    0  502  501  0.00000000000E+00  0.00000000000E+00  0.26511831379E+03  0.26511831379E+03  0.00000000000E+00 0. -1.
         21   -1    0    0  503  502 -0.00000000000E+00 -0.00000000000E+00 -0.34940401485E+03  0.34940401485E+03  0.00000000000E+00 0. -1.
         25    1    1    2    0    0  0.26244711593E+03  0.41146967948E+02  0.51246935364E+02  0.29803155876E+03  0.12500000000E+03 0.  0.
         21    1    1    2  503  504 -0.16445062956E+03 -0.51524565325E+02 -0.13338522028E+03  0.21792293910E+03  0.00000000000E+00 0. -1.
         21    1    1    2  504  501 -0.97996486376E+02  0.10377597377E+02 -0.21474161445E+01  0.98567830783E+02  0.00000000000E+00 0. -1.
<mgrwt>
<rscale>  4 0.29359251E+03</rscale>
<asrwt>0</asrwt>
<pdfrwt beam="1">  1       21 0.40787433E-01 0.29359251E+03</pdfrwt>
<pdfrwt beam="2">  1       21 0.53754463E-01 0.29359251E+03</pdfrwt>
<totfact> 0.18006787E+04</totfact>
</mgrwt>
</event>
<event>
 5    0  0.1200001E+000  0.2710018E+03  0.7546771E-02  0.1100708E+00
         21   -1    0    0  502  501  0.00000000000E+00  0.00000000000E+00  0.86298849525E+02  0.86298849525E+02  0.00000000000E+00 0.  1.
         21   -1    0    0  504  502 -0.00000000000E+00 -0.00000000000E+00 -0.10581107789E+04  0.10581107789E+04  0.00000000000E+00 0.  1.
         25    1    1    2    0    0 -0.21898147517E+02 -0.23945236828E+03 -0.79146187502E+03  0.83657268970E+03  0.12500000000E+03 0.  0.
         21    1    1    2  503  501 -0.88629087002E+00  0.21741077472E+03 -0.15168140135E+03  0.26509522438E+03  0.00000000000E+00 0.  1.
         21    1    1    2  504  503  0.22784438387E+02  0.22041593560E+02 -0.28668652992E+02  0.42741714328E+02  0.00000000000E+00 0.  1.
<mgrwt>
<rscale>  4 0.27100178E+03</rscale>
<asrwt>0</asrwt>
<pdfrwt beam="1">  1       21 0.13276747E-01 0.27100178E+03</pdfrwt>
<pdfrwt beam="2">  1       21 0.16278626E+00 0.27100178E+03</pdfrwt>
<totfact> 0.11164005E+04</totfact>
</mgrwt>
</event>
<event>
 5    0  0.1200001E+000  0.3097805E+03  0.7546771E-02  0.1080451E+00
         21   -1    0    0  503  501  0.00000000000E+00  0.00000000000E+00  0.38337994440E+03  0.38337994440E+03  0.00000000000E+00 0. -1.
         21   -1    0    0  501  502 -0.00000000000E+00 -0.00000000000E+00 -0.35357660731E+03  0.35357660731E+03  0.00000000000E+00 0. -1.
         25    1    1    2    0    0 -0.14036797609E+03  0.27455036597E+03 -0.11524736609E+03  0.35211933709E+03  0.12500000000E+03 0.  0.
         21    1    1    2  503  504 -0.28050157488E+02 -0.83440683147E+02  0.86602199439E+02  0.12348724585E+03  0.00000000000E+00 0. -1.
         21    1    1    2  504  502  0.16841813358E+03 -0.19110968282E+03  0.58448503749E+02  0.26134996877E+03  0.00000000000E+00 0. -1.
<mgrwt>
<rscale>  4 0.30978052E+03</rscale>
<asrwt>0</asrwt>
<pdfrwt beam="1">  1       21 0.58981530E-01 0.30978052E+03</pdfrwt>
<pdfrwt beam="2">  1       21 0.54396401E-01 0.30978052E+03</pdfrwt>
<totfact> 0.80250698E+03</totfact>
</mgrwt>
</event>
<event>
 5    0  0.1200001E+000  0.4037840E+03  0.7546771E-02  0.1042477E+00
         21   -1    0    0  503  501  0.00000000000E+00  0.00000000000E+00  0.10599408231E+04  0.10599408231E+04  0.00000000000E+00 0. -1.
         21   -1    0    0  501  502 -0.00000000000E+00 -0.00000000000E+00 -0.75948462150E+03  0.75948462150E+03  0.00000000000E+00 0. -1.
         25    1    1    2    0    0  0.32706693945E+03 -0.20582080430E+03 -0.89585350084E+02  0.41591528141E+03  0.12500000000E+03 0.  0.
         21    1    1    2  503  504  0.14635618467E+02  0.32080968525E+02  0.82384806728E+03  0.82460234527E+03  0.00000000000E+00 0. -1.
         21    1    1    2  504  502 -0.34170255792E+03  0.17373983577E+03 -0.43380651562E+03  0.57890781789E+03  0.00000000000E+00 0. -1.
<mgrwt>
<rscale>  4 0.40378399E+03</rscale>
<asrwt>0</asrwt>
<pdfrwt beam="1">  1       21 0.16306782E+00 0.40378399E+03</pdfrwt>
<pdfrwt beam="2">  1       21 0.11684379E+00 0.40378399E+03</pdfrwt>
<totfact> 0.11119749E+02</totfact>
</mgrwt>
</event>
<event>
 5    0  0.1200001E+000  0.1798918E+03  0.7546771E-02  0.1167908E+00
         21   -1    0    0  503  501  0.00000000000E+00  0.00000000000E+00  0.67480122922E+03  0.67480122922E+03  0.00000000000E+00 0. -1.
         21   -1    0    0  501  502 -0.00000000000E+00 -0.00000000000E+00 -0.55073261627E+03  0.55073261627E+03  0.00000000000E+00 0. -1.
         25    1    1    2    0    0 -0.20066028079E+03 -0.11436105226E+03 -0.15885018790E+03  0.30692243443E+03  0.12500000000E+03 0.  0.
         21    1    1    2  503  504  0.12504816042E+03  0.20926786880E+02  0.58233134737E+03  0.59597380056E+03  0.00000000000E+00 0. -1.
         21    1    1    2  504  502  0.75612120374E+02  0.93434265383E+02 -0.29941254651E+03  0.32263761049E+03  0.00000000000E+00 0. -1.
<mgrwt>
<rscale>  4 0.17989184E+03</rscale>
<asrwt>0</asrwt>
<pdfrwt beam="1">  1       21 0.10381557E+00 0.17989184E+03</pdfrwt>
<pdfrwt beam="2">  1       21 0.84728095E-01 0.17989184E+03</pdfrwt>
<totfact> 0.91848467E+02</totfact>
</mgrwt>
</event>
<event>
 5    0  0.1200001E+000  0.2379134E+03  0.7546771E-02  0.1121191E+00
         21   -1    0    0  503  501  0.00000000000E+00  0.00000000000E+00  0.82548246781E+03  0.82548246781E+03  0.00000000000E+00 0.  1.
         21   -1    0    0  504  502 -0.00000000000E+00 -0.00000000000E+00 -0.14934843933E+03  0.14934843933E+03  0.00000000000E+00 0.  1.
         25    1    1    2    0    0 -0.15641767147E+03 -0.12482958264E+03 -0.16956051047E+02  0.23656166282E+03  0.12500000000E+03 0.  0.
         21    1    1    2  503  502  0.14744954145E+03  0.15833203826E+03  0.54972968935E+03  0.59077333467E+03  0.00000000000E+00 0.  1.
         21    1    1    2  504  501  0.89681300210E+01 -0.33502455623E+02  0.14336039018E+03  0.14749590964E+03  0.00000000000E+00 0.  1.
<mgrwt>
<rscale>  4 0.23791339E+03</rscale>
<asrwt>0</asrwt>
<pdfrwt beam="1">  1       21 0.12699730E+00 0.23791339E+03</pdfrwt>
<pdfrwt beam="2">  1       21 0.22976684E-01 0.23791339E+03</pdfrwt>
<totfact> 0.78966959E+03</totfact>
</mgrwt>
</event>
<event>
 5    0  0.1200001E+000  0.2433363E+03  0.7546771E-02  0.1117590E+00
         21   -1    0    0  503  501  0.00000000000E+00  0.00000000000E+00  0.12435771746E+04  0.12435771746E+04  0.00000000000E+00 0.  1.
         21   -1    0    0  501  502 -0.00000000000E+00 -0.00000000000E+00 -0.62575909009E+02  0.62575909009E+02  0.00000000000E+00 0.  1.
         25    1    1    2    0    0 -0.18875818788E+03  0.10744966540E+03  0.31003802627E+03  0.39865230693E+03  0.12500000000E+03 0.  0.
         21    1    1    2  503  504 -0.57193576743E+01 -0.36566042460E+02  0.59655124182E+02  0.70203421246E+02  0.00000000000E+00 0. -1.
         21    1    1    2  504  502  0.19447754556E+03 -0.70883622939E+02  0.81130811517E+03  0.83729735547E+03  0.00000000000E+00 0.  1.
<mgrwt>
<rscale>  4 0.24333627E+03</rscale>
<asrwt>0</asrwt>
<pdfrwt beam="1">  1       21 0.19131955E+00 0.24333627E+03</pdfrwt>
<pdfrwt beam="2">  1       21 0.96270638E-02 0.24333627E+03</pdfrwt>
<totfact> 0.12785726E+04</totfact>
</mgrwt>
</event>
<event>
 5    0  0.1200001E+000  0.2471916E+03  0.7546771E-02  0.1115093E+00
         21   -1    0    0  503  501  0.00000000000E+00  0.00000000000E+00  0.10720498467E+04  0.10720498467E+04  0.00000000000E+00 0.  1.
         21   -1    0    0  501  502 -0.00000000000E+00 -0.00000000000E+00 -0.12560428470E+03  0.12560428470E+03  0.00000000000E+00 0.  1.
         25    1    1    2    0    0  0.14232273182E+03  0.15517479991E+03  0.30394836815E+02  0.24674647845E+03  0.12500000000E+03 0.  0.
         21    1    1    2  503  504  0.45804240287E+01  0.20051692892E+02  0.15168629466E+03  0.15307443503E+03  0.00000000000E+00 0. -1.
         21    1    1    2  504  502 -0.14690315585E+03 -0.17522649280E+03  0.76436443056E+03  0.79783321796E+03  0.00000000000E+00 0.  1.
<mgrwt>
<rscale>  4 0.24719159E+03</rscale>
<asrwt>0</asrwt>
<pdfrwt beam="1">  1       21 0.16493074E+00 0.24719159E+03</pdfrwt>
<pdfrwt beam="2">  1       21 0.19323737E-01 0.24719159E+03</pdfrwt>
<totfact> 0.54705738E+03</totfact>
</mgrwt>
</event>
<event>
 5    0  0.1200001E+000  0.2721200E+03  0.7546771E-02  0.1100072E+00
         21   -1    0    0  503  501  0.00000000000E+00  0.00000000000E+00  0.68888873081E+03  0.68888873081E+03  0.00000000000E+00 0. -1.
         21   -1    0    0  504  502 -0.00000000000E+00 -0.00000000000E+00 -0.12235813124E+03  0.12235813124E+03  0.00000000000E+00 0. -1.
         25    1    1    2    0    0  0.69272297626E+02  0.23157215854E+03  0.12694016045E+03  0.30027174387E+03  0.12500000000E+03 0.  0.
         21    1    1    2  503  502 -0.24978635234E+02 -0.20396930929E+03  0.31750635044E+03  0.37820324419E+03  0.00000000000E+00 0. -1.
         21    1    1    2  504  501 -0.44293662392E+02 -0.27602849247E+02  0.12208408867E+03  0.13277187399E+03  0.00000000000E+00 0. -1.
<mgrwt>
<rscale>  4 0.27212004E+03</rscale>
<asrwt>0</asrwt>
<pdfrwt beam="1">  1       21 0.10598288E+00 0.27212004E+03</pdfrwt>
<pdfrwt beam="2">  1       21 0.18824328E-01 0.27212004E+03</pdfrwt>
<totfact> 0.17664555E+04</totfact>
</mgrwt>
</event>
<event>
 5    0  0.1200001E+000  0.3122064E+03  0.7546771E-02  0.1079293E+00
         21   -1    0    0  503  501  0.00000000000E+00  0.00000000000E+00  0.17663188518E+04  0.17663188518E+04  0.00000000000E+00 0. -1.
         21   -1    0    0  504  502 -0.00000000000E+00 -0.00000000000E+00 -0.45108871860E+03  0.45108871860E+03  0.00000000000E+00 0. -1.
         25    1    1    2    0    0  0.13501647302E+03 -0.25261393136E+03 -0.38227493998E+03  0.49376348188E+03  0.12500000000E+03 0.  0.
         21    1    1    2  503  502 -0.14662702042E+03  0.23523114441E+03  0.15384873468E+04  0.15632582930E+04  0.00000000000E+00 0. -1.
         21    1    1    2  504  501  0.11610547404E+02  0.17382786948E+02  0.15901772641E+03  0.16038579552E+03  0.00000000000E+00 0. -1.
<mgrwt>
<rscale>  4 0.31220640E+03</rscale>
<asrwt>0</asrwt>
<pdfrwt beam="1">  1       21 0.27174136E+00 0.31220640E+03</pdfrwt>
<pdfrwt beam="2">  1       21 0.69398266E-01 0.31220640E+03</pdfrwt>
<totfact> 0.80913205E+01</totfact>
</mgrwt>
</event>
<event>
 5    0  0.1200001E+000  0.2404037E+03  0.7546771E-02  0.1119524E+00
         21   -1    0    0  503  501  0.00000000000E+00  0.00000000000E+00  0.39227788954E+03  0.39227788954E+03  0.00000000000E+00 0. -1.
         21   -1    0    0  504  502 -0.00000000000E+00 -0.00000000000E+00 -0.23833780473E+03  0.23833780473E+03  0.00000000000E+00 0. -1.
         25    1    1    2    0    0 -0.18766714478E+03  0.15709018284E+03  0.14907941092E+03  0.31264349271E+03  0.12500000000E+03 0.  0.
         21    1    1    2  503  502  0.18108989363E+03 -0.24528938445E+02  0.22331349400E+02  0.18410298086E+03  0.00000000000E+00 0. -1.
         21    1    1    2  504  501  0.65772511541E+01 -0.13256124440E+03 -0.17470675512E+02  0.13386922070E+03  0.00000000000E+00 0. -1.
<mgrwt>
<rscale>  4 0.24040371E+03</rscale>
<asrwt>0</asrwt>
<pdfrwt beam="1">  1       21 0.60350445E-01 0.24040371E+03</pdfrwt>
<pdfrwt beam="2">  1       21 0.36667355E-01 0.24040371E+03</pdfrwt>
<totfact> 0.17862300E+04</totfact>
</mgrwt>
</event>
<event>
 5    0  0.1200001E+000  0.3201561E+03  0.7546771E-02  0.1075577E+00
         21   -1    0    0  503  501  0.00000000000E+00  0.00000000000E+00  0.40027821647E+03  0.40027821647E+03  0.00000000000E+00 0.  1.
         21   -1    0    0  501  502 -0.00000000000E+00 -0.00000000000E+00 -0.33937231130E+03  0.33937231130E+03  0.00000000000E+00 0.  1.
         25    1    1    2    0    0 -0.58993907228E+02 -0.29725390237E+03 -0.13182632817E+03  0.35333177661E+03  0.12500000000E+03 0.  0.
         21    1    1    2  503  504 -0.40408751842E+02  0.35567987043E+02  0.42746736462E+02  0.68740325908E+02  0.00000000000E+00 0. -1.
         21    1    1    2  504  502  0.99402659071E+02  0.26168591533E+03  0.14998549687E+03  0.31757842525E+03  0.00000000000E+00 0.  1.
<mgrwt>
<rscale>  4 0.32015607E+03</rscale>
<asrwt>0</asrwt>
<pdfrwt beam="1">  1       21 0.61581264E-01 0.32015607E+03</pdfrwt>
<pdfrwt beam="2">  1       21 0.52211125E-01 0.32015607E+03</pdfrwt>
<totfact> 0.79364776E+03</totfact>
</mgrwt>
</event>
<event>
 5    0  0.1200001E+000  0.2484202E+03  0.7546771E-02  0.1114307E+00
         21   -1    0    0  503  501  0.00000000000E+00  0.00000000000E+00  0.45854679744E+03  0.45854679744E+03  0.00000000000E+00 0. -1.
         21   -1    0    0  501  502 -0.00000000000E+00 -0.00000000000E+00 -0.19776698176E+03  0.19776698176E+03  0.00000000000E+00 0. -1.
         25    1    1    2    0    0  0.13482450241E+03  0.16371146504E+03 -0.55016359243E+02  0.25225164027E+03  0.12500000000E+03 0.  0.
         21    1    1    2  503  504 -0.10505608292E+02  0.21854471954E+02  0.58583487336E+02  0.63403554619E+02  0.00000000000E+00 0. -1.
         21    1    1    2  504  502 -0.12431889412E+03 -0.18556593699E+03  0.25721268759E+03  0.34065858431E+03  0.00000000000E+00 0. -1.
<mgrwt>
<rscale>  4 0.24842021E+03</rscale>
<asrwt>0</asrwt>
<pdfrwt beam="1">  1       21 0.70545661E-01 0.24842021E+03</pdfrwt>
<pdfrwt beam="2">  1       21 0.30425690E-01 0.24842021E+03</pdfrwt>
<totfact> 0.18302178E+04</totfact>
</mgrwt>
</event>
<event>
 5    0  0.1200001E+000  0.3762352E+03  0.7546771E-02  0.1052334E+00
         21   -1    0    0  503  501  0.00000000000E+00  0.00000000000E+00  0.27514070801E+03  0.27514070801E+03  0.00000000000E+00 0. -1.
         21   -1    0    0  501  502 -0.00000000000E+00 -0.00000000000E+00 -0.73729216164E+03  0.73729216164E+03  0.00000000000E+00 0. -1.
         25    1    1    2    0    0 -0.11472493747E+03 -0.32819231209E+03 -0.41983089757E+03  0.55924501567E+03  0.12500000000E+03 0.  0.
         21    1    1    2  503  504 -0.31219198829E+02 -0.11757045478E+02  0.60608785888E+02  0.69183028415E+02  0.00000000000E+00 0. -1.
         21    1    1    2  504  502  0.14594413630E+03  0.33994935757E+03 -0.10292934194E+03  0.38400482557E+03  0.00000000000E+00 0. -1.
<mgrwt>
<rscale>  4 0.37623524E+03</rscale>
<asrwt>0</asrwt>
<pdfrwt beam="1">  1       21 0.42329340E-01 0.37623524E+03</pdfrwt>
<pdfrwt beam="2">  1       21 0.11342956E+00 0.37623524E+03</pdfrwt>
<totfact> 0.29076361E+03</totfact>
</mgrwt>
</event>
<event>
 5    0  0.1200001E+000  0.2521449E+03  0.7546771E-02  0.1111957E+00
         21   -1    0    0  503  501  0.00000000000E+00  0.00000000000E+00  0.42512659974E+03  0.42512659974E+03  0.00000000000E+00 0.  1.
         21   -1    0    0  501  502 -0.00000000000E+00 -0.00000000000E+00 -0.34546437801E+03  0.34546437801E+03  0.00000000000E+00 0. -1.
         25    1    1    2    0    0  0.17968627563E+03 -0.99410366701E+02 -0.19232546486E+03  0.30786955532E+03  0.12500000000E+03 0.  0.
         21    1    1    2  503  504  0.73166766226E+02 -0.40823521302E+02  0.44828381989E+02  0.95023783356E+02  0.00000000000E+00 0.  1.
         21    1    1    2  504  502 -0.25285304186E+03  0.14023388800E+03  0.22715930460E+03  0.36769763908E+03  0.00000000000E+00 0.  1.
<mgrwt>
<rscale>  4 0.25214491E+03</rscale>
<asrwt>0</asrwt>
<pdfrwt beam="1">  1       21 0.65404093E-01 0.25214491E+03</pdfrwt>
<pdfrwt beam="2">  1       21 0.53148366E-01 0.25214491E+03</pdfrwt>
<totfact> 0.69314788E+03</totfact>
</mgrwt>
</event>
<event>
 5    0  0.1509001E+000  0.3055204E+03  0.7546771E-02  0.1082513E+00
         21   -1    0    0  502  501  0.00000000000E+00  0.00000000000E+00  0.16230117147E+03  0.16230117147E+03  0.00000000000E+00 0. -1.
         21   -1    0    0  504  502 -0.00000000000E+00 -0.00000000000E+00 -0.85540760648E+03  0.85540760648E+03  0.00000000000E+00 0. -1.
         25    1    1    2    0    0  0.27256048757E+03 -0.58553536070E+02 -0.66523120723E+03  0.73203503676E+03  0.12500000000E+03 0.  0.
         21    1    1    2  503  501 -0.25361389966E+03  0.68221483544E+02 -0.21697621004E+02  0.26352413111E+03  0.00000000000E+00 0. -1.
         21    1    1    2  504  503 -0.18946587906E+02 -0.96679474737E+01 -0.61776067798E+01  0.22149610091E+02  0.00000000000E+00 0.  1.
<mgrwt>
<rscale>  4 0.30552043E+03</rscale>
<asrwt>0</asrwt>
<pdfrwt beam="1">  1       21 0.24969411E-01 0.30552043E+03</pdfrwt>
<pdfrwt beam="2">  1       21 0.13160117E+00 0.30552043E+03</pdfrwt>
<totfact> 0.59180037E+03</totfact>
</mgrwt>
</event>
<event>
 5    0  0.1200001E+000  0.2464734E+03  0.7546771E-02  0.1115554E+00
         21   -1    0    0  503  501  0.00000000000E+00  0.00000000000E+00  0.26293820854E+03  0.26293820854E+03  0.00000000000E+00 0. -1.
         21   -1    0    0  504  502 -0.00000000000E+00 -0.00000000000E+00 -0.47076640471E+03  0.47076640471E+03  0.00000000000E+00 0. -1.
         25    1    1    2    0    0 -0.18978161654E+03  0.87984303965E+02 -0.33204053349E+03  0.41186674496E+03  0.12500000000E+03 0.  0.
         21    1    1    2  503  502  0.19240173918E+03 -0.11426790675E+03  0.32164939945E+02  0.22607557832E+03  0.00000000000E+00 0. -1.
         21    1    1    2  504  501 -0.26201226402E+01  0.26283602784E+02  0.92047397370E+02  0.95762289971E+02  0.00000000000E+00 0. -1.
<mgrwt>
<rscale>  4 0.24647338E+03</rscale>
<asrwt>0</asrwt>
<pdfrwt beam="1">  1       21 0.40452032E-01 0.24647338E+03</pdfrwt>
<pdfrwt beam="2">  1       21 0.72425600E-01 0.24647338E+03</pdfrwt>
<totfact> 0.97798069E+03</totfact>
</mgrwt>
</event>
<event>
 5    0  0.1200001E+000  0.3102916E+03  0.7546771E-02  0.1080206E+00
         21   -1    0    0  502  501  0.00000000000E+00  0.00000000000E+00  0.22515704636E+04  0.22515704636E+04  0.00000000000E+00 0. -1.
         21   -1    0    0  504  502 -0.00000000000E+00 -0.00000000000E+00 -0.14016756865E+03  0.14016756865E+03  0.00000000000E+00 0.  1.
         25    1    1    2    0    0 -0.28011053341E+03  0.83628606778E+02  0.84144747783E+02  0.32887838691E+03  0.12500000000E+03 0.  0.
         21    1    1    2  503  501  0.28217494654E+03 -0.29291353780E+02  0.19356504096E+04  0.19563290091E+04  0.00000000000E+00 0. -1.
         21    1    1    2  504  503 -0.20644131280E+01 -0.54337252998E+02  0.91607737660E+02  0.10653063627E+03  0.00000000000E+00 0. -1.
<mgrwt>
<rscale>  4 0.31029159E+03</rscale>
<asrwt>0</asrwt>
<pdfrwt beam="1">  1       21 0.34639543E+00 0.31029159E+03</pdfrwt>
<pdfrwt beam="2">  1       21 0.21564243E-01 0.31029159E+03</pdfrwt>
<totfact> 0.31870434E+02</totfact>
</mgrwt>
</event>
<event>
 5    0  0.1200001E+000  0.2734236E+03  0.7546771E-02  0.1099336E+00
         21   -1    0    0  503  501  0.00000000000E+00  0.00000000000E+00  0.70797136733E+02  0.70797136733E+02  0.00000000000E+00 0.  1.
         21   -1    0    0  501  502 -0.00000000000E+00 -0.00000000000E+00 -0.23263322157E+04  0.23263322157E+04  0.00000000000E+00 0. -1.
         25    1    1    2    0    0  0.17299682805E+03 -0.17111716869E+03 -0.18970696552E+04  0.19166917501E+04  0.12500000000E+03 0.  0.
         21    1    1    2  503  504 -0.47227555372E+02 -0.44315968036E+02 -0.40852032531E+02  0.76571767455E+02  0.00000000000E+00 0. -1.
         21    1    1    2  504  502 -0.12576927268E+03  0.21543313672E+03 -0.31761339124E+03  0.40386583495E+03  0.00000000000E+00 0.  1.
<mgrwt>
<rscale>  4 0.27342362E+03</rscale>
<asrwt>0</asrwt>
<pdfrwt beam="1">  1       21 0.10891867E-01 0.27342362E+03</pdfrwt>
<pdfrwt beam="2">  1       21 0.35789727E+00 0.27342362E+03</pdfrwt>
<totfact> 0.99163270E+02</totfact>
</mgrwt>
</event>
<event>
 5    0  0.1200001E+000  0.4733465E+03  0.7546771E-02  0.1020980E+00
         21   -1    0    0  503  501  0.00000000000E+00  0.00000000000E+00  0.12126486588E+04  0.12126486588E+04  0.00000000000E+00 0.  1.
         21   -1    0    0  501  502 -0.00000000000E+00 -0.00000000000E+00 -0.18590419283E+03  0.18590419283E+03  0.00000000000E+00 0.  1.
         25    1    1    2    0    0 -0.42756469793E+03 -0.16006341194E+03  0.39681910743E+03  0.61767489085E+03  0.12500000000E+03 0.  0.
         21    1    1    2  503  504  0.20115697376E+02  0.20504598319E+02  0.59994702606E+02  0.66516495502E+02  0.00000000000E+00 0. -1.
         21    1    1    2  504  502  0.40744900056E+03  0.13955881362E+03  0.56993065593E+03  0.71436146529E+03  0.00000000000E+00 0.  1.
<mgrwt>
<rscale>  4 0.47334646E+03</rscale>
<asrwt>0</asrwt>
<pdfrwt beam="1">  1       21 0.18656133E+00 0.47334646E+03</pdfrwt>
<pdfrwt beam="2">  1       21 0.28600646E-01 0.47334646E+03</pdfrwt>
<totfact> 0.16089968E+03</totfact>
</mgrwt>
</event>
<event>
 5    0  0.1200001E+000  0.2364154E+03  0.7546771E-02  0.1122204E+00
         21   -1    0    0  503  501  0.00000000000E+00  0.00000000000E+00  0.26605064817E+03  0.26605064817E+03  0.00000000000E+00 0.  1.
         21   -1    0    0  504  502 -0.00000000000E+00 -0.00000000000E+00 -0.66647734554E+03  0.66647734554E+03  0.00000000000E+00 0.  1.
         25    1    1    2    0    0 -0.14898699608E+03 -0.13442514575E+03 -0.59803513975E+03  0.64306941552E+03  0.12500000000E+03 0.  0.
         21    1    1    2  503  502  0.11819578975E+03  0.13610709804E+03  0.17484448432E+03  0.25112940996E+03  0.00000000000E+00 0.  1.
         21    1    1    2  504  501  0.30791206327E+02 -0.16819522908E+01  0.22763958062E+02  0.38329168230E+02  0.00000000000E+00 0.  1.
<mgrwt>
<rscale>  4 0.23641541E+03</rscale>
<asrwt>0</asrwt>
<pdfrwt beam="1">  1       21 0.40930869E-01 0.23641541E+03</pdfrwt>
<pdfrwt beam="2">  1       21 0.10253498E+00 0.23641541E+03</pdfrwt>
<totfact> 0.43020429E+03</totfact>
</mgrwt>
</event>
<event>
 5    0  0.1200001E+000  0.2980026E+03  0.7546771E-02  0.1086243E+00
         21   -1    0    0  503  501  0.00000000000E+00  0.00000000000E+00  0.30677652371E+03  0.30677652371E+03  0.00000000000E+00 0.  1.
         21   -1    0    0  504  502 -0.00000000000E+00 -0.00000000000E+00 -0.65732336368E+03  0.65732336368E+03  0.00000000000E+00 0.  1.
         25    1    1    2    0    0  0.13182745093E+03 -0.24144774980E+03 -0.27794616491E+03  0.41055397123E+03  0.12500000000E+03 0.  0.
         21    1    1    2  503  502 -0.20972921462E+03  0.17814012780E+03 -0.23550859065E+03  0.36219407073E+03  0.00000000000E+00 0.  1.
         21    1    1    2  504  501  0.77901763683E+02  0.63307622000E+02  0.16290791559E+03  0.19135184543E+03  0.00000000000E+00 0.  1.
<mgrwt>
<rscale>  4 0.29800262E+03</rscale>
<asrwt>0</asrwt>
<pdfrwt beam="1">  1       21 0.47196389E-01 0.29800262E+03</pdfrwt>
<pdfrwt beam="2">  1       21 0.10112667E+00 0.29800262E+03</pdfrwt>
<totfact> 0.31925604E+03</totfact>
</mgrwt>
</event>
<event>
 5    0  0.1200001E+000  0.2482755E+03  0.7546771E-02  0.1114400E+00
         21   -1    0    0  503  501  0.00000000000E+00  0.00000000000E+00  0.73072922978E+03  0.73072922978E+03  0.00000000000E+00 0.  1.
         21   -1    0    0  501  502 -0.00000000000E+00 -0.00000000000E+00 -0.13406415012E+03  0.13406415012E+03  0.00000000000E+00 0.  1.
         25    1    1    2    0    0  0.22635858785E+03 -0.24257847196E+02  0.24736521451E+03  0.35866586511E+03  0.12500000000E+03 0.  0.
         21    1    1    2  503  504 -0.20833508704E+02 -0.11465881170E+02  0.28760859994E+03  0.28859003495E+03  0.00000000000E+00 0.  1.
         21    1    1    2  504  502 -0.20552507915E+03  0.35723728366E+02  0.61691265218E+02  0.21753747983E+03  0.00000000000E+00 0.  1.
<mgrwt>
<rscale>  4 0.24827555E+03</rscale>
<asrwt>0</asrwt>
<pdfrwt beam="1">  1       21 0.11241988E+00 0.24827555E+03</pdfrwt>
<pdfrwt beam="2">  1       21 0.20625254E-01 0.24827555E+03</pdfrwt>
<totfact> 0.13042617E+04</totfact>
</mgrwt>
</event>
<event>
 5    0  0.1200001E+000  0.2460745E+03  0.7546771E-02  0.1115811E+00
         21   -1    0    0  503  501  0.00000000000E+00  0.00000000000E+00  0.86246474145E+02  0.86246474145E+02  0.00000000000E+00 0.  1.
         21   -1    0    0  504  502 -0.00000000000E+00 -0.00000000000E+00 -0.81271351559E+03  0.81271351559E+03  0.00000000000E+00 0.  1.
         25    1    1    2    0    0 -0.20587872078E+03  0.42721643959E+01 -0.20053044921E+03  0.31343541618E+03  0.12500000000E+03 0.  0.
         21    1    1    2  503  502  0.21384817375E+03  0.17011610987E+02 -0.51927348637E+03  0.56184107181E+03  0.00000000000E+00 0.  1.
         21    1    1    2  504  501 -0.79694529661E+01 -0.21283775383E+02 -0.66631058713E+01  0.23683501746E+02  0.00000000000E+00 0.  1.
<mgrwt>
<rscale>  4 0.24607450E+03</rscale>
<asrwt>0</asrwt>
<pdfrwt beam="1">  1       21 0.13268689E-01 0.24607450E+03</pdfrwt>
<pdfrwt beam="2">  1       21 0.12503285E+00 0.24607450E+03</pdfrwt>
<totfact> 0.22647228E+04</totfact>
</mgrwt>
</event>
<event>
 5    0  0.1200001E+000  0.2595129E+03  0.7546771E-02  0.1107436E+00
         21   -1    0    0  503  501  0.00000000000E+00  0.00000000000E+00  0.91978056284E+03  0.91978056284E+03  0.00000000000E+00 0.  1.
         21   -1    0    0  501  502 -0.00000000000E+00 -0.00000000000E+00 -0.19994622318E+03  0.19994622318E+03  0.00000000000E+00 0.  1.
         25    1    1    2    0    0  0.18370722558E+03  0.17176719137E+03 -0.55127649987E+02  0.28621036067E+03  0.12500000000E+03 0.  0.
         21    1    1    2  503  504 -0.15152495948E+03 -0.24989965628E+02  0.45029528859E+03  0.47576271255E+03  0.00000000000E+00 0.  1.
         21    1    1    2  504  502 -0.32182266096E+02 -0.14677722574E+03  0.32466670106E+03  0.35775371280E+03  0.00000000000E+00 0.  1.
<mgrwt>
<rscale>  4 0.25951285E+03</rscale>
<asrwt>0</asrwt>
<pdfrwt beam="1">  1       21 0.14150470E+00 0.25951285E+03</pdfrwt>
<pdfrwt beam="2">  1       21 0.30760958E-01 0.25951285E+03</pdfrwt>
<totfact> 0.33539393E+03</totfact>
</mgrwt>
</event>
<event>
 5    0  0.1200001E+000  0.3387272E+03  0.7546771E-02  0.1067339E+00
         21   -1    0    0  503  501  0.00000000000E+00  0.00000000000E+00  0.56142177950E+03  0.56142177950E+03  0.00000000000E+00 0. -1.
         21   -1    0    0  501  502 -0.00000000000E+00 -0.00000000000E+00 -0.27194843565E+03  0.27194843565E+03  0.00000000000E+00 0. -1.
         25    1    1    2    0    0 -0.20914291054E+03  0.24142412368E+03 -0.23881431933E+02  0.34383380770E+03  0.12500000000E+03 0.  0.
         21    1    1    2  503  504 -0.12662836985E+02 -0.28095491050E+02  0.12496178684E+03  0.12870568063E+03  0.00000000000E+00 0.  1.
         21    1    1    2  504  502  0.22180574752E+03 -0.21332863263E+03  0.18839298894E+03  0.36083072682E+03  0.00000000000E+00 0. -1.
<mgrwt>
<rscale>  4 0.33872716E+03</rscale>
<asrwt>0</asrwt>
<pdfrwt beam="1">  1       21 0.86372581E-01 0.33872716E+03</pdfrwt>
<pdfrwt beam="2">  1       21 0.41838221E-01 0.33872716E+03</pdfrwt>
<totfact> 0.58362677E+03</totfact>
</mgrwt>
</event>
<event>
 5    0  0.1200001E+000  0.2558104E+03  0.7546771E-02  0.1109687E+00
         21   -1    0    0  503  501  0.00000000000E+00  0.00000000000E+00  0.59719368153E+03  0.59719368153E+03  0.00000000000E+00 0. -1.
         21   -1    0    0  501  502 -0.00000000000E+00 -0.00000000000E+00 -0.76374299756E+03  0.76374299756E+03  0.00000000000E+00 0.  1.
         25    1    1    2    0    0  0.22308260065E+03 -0.20076305417E+02 -0.47668493053E+03  0.54131546048E+03  0.12500000000E+03 0.  0.
         21    1    1    2  503  504 -0.20162733035E+02 -0.10182548789E+03  0.50342265551E+03  0.51401297248E+03  0.00000000000E+00 0. -1.
         21    1    1    2  504  502 -0.20291986762E+03  0.12190179331E+03 -0.19328704101E+03  0.30560824614E+03  0.00000000000E+00 0.  1.
<mgrwt>
<rscale>  4 0.25581036E+03</rscale>
<asrwt>0</asrwt>
<pdfrwt beam="1">  1       21 0.91875951E-01 0.25581036E+03</pdfrwt>
<pdfrwt beam="2">  1       21 0.11749892E+00 0.25581036E+03</pdfrwt>
<totfact> 0.52392578E+02</totfact>
</mgrwt>
</event>
<event>
 5    0  0.1200001E+000  0.4764506E+03  0.7546771E-02  0.1020115E+00
         21   -1    0    0  502  501  0.00000000000E+00  0.00000000000E+00  0.66591166882E+03  0.66591166882E+03  0.00000000000E+00 0.  1.
         21   -1    0    0  504  502 -0.00000000000E+00 -0.00000000000E+00 -0.78840351802E+03  0.78840351802E+03  0.00000000000E+00 0.  1.
         25    1    1    2    0    0  0.11816684721E+03 -0.54141834097E+03 -0.18882132504E+03  0.59864490018E+03  0.12500000000E+03 0.  0.
         21    1    1    2  503  501 -0.33218558708E+03  0.15856912760E+03  0.16926536668E+03  0.40514466163E+03  0.00000000000E+00 0.  1.
         21    1    1    2  504  503  0.21401873987E+03  0.38284921337E+03 -0.10293589084E+03  0.45052562504E+03  0.00000000000E+00 0.  1.
<mgrwt>
<rscale>  4 0.47645059E+03</rscale>
<asrwt>0</asrwt>
<pdfrwt beam="1">  1       21 0.10244795E+00 0.47645059E+03</pdfrwt>
<pdfrwt beam="2">  1       21 0.12129285E+00 0.47645059E+03</pdfrwt>
<totfact> 0.32597098E+02</totfact>
</mgrwt>
</event>
<event>
 5    0  0.1200001E+000  0.4644153E+03  0.7546771E-02  0.1023508E+00
         21   -1    0    0  503  501  0.00000000000E+00  0.00000000000E+00  0.28334597500E+03  0.28334597500E+03  0.00000000000E+00 0.  1.
         21   -1    0    0  504  502 -0.00000000000E+00 -0.00000000000E+00 -0.17700436555E+04  0.17700436555E+04  0.00000000000E+00 0.  1.
         25    1    1    2    0    0  0.16507719768E+02 -0.44071456036E+03 -0.14380866409E+04  0.15093773601E+04  0.12500000000E+03 0.  0.
         21    1    1    2  503  502  0.12781818631E+02  0.48693773544E+03 -0.44642991473E+02  0.48914694088E+03  0.00000000000E+00 0.  1.
         21    1    1    2  504  501 -0.29289538399E+02 -0.46223175087E+02 -0.39680481323E+01  0.54865329496E+02  0.00000000000E+00 0. -1.
<mgrwt>
<rscale>  4 0.46441534E+03</rscale>
<asrwt>0</asrwt>
<pdfrwt beam="1">  1       21 0.43591689E-01 0.46441534E+03</pdfrwt>
<pdfrwt beam="2">  1       21 0.27231440E+00 0.46441534E+03</pdfrwt>
<totfact> 0.19536500E+02</totfact>
</mgrwt>
</event>
<event>
 5    0  0.1200001E+000  0.3368968E+03  0.7546771E-02  0.1068125E+00
         21   -1    0    0  503  501  0.00000000000E+00  0.00000000000E+00  0.20158369033E+03  0.20158369033E+03  0.00000000000E+00 0. -1.
         21   -1    0    0  504  502 -0.00000000000E+00 -0.00000000000E+00 -0.15259269818E+04  0.15259269818E+04  0.00000000000E+00 0.  1.
         25    1    1    2    0    0  0.17894373970E+03  0.21381085820E+03 -0.85559192733E+03  0.90851444192E+03  0.12500000000E+03 0.  0.
         21    1    1    2  503  502 -0.27126263123E+03 -0.28760273408E+03 -0.54871222408E+03  0.67630159885E+03  0.00000000000E+00 0.  1.
         21    1    1    2  504  501  0.92318891528E+02  0.73791875886E+02  0.79960859977E+02  0.14269463132E+03  0.00000000000E+00 0. -1.
<mgrwt>
<rscale>  4 0.33689683E+03</rscale>
<asrwt>0</asrwt>
<pdfrwt beam="1">  1       21 0.31012877E-01 0.33689683E+03</pdfrwt>
<pdfrwt beam="2">  1       21 0.23475799E+00 0.33689683E+03</pdfrwt>
<totfact> 0.71591603E+02</totfact>
</mgrwt>
</event>
<event>
 5    0  0.1200001E+000  0.2281900E+03  0.7546771E-02  0.1127920E+00
         21   -1    0    0  503  501  0.00000000000E+00  0.00000000000E+00  0.95065418008E+03  0.95065418008E+03  0.00000000000E+00 0. -1.
         21   -1    0    0  504  502 -0.00000000000E+00 -0.00000000000E+00 -0.12893442382E+03  0.12893442382E+03  0.00000000000E+00 0. -1.
         25    1    1    2    0    0  0.20311388532E+03 -0.41596164058E+02  0.25219543250E+02  0.24340607354E+03  0.12500000000E+03 0.  0.
         21    1    1    2  503  502 -0.11388331991E+03 -0.21342166933E+01  0.64514023245E+03  0.65511822212E+03  0.00000000000E+00 0. -1.
         21    1    1    2  504  501 -0.89230565407E+02  0.43730380751E+02  0.15135998056E+03  0.18106430824E+03  0.00000000000E+00 0. -1.
<mgrwt>
<rscale>  4 0.22818998E+03</rscale>
<asrwt>0</asrwt>
<pdfrwt beam="1">  1       21 0.14625448E+00 0.22818998E+03</pdfrwt>
<pdfrwt beam="2">  1       21 0.19836066E-01 0.22818998E+03</pdfrwt>
<totfact> 0.72900737E+03</totfact>
</mgrwt>
</event>
<event>
 5    0  0.1200001E+000  0.2769712E+03  0.7546771E-02  0.1097355E+00
         21   -1    0    0  503  501  0.00000000000E+00  0.00000000000E+00  0.20481321655E+03  0.20481321655E+03  0.00000000000E+00 0. -1.
         21   -1    0    0  504  502 -0.00000000000E+00 -0.00000000000E+00 -0.47417416162E+03  0.47417416162E+03  0.00000000000E+00 0. -1.
         25    1    1    2    0    0  0.96071346223E+02  0.23595682587E+03 -0.27520776944E+03  0.39530955415E+03  0.12500000000E+03 0.  0.
         21    1    1    2  503  502 -0.78595707027E+02 -0.22093498261E+03 -0.34688076932E+02  0.23705023599E+03  0.00000000000E+00 0. -1.
         21    1    1    2  504  501 -0.17475639196E+02 -0.15021843262E+02  0.40534901313E+02  0.46627588022E+02  0.00000000000E+00 0.  1.
<mgrwt>
<rscale>  4 0.27697124E+03</rscale>
<asrwt>0</asrwt>
<pdfrwt beam="1">  1       21 0.31509726E-01 0.27697124E+03</pdfrwt>
<pdfrwt beam="2">  1       21 0.72949869E-01 0.27697124E+03</pdfrwt>
<totfact> 0.15636452E+04</totfact>
</mgrwt>
</event>
<event>
 5    0  0.1200001E+000  0.2701171E+03  0.7546771E-02  0.1101213E+00
         21   -1    0    0  503  501  0.00000000000E+00  0.00000000000E+00  0.39223329245E+03  0.39223329245E+03  0.00000000000E+00 0.  1.
         21   -1    0    0  504  502 -0.00000000000E+00 -0.00000000000E+00 -0.46026119369E+03  0.46026119369E+03  0.00000000000E+00 0.  1.
         25    1    1    2    0    0 -0.25707347931E+01  0.24500674622E+03 -0.35985387799E+03  0.45294009303E+03  0.12500000000E+03 0.  0.
         21    1    1    2  503  502 -0.19288392126E+02 -0.20147393922E+03  0.28617674412E+03  0.35051521954E+03  0.00000000000E+00 0.  1.
         21    1    1    2  504  501  0.21859126919E+02 -0.43532806999E+02  0.56492326287E+01  0.49039173568E+02  0.00000000000E+00 0.  1.
<mgrwt>
<rscale>  4 0.27011709E+03</rscale>
<asrwt>0</asrwt>
<pdfrwt beam="1">  1       21 0.60343584E-01 0.27011709E+03</pdfrwt>
<pdfrwt beam="2">  1       21 0.70809414E-01 0.27011709E+03</pdfrwt>
<totfact> 0.43842075E+03</totfact>
</mgrwt>
</event>
<event>
 5    0  0.1200001E+000  0.2272384E+03  0.7546771E-02  0.1128599E+00
         21   -1    0    0  503  501  0.00000000000E+00  0.00000000000E+00  0.60950906206E+03  0.60950906206E+03  0.00000000000E+00 0.  1.
         21   -1    0    0  501  502 -0.00000000000E+00 -0.00000000000E+00 -0.18656755855E+03  0.18656755855E+03  0.00000000000E+00 0. -1.
         25    1    1    2    0    0  0.64860138724E+02 -0.19401261567E+03 -0.34519226673E+02  0.24220716266E+03  0.12500000000E+03 0.  0.
         21    1    1    2  503  504  0.64748907419E+02  0.16508942247E+03  0.29303124401E+03  0.34251167628E+03  0.00000000000E+00 0.  1.
         21    1    1    2  504  502 -0.12960904614E+03  0.28923193200E+02  0.16442948618E+03  0.21135778167E+03  0.00000000000E+00 0.  1.
<mgrwt>
<rscale>  4 0.22723843E+03</rscale>
<asrwt>0</asrwt>
<pdfrwt beam="1">  1       21 0.93770624E-01 0.22723843E+03</pdfrwt>
<pdfrwt beam="2">  1       21 0.28702702E-01 0.22723843E+03</pdfrwt>
<totfact> 0.10839917E+04</totfact>
</mgrwt>
</event>
<event>
 5    0  0.1200001E+000  0.2737499E+03  0.7546771E-02  0.1099152E+00
         21   -1    0    0  502  501  0.00000000000E+00  0.00000000000E+00  0.11433806580E+04  0.11433806580E+04  0.00000000000E+00 0.  1.
         21   -1    0    0  503  502 -0.00000000000E+00 -0.00000000000E+00 -0.15079685599E+03  0.15079685599E+03  0.00000000000E+00 0. -1.
         25    1    1    2    0    0 -0.20726857643E+02 -0.25270031419E+03  0.55247986575E+02  0.28803539963E+03  0.12500000000E+03 0.  0.
         21    1    1    2  503  504 -0.10013660001E+03  0.67783291436E+02  0.17698365112E+03  0.21434814211E+03  0.00000000000E+00 0.  1.
         21    1    1    2  504  501  0.12086345766E+03  0.18491702276E+03  0.76035216435E+03  0.79179397228E+03  0.00000000000E+00 0.  1.
<mgrwt>
<rscale>  4 0.27374991E+03</rscale>
<asrwt>0</asrwt>
<pdfrwt beam="1">  1       21 0.17590471E+00 0.27374991E+03</pdfrwt>
<pdfrwt beam="2">  1       21 0.23199517E-01 0.27374991E+03</pdfrwt>
<totfact> 0.31767776E+03</totfact>
</mgrwt>
</event>
<event>
 5    0  0.1200001E+000  0.2927476E+03  0.7546771E-02  0.1088923E+00
         21   -1    0    0  503  501  0.00000000000E+00  0.00000000000E+00  0.62735467695E+02  0.62735467695E+02  0.00000000000E+00 0.  1.
         21   -1    0    0  501  502 -0.00000000000E+00 -0.00000000000E+00 -0.30763653593E+04  0.30763653593E+04  0.00000000000E+00 0. -1.
         25    1    1    2    0    0 -0.19560152475E+03  0.18216204186E+03 -0.26580995611E+04  0.26744272738E+04  0.12500000000E+03 0.  0.
         21    1    1    2  503  504  0.21713791138E+02  0.11101733334E+01  0.69617387552E+01  0.22829520733E+02  0.00000000000E+00 0. -1.
         21    1    1    2  504  502  0.17388773361E+03 -0.18327221520E+03 -0.36249206923E+03  0.44184403246E+03  0.00000000000E+00 0.  1.
<mgrwt>
<rscale>  4 0.29274762E+03</rscale>
<asrwt>0</asrwt>
<pdfrwt beam="1">  1       21 0.96516105E-02 0.29274762E+03</pdfrwt>
<pdfrwt beam="2">  1       21 0.47328698E+00 0.29274762E+03</pdfrwt>
<totfact> 0.21765868E+02</totfact>
</mgrwt>
</event>
<event>
 5    0  0.1200001E+000  0.4013391E+03  0.7546771E-02  0.1043317E+00
         21   -1    0    0  503  501  0.00000000000E+00  0.00000000000E+00  0.24632655792E+03  0.24632655792E+03  0.00000000000E+00 0.  1.
         21   -1    0    0  504  502 -0.00000000000E+00 -0.00000000000E+00 -0.10194111686E+04  0.10194111686E+04  0.00000000000E+00 0.  1.
         25    1    1    2    0    0  0.16453662880E+03 -0.37297773487E+03 -0.48816324376E+03  0.64816128046E+03  0.12500000000E+03 0.  0.
         21    1    1    2  503  502 -0.10097402067E+03  0.34429683329E+03 -0.36470645412E+03  0.51161202091E+03  0.00000000000E+00 0.  1.
         21    1    1    2  504  501 -0.63562608137E+02  0.28680901586E+02  0.79785087170E+02  0.10596442518E+03  0.00000000000E+00 0.  1.
<mgrwt>
<rscale>  4 0.40133915E+03</rscale>
<asrwt>0</asrwt>
<pdfrwt beam="1">  1       21 0.37896393E-01 0.40133915E+03</pdfrwt>
<pdfrwt beam="2">  1       21 0.15683249E+00 0.40133915E+03</pdfrwt>
<totfact> 0.15493172E+03</totfact>
</mgrwt>
</event>
<event>
 5    0  0.1200001E+000  0.2499549E+03  0.7546771E-02  0.1113333E+00
         21   -1    0    0  502  501  0.00000000000E+00  0.00000000000E+00  0.11762127511E+03  0.11762127511E+03  0.00000000000E+00 0. -1.
         21   -1    0    0  504  502 -0.00000000000E+00 -0.00000000000E+00 -0.49619416080E+03  0.49619416080E+03  0.00000000000E+00 0. -1.
         25    1    1    2    0    0  0.61602962205E+02  0.20750306499E+03 -0.26904230578E+03  0.36723454254E+03  0.12500000000E+03 0.  0.
         21    1    1    2  503  501 -0.42866929554E+02 -0.10407017721E+03 -0.77639396683E+02  0.13673350486E+03  0.00000000000E+00 0. -1.
         21    1    1    2  504  503 -0.18736032651E+02 -0.10343288779E+03 -0.31891183223E+02  0.10984738851E+03  0.00000000000E+00 0. -1.
<mgrwt>
<rscale>  4 0.24995489E+03</rscale>
<asrwt>0</asrwt>
<pdfrwt beam="1">  1       21 0.18095581E-01 0.24995489E+03</pdfrwt>
<pdfrwt beam="2">  1       21 0.76337563E-01 0.24995489E+03</pdfrwt>
<totfact> 0.41352200E+04</totfact>
</mgrwt>
</event>
<event>
 5    0  0.1200001E+000  0.2290936E+03  0.7546771E-02  0.1127279E+00
         21   -1    0    0  502  501  0.00000000000E+00  0.00000000000E+00  0.52434377686E+03  0.52434377686E+03  0.00000000000E+00 0. -1.
         21   -1    0    0  503  502 -0.00000000000E+00 -0.00000000000E+00 -0.36360974860E+03  0.36360974860E+03  0.00000000000E+00 0.  1.
         25    1    1    2    0    0  0.72330433098E+02  0.18807620273E+03 -0.27343624040E+03  0.36193470012E+03  0.12500000000E+03 0.  0.
         21    1    1    2  503  504  0.35144331162E+02 -0.11269792505E+03  0.66225810789E+02  0.13535805974E+03  0.00000000000E+00 0.  1.
         21    1    1    2  504  501 -0.10747476426E+03 -0.75378277688E+02  0.36794445787E+03  0.39066076560E+03  0.00000000000E+00 0. -1.
<mgrwt>
<rscale>  4 0.22909356E+03</rscale>
<asrwt>0</asrwt>
<pdfrwt beam="1">  1       21 0.80668273E-01 0.22909356E+03</pdfrwt>
<pdfrwt beam="2">  1       21 0.55939962E-01 0.22909356E+03</pdfrwt>
<totfact> 0.39494093E+03</totfact>
</mgrwt>
</event>
<event>
 5    0  0.1200001E+000  0.2900274E+03  0.7546771E-02  0.1090335E+00
         21   -1    0    0  503  501  0.00000000000E+00  0.00000000000E+00  0.25750321339E+03  0.25750321339E+03  0.00000000000E+00 0. -1.
         21   -1    0    0  504  502 -0.00000000000E+00 -0.00000000000E+00 -0.75145636505E+03  0.75145636505E+03  0.00000000000E+00 0. -1.
         25    1    1    2    0    0 -0.17075887070E+03  0.16649653196E+03 -0.17736883849E+03  0.32243509726E+03  0.12500000000E+03 0.  0.
         21    1    1    2  503  502  0.23181976921E+03 -0.14931571879E+03 -0.45626437511E+03  0.53311609362E+03  0.00000000000E+00 0. -1.
         21    1    1    2  504  501 -0.61060898516E+02 -0.17180813168E+02  0.13968006195E+03  0.15340838756E+03  0.00000000000E+00 0. -1.
<mgrwt>
<rscale>  4 0.29002743E+03</rscale>
<asrwt>0</asrwt>
<pdfrwt beam="1">  1       21 0.39615879E-01 0.29002743E+03</pdfrwt>
<pdfrwt beam="2">  1       21 0.11560867E+00 0.29002743E+03</pdfrwt>
<totfact> 0.33183869E+03</totfact>
</mgrwt>
</event>
<event>
 5    0  0.1200001E+000  0.2450819E+03  0.7546771E-02  0.1116453E+00
         21   -1    0    0  503  501  0.00000000000E+00  0.00000000000E+00  0.28493085798E+03  0.28493085798E+03  0.00000000000E+00 0.  1.
         21   -1    0    0  504  502 -0.00000000000E+00 -0.00000000000E+00 -0.81489718021E+03  0.81489718021E+03  0.00000000000E+00 0.  1.
         25    1    1    2    0    0 -0.86035665748E+02  0.20376560181E+03 -0.67010769125E+03  0.71665324540E+03  0.12500000000E+03 0.  0.
         21    1    1    2  503  502  0.99294159683E+01 -0.18541261812E+03 -0.37158409084E+02  0.18935992086E+03  0.00000000000E+00 0.  1.
         21    1    1    2  504  501  0.76106249780E+02 -0.18352983689E+02  0.17729977810E+03  0.19381487193E+03  0.00000000000E+00 0.  1.
<mgrwt>
<rscale>  4 0.24508188E+03</rscale>
<asrwt>0</asrwt>
<pdfrwt beam="1">  1       21 0.43835517E-01 0.24508188E+03</pdfrwt>
<pdfrwt beam="2">  1       21 0.12536880E+00 0.24508188E+03</pdfrwt>
<totfact> 0.22671921E+03</totfact>
</mgrwt>
</event>
<event>
 5    0  0.1200001E+000  0.2437080E+03  0.7546771E-02  0.1117347E+00
         21   -1    0    0  503  501  0.00000000000E+00  0.00000000000E+00  0.41853959510E+03  0.41853959510E+03  0.00000000000E+00 0. -1.
         21   -1    0    0  504  502 -0.00000000000E+00 -0.00000000000E+00 -0.32928854543E+03  0.32928854543E+03  0.00000000000E+00 0. -1.
         25    1    1    2    0    0 -0.14666255872E+03  0.14999669104E+03 -0.17924409946E+03  0.30292302759E+03  0.12500000000E+03 0.  0.
         21    1    1    2  503  502  0.21992568089E+03 -0.64746128615E+02  0.12030532209E+03  0.25890681105E+03  0.00000000000E+00 0. -1.
         21    1    1    2  504  501 -0.73263122171E+02 -0.85250562428E+02  0.14818982704E+03  0.18599830189E+03  0.00000000000E+00 0. -1.
<mgrwt>
<rscale>  4 0.24370796E+03</rscale>
<asrwt>0</asrwt>
<pdfrwt beam="1">  1       21 0.64390707E-01 0.24370796E+03</pdfrwt>
<pdfrwt beam="2">  1       21 0.50659776E-01 0.24370796E+03</pdfrwt>
<totfact> 0.79753136E+03</totfact>
</mgrwt>
</event>
<event>
 5    0  0.1200001E+000  0.3981385E+03  0.7546771E-02  0.1044426E+00
         21   -1    0    0  503  501  0.00000000000E+00  0.00000000000E+00  0.52953691089E+03  0.52953691089E+03  0.00000000000E+00 0.  1.
         21   -1    0    0  504  502 -0.00000000000E+00 -0.00000000000E+00 -0.17448222992E+04  0.17448222992E+04  0.00000000000E+00 0.  1.
         25    1    1    2    0    0  0.14817349592E+03  0.35067654910E+03 -0.15597937594E+04  0.16104381388E+04  0.12500000000E+03 0.  0.
         21    1    1    2  503  502 -0.50872539420E+02 -0.36208615254E+03  0.69771573046E+02  0.37223980111E+03  0.00000000000E+00 0.  1.
         21    1    1    2  504  501 -0.97300956501E+02  0.11409603440E+02  0.27473679804E+03  0.29168127020E+03  0.00000000000E+00 0.  1.
<mgrwt>
<rscale>  4 0.39813852E+03</rscale>
<asrwt>0</asrwt>
<pdfrwt beam="1">  1       21 0.81467218E-01 0.39813852E+03</pdfrwt>
<pdfrwt beam="2">  1       21 0.26843420E+00 0.39813852E+03</pdfrwt>
<totfact> 0.54718894E+01</totfact>
</mgrwt>
</event>
<event>
 5    0  0.1200001E+000  0.2735949E+03  0.7546771E-02  0.1099240E+00
         21   -1    0    0  503  501  0.00000000000E+00  0.00000000000E+00  0.62347963306E+03  0.62347963306E+03  0.00000000000E+00 0. -1.
         21   -1    0    0  504  502 -0.00000000000E+00 -0.00000000000E+00 -0.47074713097E+03  0.47074713097E+03  0.00000000000E+00 0. -1.
         25    1    1    2    0    0 -0.20588901023E+03 -0.13950706906E+03 -0.17689722718E+03  0.32980317741E+03  0.12500000000E+03 0.  0.
         21    1    1    2  503  502  0.20832769947E+03  0.11745997468E+03 -0.15128869128E+03  0.28299389415E+03  0.00000000000E+00 0. -1.
         21    1    1    2  504  501 -0.24386892400E+01  0.22047094376E+02  0.48091842054E+03  0.48142969247E+03  0.00000000000E+00 0. -1.
<mgrwt>
<rscale>  4 0.27359493E+03</rscale>
<asrwt>0</asrwt>
<pdfrwt beam="1">  1       21 0.95919943E-01 0.27359493E+03</pdfrwt>
<pdfrwt beam="2">  1       21 0.72422636E-01 0.27359493E+03</pdfrwt>
<totfact> 0.14577688E+03</totfact>
</mgrwt>
</event>
<event>
 5    0  0.1200001E+000  0.2507630E+03  0.7546771E-02  0.1112824E+00
         21   -1    0    0  502  501  0.00000000000E+00  0.00000000000E+00  0.25350128960E+04  0.25350128960E+04  0.00000000000E+00 0.  1.
         21   -1    0    0  503  502 -0.00000000000E+00 -0.00000000000E+00 -0.22669293257E+02  0.22669293257E+02  0.00000000000E+00 0.  1.
         25    1    1    2    0    0 -0.38280857125E+02 -0.21398985287E+03  0.12931424303E+04  0.13172317284E+04  0.12500000000E+03 0.  0.
         21    1    1    2  503  504 -0.17127230097E+02  0.21358698686E+02  0.18357420491E+03  0.18560448467E+03  0.00000000000E+00 0. -1.
         21    1    1    2  504  501  0.55408087222E+02  0.19263115418E+03  0.10356269675E+04  0.10548459762E+04  0.00000000000E+00 0.  1.
<mgrwt>
<rscale>  4 0.25076300E+03</rscale>
<asrwt>0</asrwt>
<pdfrwt beam="1">  1       21 0.39000176E+00 0.25076300E+03</pdfrwt>
<pdfrwt beam="2">  1       21 0.34875856E-02 0.25076300E+03</pdfrwt>
<totfact> 0.46206721E+03</totfact>
</mgrwt>
</event>
<event>
 5    0  0.1200001E+000  0.4373024E+03  0.7546771E-02  0.1031578E+00
         21   -1    0    0  503  501  0.00000000000E+00  0.00000000000E+00  0.39911894165E+03  0.39911894165E+03  0.00000000000E+00 0. -1.
         21   -1    0    0  501  502 -0.00000000000E+00 -0.00000000000E+00 -0.60434209800E+03  0.60434209800E+03  0.00000000000E+00 0.  1.
         25    1    1    2    0    0 -0.12023030385E+03  0.40143873771E+03 -0.33119428729E+03  0.54856452859E+03  0.12500000000E+03 0.  0.
         21    1    1    2  503  504  0.44664562150E+02 -0.21215930670E+02  0.14151171812E+02  0.51432426444E+02  0.00000000000E+00 0.  1.
         21    1    1    2  504  502  0.75565741704E+02 -0.38022280704E+03  0.11181995913E+03  0.40346408461E+03  0.00000000000E+00 0. -1.
<mgrwt>
<rscale>  4 0.43730240E+03</rscale>
<asrwt>0</asrwt>
<pdfrwt beam="1">  1       21 0.61402914E-01 0.43730240E+03</pdfrwt>
<pdfrwt beam="2">  1       21 0.92975707E-01 0.43730240E+03</pdfrwt>
<totfact> 0.20841716E+03</totfact>
</mgrwt>
</event>
<event>
 5    0  0.1200001E+000  0.2694781E+03  0.7546771E-02  0.1101579E+00
         21   -1    0    0  503  501  0.00000000000E+00  0.00000000000E+00  0.28189529090E+03  0.28189529090E+03  0.00000000000E+00 0.  1.
         21   -1    0    0  501  502 -0.00000000000E+00 -0.00000000000E+00 -0.77362089836E+03  0.77362089836E+03  0.00000000000E+00 0.  1.
         25    1    1    2    0    0 -0.21221958542E+03 -0.46224124930E+02 -0.49102962114E+03  0.55127934026E+03  0.12500000000E+03 0.  0.
         21    1    1    2  503  504 -0.12972999574E+03 -0.59153879316E+02  0.27876006108E+02  0.14527947188E+03  0.00000000000E+00 0.  1.
         21    1    1    2  504  502  0.34194958116E+03  0.10537800425E+03 -0.28571992431E+02  0.35895737712E+03  0.00000000000E+00 0.  1.
<mgrwt>
<rscale>  4 0.26947813E+03</rscale>
<asrwt>0</asrwt>
<pdfrwt beam="1">  1       21 0.43368506E-01 0.26947813E+03</pdfrwt>
<pdfrwt beam="2">  1       21 0.11901860E+00 0.26947813E+03</pdfrwt>
<totfact> 0.25973435E+03</totfact>
</mgrwt>
</event>
<event>
 5    0  0.1200001E+000  0.3191534E+03  0.7546771E-02  0.1076040E+00
         21   -1    0    0  503  501  0.00000000000E+00  0.00000000000E+00  0.59439353744E+03  0.59439353744E+03  0.00000000000E+00 0. -1.
         21   -1    0    0  504  502 -0.00000000000E+00 -0.00000000000E+00 -0.64898813622E+03  0.64898813622E+03  0.00000000000E+00 0. -1.
         25    1    1    2    0    0 -0.30937834288E+03 -0.55562948862E+02 -0.40155801505E+03  0.52504860707E+03  0.12500000000E+03 0.  0.
         21    1    1    2  503  502  0.19413836925E+03 -0.23154684633E+03  0.87554865130E+02  0.31459418759E+03  0.00000000000E+00 0. -1.
         21    1    1    2  504  501  0.11523997363E+03  0.28710979519E+03  0.25940855114E+03  0.40373887901E+03  0.00000000000E+00 0. -1.
<mgrwt>
<rscale>  4 0.31915345E+03</rscale>
<asrwt>0</asrwt>
<pdfrwt beam="1">  1       21 0.91445160E-01 0.31915345E+03</pdfrwt>
<pdfrwt beam="2">  1       21 0.99844328E-01 0.31915345E+03</pdfrwt>
<totfact> 0.75308074E+02</totfact>
</mgrwt>
</event>
<event>
 5    0  0.1200001E+000  0.2818102E+03  0.7546771E-02  0.1094704E+00
         21   -1    0    0  503  501  0.00000000000E+00  0.00000000000E+00  0.18823971750E+03  0.18823971750E+03  0.00000000000E+00 0.  1.
         21   -1    0    0  501  502 -0.00000000000E+00 -0.00000000000E+00 -0.10373643003E+04  0.10373643003E+04  0.00000000000E+00 0.  1.
         25    1    1    2    0    0 -0.33108655993E+02 -0.25229310432E+03 -0.90824416609E+03  0.95146227399E+03  0.12500000000E+03 0.  0.
         21    1    1    2  503  504 -0.19879719775E+02  0.18107090964E+02  0.10702550385E+00  0.26890173967E+02  0.00000000000E+00 0. -1.
         21    1    1    2  504  502  0.52988375768E+02  0.23418601335E+03  0.59012557775E+02  0.24725156985E+03  0.00000000000E+00 0.  1.
<mgrwt>
<rscale>  4 0.28181018E+03</rscale>
<asrwt>0</asrwt>
<pdfrwt beam="1">  1       21 0.28959957E-01 0.28181018E+03</pdfrwt>
<pdfrwt beam="2">  1       21 0.15959451E+00 0.28181018E+03</pdfrwt>
<totfact> 0.26976883E+03</totfact>
</mgrwt>
</event>
<event>
 5    0  0.1200001E+000  0.2532763E+03  0.7546771E-02  0.1111252E+00
         21   -1    0    0  503  501  0.00000000000E+00  0.00000000000E+00  0.36279225654E+03  0.36279225654E+03  0.00000000000E+00 0. -1.
         21   -1    0    0  501  502 -0.00000000000E+00 -0.00000000000E+00 -0.21475491588E+03  0.21475491588E+03  0.00000000000E+00 0. -1.
         25    1    1    2    0    0  0.55304398165E+02 -0.21928620644E+03 -0.51575011190E+02  0.26349572781E+03  0.12500000000E+03 0.  0.
         21    1    1    2  503  504 -0.25281524671E+02  0.11806660791E+02  0.47318578488E+02  0.54932691531E+02  0.00000000000E+00 0.  1.
         21    1    1    2  504  502 -0.30022873494E+02  0.20747954565E+03  0.15229377336E+03  0.25911875309E+03  0.00000000000E+00 0. -1.
<mgrwt>
<rscale>  4 0.25327625E+03</rscale>
<asrwt>0</asrwt>
<pdfrwt beam="1">  1       21 0.55814193E-01 0.25327625E+03</pdfrwt>
<pdfrwt beam="2">  1       21 0.33039218E-01 0.25327625E+03</pdfrwt>
<totfact> 0.25849950E+04</totfact>
</mgrwt>
</event>
<event>
 5    0  0.1200001E+000  0.2914626E+03  0.7546771E-02  0.1089588E+00
         21   -1    0    0  502  501  0.00000000000E+00  0.00000000000E+00  0.81235656555E+03  0.81235656555E+03  0.00000000000E+00 0. -1.
         21   -1    0    0  503  502 -0.00000000000E+00 -0.00000000000E+00 -0.33089370721E+03  0.33089370721E+03  0.00000000000E+00 0. -1.
         25    1    1    2    0    0 -0.24030713232E+03  0.10114686769E+03 -0.22342719749E+03  0.36540788068E+03  0.12500000000E+03 0.  0.
         21    1    1    2  503  504 -0.35350307468E+02 -0.19157181925E+02  0.10907399445E+03  0.11624877687E+03  0.00000000000E+00 0. -1.
         21    1    1    2  504  501  0.27565743979E+03 -0.81989685766E+02  0.59581606138E+03  0.66159361521E+03  0.00000000000E+00 0. -1.
<mgrwt>
<rscale>  4 0.29146257E+03</rscale>
<asrwt>0</asrwt>
<pdfrwt beam="1">  1       21 0.12497793E+00 0.29146257E+03</pdfrwt>
<pdfrwt beam="2">  1       21 0.50906725E-01 0.29146257E+03</pdfrwt>
<totfact> 0.16209957E+03</totfact>
</mgrwt>
</event>
<event>
 5    0  0.1200001E+000  0.3567977E+03  0.7546771E-02  0.1059859E+00
         21   -1    0    0  502  501  0.00000000000E+00  0.00000000000E+00  0.23793854023E+03  0.23793854023E+03  0.00000000000E+00 0.  1.
         21   -1    0    0  503  502 -0.00000000000E+00 -0.00000000000E+00 -0.13690890879E+04  0.13690890879E+04  0.00000000000E+00 0.  1.
         25    1    1    2    0    0 -0.34946612154E+03 -0.14404886703E+03 -0.10559441398E+04  0.11285032887E+04  0.12500000000E+03 0.  0.
         21    1    1    2  503  504  0.95199117793E+02  0.17570228375E+03  0.28974192965E+02  0.20192490783E+03  0.00000000000E+00 0.  1.
         21    1    1    2  504  501  0.25426700375E+03 -0.31653416726E+02 -0.10418060084E+03  0.27659943163E+03  0.00000000000E+00 0.  1.
<mgrwt>
<rscale>  4 0.35679765E+03</rscale>
<asrwt>0</asrwt>
<pdfrwt beam="1">  1       21 0.36605929E-01 0.35679765E+03</pdfrwt>
<pdfrwt beam="2">  1       21 0.21062909E+00 0.35679765E+03</pdfrwt>
<totfact> 0.71933446E+02</totfact>
</mgrwt>
</event>
<event>
 5    0  0.1200001E+000  0.2339620E+03  0.7546771E-02  0.1123882E+00
         21   -1    0    0  502  501  0.00000000000E+00  0.00000000000E+00  0.79196222146E+03  0.79196222146E+03  0.00000000000E+00 0.  1.
         21   -1    0    0  504  502 -0.00000000000E+00 -0.00000000000E+00 -0.10395660552E+03  0.10395660552E+03  0.00000000000E+00 0. -1.
         25    1    1    2    0    0  0.18118571680E+03 -0.13118716345E+03  0.15784693027E+03  0.30096343503E+03  0.12500000000E+03 0.  0.
         21    1    1    2  503  501 -0.17550305928E+03  0.78322072166E+02  0.49555482076E+03  0.53151693405E+03  0.00000000000E+00 0.  1.
         21    1    1    2  504  503 -0.56826575203E+01  0.52865091286E+02  0.34603864910E+02  0.63438457893E+02  0.00000000000E+00 0.  1.
<mgrwt>
<rscale>  4 0.23396198E+03</rscale>
<asrwt>0</asrwt>
<pdfrwt beam="1">  1       21 0.12184034E+00 0.23396198E+03</pdfrwt>
<pdfrwt beam="2">  1       21 0.15993324E-01 0.23396198E+03</pdfrwt>
<totfact> 0.17296182E+04</totfact>
</mgrwt>
</event>
<event>
 5    0  0.1200001E+000  0.2628434E+03  0.7546771E-02  0.1105447E+00
         21   -1    0    0  503  501  0.00000000000E+00  0.00000000000E+00  0.56719739134E+03  0.56719739134E+03  0.00000000000E+00 0. -1.
         21   -1    0    0  501  502 -0.00000000000E+00 -0.00000000000E+00 -0.23757615483E+03  0.23757615483E+03  0.00000000000E+00 0. -1.
         25    1    1    2    0    0  0.16260360109E+03 -0.14966530514E+03  0.32171334217E+03  0.40983424599E+03  0.12500000000E+03 0.  0.
         21    1    1    2  503  504 -0.31754567848E+01 -0.20649942391E+02  0.12997460344E+03  0.13164308256E+03  0.00000000000E+00 0. -1.
         21    1    1    2  504  502 -0.15942814431E+03  0.17031524753E+03 -0.12206670911E+03  0.26329621762E+03  0.00000000000E+00 0. -1.
<mgrwt>
<rscale>  4 0.26284344E+03</rscale>
<asrwt>0</asrwt>
<pdfrwt beam="1">  1       21 0.87261137E-01 0.26284344E+03</pdfrwt>
<pdfrwt beam="2">  1       21 0.36550178E-01 0.26284344E+03</pdfrwt>
<totfact> 0.77869380E+03</totfact>
</mgrwt>
</event>
<event>
 5    0  0.1200001E+000  0.2205571E+03  0.7546771E-02  0.1133468E+00
         21   -1    0    0  502  501  0.00000000000E+00  0.00000000000E+00  0.17122976527E+04  0.17122976527E+04  0.00000000000E+00 0. -1.
         21   -1    0    0  503  502 -0.00000000000E+00 -0.00000000000E+00 -0.47448040587E+03  0.47448040587E+03  0.00000000000E+00 0.  1.
         25    1    1    2    0    0  0.64710372657E+02 -0.27432959533E+03 -0.38238327250E+03  0.49120884183E+03  0.12500000000E+03 0.  0.
         21    1    1    2  503  504  0.25174369568E+02  0.11763516227E+03  0.79228133332E+02  0.14404470624E+03  0.00000000000E+00 0. -1.
         21    1    1    2  504  501 -0.89884742225E+02  0.15669443306E+03  0.15409723860E+04  0.15515245105E+04  0.00000000000E+00 0. -1.
<mgrwt>
<rscale>  4 0.22055713E+03</rscale>
<asrwt>0</asrwt>
<pdfrwt beam="1">  1       21 0.26343041E+00 0.22055713E+03</pdfrwt>
<pdfrwt beam="2">  1       21 0.72996986E-01 0.22055713E+03</pdfrwt>
<totfact> 0.89915461E+01</totfact>
</mgrwt>
</event>
<event>
 5    0  0.1200001E+000  0.2599653E+03  0.7546771E-02  0.1107164E+00
         21   -1    0    0  503  501  0.00000000000E+00  0.00000000000E+00  0.78803652878E+03  0.78803652878E+03  0.00000000000E+00 0. -1.
         21   -1    0    0  504  502 -0.00000000000E+00 -0.00000000000E+00 -0.10083652774E+03  0.10083652774E+03  0.00000000000E+00 0. -1.
         25    1    1    2    0    0  0.20556644054E+03  0.17066746710E+02  0.31741028404E+03  0.39865163205E+03  0.12500000000E+03 0.  0.
         21    1    1    2  503  502 -0.24587698234E+03  0.34792585970E+02  0.24306721386E+03  0.34748767595E+03  0.00000000000E+00 0. -1.
         21    1    1    2  504  501  0.40310541801E+02 -0.51859332680E+02  0.12672250314E+03  0.14273374853E+03  0.00000000000E+00 0.  1.
<mgrwt>
<rscale>  4 0.25996527E+03</rscale>
<asrwt>0</asrwt>
<pdfrwt beam="1">  1       21 0.12123638E+00 0.25996527E+03</pdfrwt>
<pdfrwt beam="2">  1       21 0.15513312E-01 0.25996527E+03</pdfrwt>
<totfact> 0.18269938E+04</totfact>
</mgrwt>
</event>
<event>
 5    0  0.1200001E+000  0.2824941E+03  0.7546771E-02  0.1094334E+00
         21   -1    0    0  503  501  0.00000000000E+00  0.00000000000E+00  0.52437470566E+03  0.52437470566E+03  0.00000000000E+00 0. -1.
         21   -1    0    0  501  502 -0.00000000000E+00 -0.00000000000E+00 -0.39858100394E+03  0.39858100394E+03  0.00000000000E+00 0. -1.
         25    1    1    2    0    0 -0.17087218624E+03  0.18117860536E+03 -0.15971501925E+03  0.32118044530E+03  0.12500000000E+03 0.  0.
         21    1    1    2  503  504  0.17599357371E+02  0.29105437180E+02  0.33514652891E+03  0.33686801525E+03  0.00000000000E+00 0. -1.
         21    1    1    2  504  502  0.15327282887E+03 -0.21028404254E+03 -0.49637807948E+02  0.26490724904E+03  0.00000000000E+00 0. -1.
<mgrwt>
<rscale>  4 0.28249409E+03</rscale>
<asrwt>0</asrwt>
<pdfrwt beam="1">  1       21 0.80673032E-01 0.28249409E+03</pdfrwt>
<pdfrwt beam="2">  1       21 0.61320154E-01 0.28249409E+03</pdfrwt>
<totfact> 0.31313929E+03</totfact>
</mgrwt>
</event>
<event>
 5    0  0.1200001E+000  0.2575438E+03  0.7546771E-02  0.1108628E+00
         21   -1    0    0  503  501  0.00000000000E+00  0.00000000000E+00  0.52173198198E+03  0.52173198198E+03  0.00000000000E+00 0.  1.
         21   -1    0    0  504  502 -0.00000000000E+00 -0.00000000000E+00 -0.96327830757E+03  0.96327830757E+03  0.00000000000E+00 0.  1.
         25    1    1    2    0    0  0.47578972494E+02  0.22115914390E+03 -0.91698867270E+03  0.95271630164E+03  0.12500000000E+03 0.  0.
         21    1    1    2  503  502 -0.40000498550E+02 -0.19917353295E+03  0.34975486053E+03  0.40447323593E+03  0.00000000000E+00 0.  1.
         21    1    1    2  504  501 -0.75784739438E+01 -0.21985610943E+02  0.12568748657E+03  0.12782075198E+03  0.00000000000E+00 0.  1.
<mgrwt>
<rscale>  4 0.25754378E+03</rscale>
<asrwt>0</asrwt>
<pdfrwt beam="1">  1       21 0.80266458E-01 0.25754378E+03</pdfrwt>
<pdfrwt beam="2">  1       21 0.14819666E+00 0.25754378E+03</pdfrwt>
<totfact> 0.39416116E+02</totfact>
</mgrwt>
</event>
