<event>
 5    0  0.2159162E+000  0.3272223E+03  0.7546771E-02  0.1072373E+00
         21   -1    0    0  502  501  0.00000000000E+00  0.00000000000E+00  0.14607642485E+03  0.14607642485E+03  0.00000000000E+00 0. -1.
         21   -1    0    0  503  502 -0.00000000000E+00 -0.00000000000E+00 -0.79102047774E+03  0.79102047774E+03  0.00000000000E+00 0.  1.
         25    1    1    2    0    0  0.87244525985E+02 -0.28954766737E+03 -0.18118234450E+03  0.37403409063E+03  0.12500000000E+03 0.  0.
         21    1    1    2  503  504 -0.70793812158E+02  0.10955358765E+03 -0.25864653179E+03  0.28967530239E+03  0.00000000000E+00 0. -1.
         21    1    1    2  504  501 -0.16450713827E+02  0.17999407972E+03 -0.20511517659E+03  0.27338750957E+03  0.00000000000E+00 0.  1.
<mgrwt>
<rscale>  4 0.32722234E+03</rscale>
<asrwt>0</asrwt>
<pdfrwt beam="1">  1       21 0.22473296E-01 0.32722234E+03</pdfrwt>
<pdfrwt beam="2">  1       21 0.12169546E+00 0.32722234E+03</pdfrwt>
<totfact> 0.87543543E+03</totfact>
</mgrwt>
</event>
<event>
 5    0  0.2159162E+000  0.2114369E+03  0.7546771E-02  0.1140433E+00
         21   -1    0    0  502  501  0.00000000000E+00  0.00000000000E+00  0.43995610862E+03  0.43995610862E+03  0.00000000000E+00 0. -1.
         21   -1    0    0  503  502 -0.00000000000E+00 -0.00000000000E+00 -0.16981015068E+03  0.16981015068E+03  0.00000000000E+00 0. -1.
         25    1    1    2    0    0 -0.10153737874E+03  0.17543137439E+03  0.27395257404E+03  0.36298900703E+03  0.12500000000E+03 0.  0.
         21    1    1    2  503  504  0.11866449333E+03 -0.65857654075E+02  0.18739145989E+01  0.13572768374E+03  0.00000000000E+00 0. -1.
         21    1    1    2  504  501 -0.17127114594E+02 -0.10957372032E+03 -0.56805307037E+01  0.11104956852E+03  0.00000000000E+00 0. -1.
<mgrwt>
<rscale>  4 0.21143688E+03</rscale>
<asrwt>0</asrwt>
<pdfrwt beam="1">  1       21 0.67685555E-01 0.21143688E+03</pdfrwt>
<pdfrwt beam="2">  1       21 0.26124639E-01 0.21143688E+03</pdfrwt>
<totfact> 0.27488523E+04</totfact>
</mgrwt>
</event>
<event>
 5    0  0.2883865E+000  0.2779428E+03  0.7546771E-02  0.1096818E+00
         21   -1    0    0  502  501  0.00000000000E+00  0.00000000000E+00  0.96338171244E+03  0.96338171244E+03  0.00000000000E+00 0.  1.
         21   -1    0    0  503  502 -0.00000000000E+00 -0.00000000000E+00 -0.92777618481E+02  0.92777618481E+02  0.00000000000E+00 0.  1.
         25    1    1    2    0    0  0.14134453868E+02  0.24784552783E+03  0.66138966925E+03  0.71741792774E+03  0.12500000000E+03 0.  0.
         21    1    1    2  503  504 -0.80533331086E+01 -0.52134333330E+02  0.10362607269E+03  0.11628072853E+03  0.00000000000E+00 0.  1.
         21    1    1    2  504  501 -0.60811207594E+01 -0.19571119450E+03  0.10558835201E+03  0.22246067464E+03  0.00000000000E+00 0.  1.
<mgrwt>
<rscale>  4 0.27794278E+03</rscale>
<asrwt>0</asrwt>
<pdfrwt beam="1">  1       21 0.14821256E+00 0.27794278E+03</pdfrwt>
<pdfrwt beam="2">  1       21 0.14273480E-01 0.27794278E+03</pdfrwt>
<totfact> 0.12560107E+04</totfact>
</mgrwt>
</event>
<event>
 5    0  0.2159162E+000  0.2397703E+03  0.7546771E-02  0.1119946E+00
         21   -1    0    0  502  501  0.00000000000E+00  0.00000000000E+00  0.50953217585E+03  0.50953217585E+03  0.00000000000E+00 0.  1.
         21   -1    0    0  503  502 -0.00000000000E+00 -0.00000000000E+00 -0.13411565558E+03  0.13411565558E+03  0.00000000000E+00 0.  1.
         25    1    1    2    0    0 -0.20386941618E+03 -0.17379931245E+02  0.36160288966E+03  0.43387377274E+03  0.12500000000E+03 0.  0.
         21    1    1    2  503  504  0.99100974792E+02  0.28482561751E+02  0.16279895786E+02  0.10439010746E+03  0.00000000000E+00 0.  1.
         21    1    1    2  504  501  0.10476844138E+03 -0.11102630506E+02 -0.24662651690E+01  0.10538395124E+03  0.00000000000E+00 0.  1.
<mgrwt>
<rscale>  4 0.23977031E+03</rscale>
<asrwt>0</asrwt>
<pdfrwt beam="1">  1       21 0.78389565E-01 0.23977031E+03</pdfrwt>
<pdfrwt beam="2">  1       21 0.20633178E-01 0.23977031E+03</pdfrwt>
<totfact> 0.30599186E+04</totfact>
</mgrwt>
</event>
<event>
 5    0  0.2159162E+000  0.2940981E+03  0.7546771E-02  0.1088229E+00
         21   -1    0    0  502  501  0.00000000000E+00  0.00000000000E+00  0.16413745637E+04  0.16413745637E+04  0.00000000000E+00 0.  1.
         21   -1    0    0  503  502 -0.00000000000E+00 -0.00000000000E+00 -0.13798852638E+03  0.13798852638E+03  0.00000000000E+00 0.  1.
         25    1    1    2    0    0  0.23392500987E+03  0.12707389338E+03  0.14772565711E+04  0.15062472113E+04  0.12500000000E+03 0.  0.
         21    1    1    2  503  504 -0.18779050602E+03 -0.77835300910E+02  0.30226046418E+02  0.20551696305E+03  0.00000000000E+00 0.  1.
         21    1    1    2  504  501 -0.46134503845E+02 -0.49238592473E+02 -0.40965802467E+01  0.67598915698E+02  0.00000000000E+00 0.  1.
<mgrwt>
<rscale>  4 0.29409809E+03</rscale>
<asrwt>0</asrwt>
<pdfrwt beam="1">  1       21 0.25251915E+00 0.29409809E+03</pdfrwt>
<pdfrwt beam="2">  1       21 0.21229005E-01 0.29409809E+03</pdfrwt>
<totfact> 0.12011727E+03</totfact>
</mgrwt>
</event>
<event>
 5    0  0.2159162E+000  0.2465415E+03  0.7546771E-02  0.1115510E+00
         21   -1    0    0  502  501  0.00000000000E+00  0.00000000000E+00  0.51413493575E+03  0.51413493575E+03  0.00000000000E+00 0.  1.
         21   -1    0    0  503  502 -0.00000000000E+00 -0.00000000000E+00 -0.11431824316E+03  0.11431824316E+03  0.00000000000E+00 0.  1.
         25    1    1    2    0    0  0.21011011776E+03 -0.31803474917E+02  0.16029485585E+03  0.29406999747E+03  0.12500000000E+03 0.  0.
         21    1    1    2  503  504 -0.98524282468E+02  0.17950740069E+01  0.17804849682E+03  0.20349821559E+03  0.00000000000E+00 0.  1.
         21    1    1    2  504  501 -0.11158583530E+03  0.30008400910E+02  0.61473339927E+02  0.13088496585E+03  0.00000000000E+00 0.  1.
<mgrwt>
<rscale>  4 0.24654152E+03</rscale>
<asrwt>0</asrwt>
<pdfrwt beam="1">  1       21 0.79097681E-01 0.24654152E+03</pdfrwt>
<pdfrwt beam="2">  1       21 0.17587422E-01 0.24654152E+03</pdfrwt>
<totfact> 0.40290967E+04</totfact>
</mgrwt>
</event>
<event>
 5    0  0.2159162E+000  0.5231509E+03  0.7546771E-02  0.1007907E+00
         21   -1    0    0  502  501  0.00000000000E+00  0.00000000000E+00  0.20906509231E+04  0.20906509231E+04  0.00000000000E+00 0. -1.
         21   -1    0    0  503  502 -0.00000000000E+00 -0.00000000000E+00 -0.25608684594E+03  0.25608684594E+03  0.00000000000E+00 0. -1.
         25    1    1    2    0    0 -0.38363770254E+03  0.44110074430E+03  0.14446407780E+04  0.15634448282E+04  0.12500000000E+03 0.  0.
         21    1    1    2  503  504  0.31779817205E+03 -0.37517237257E+03  0.13205166651E+03  0.50910473375E+03  0.00000000000E+00 0. -1.
         21    1    1    2  504  501  0.65839530491E+02 -0.65928371732E+02  0.25787163264E+03  0.27418820707E+03  0.00000000000E+00 0.  1.
<mgrwt>
<rscale>  4 0.52315091E+03</rscale>
<asrwt>0</asrwt>
<pdfrwt beam="1">  1       21 0.32163859E+00 0.52315091E+03</pdfrwt>
<pdfrwt beam="2">  1       21 0.39397978E-01 0.52315091E+03</pdfrwt>
<totfact> 0.11732104E+02</totfact>
</mgrwt>
</event>
<event>
 5    0  0.2159162E+000  0.2841742E+03  0.7546771E-02  0.1093431E+00
         21   -1    0    0  502  501  0.00000000000E+00  0.00000000000E+00  0.69101694444E+02  0.69101694444E+02  0.00000000000E+00 0. -1.
         21   -1    0    0  503  502 -0.00000000000E+00 -0.00000000000E+00 -0.14357391135E+04  0.14357391135E+04  0.00000000000E+00 0. -1.
         25    1    1    2    0    0  0.25206695318E+03 -0.33754817102E+02 -0.59203982357E+03  0.65636368673E+03  0.12500000000E+03 0.  0.
         21    1    1    2  503  504 -0.29682774725E+01 -0.27262104394E+02 -0.35949360476E+03  0.36053804913E+03  0.00000000000E+00 0. -1.
         21    1    1    2  504  501 -0.24909867571E+03  0.61016921496E+02 -0.41510399072E+03  0.48793907208E+03  0.00000000000E+00 0. -1.
<mgrwt>
<rscale>  4 0.28417422E+03</rscale>
<asrwt>0</asrwt>
<pdfrwt beam="1">  1       21 0.10631030E-01 0.28417422E+03</pdfrwt>
<pdfrwt beam="2">  1       21 0.22088295E+00 0.28417422E+03</pdfrwt>
<totfact> 0.67371521E+03</totfact>
</mgrwt>
</event>
<event>
 5    0  0.2159162E+000  0.2491455E+03  0.7546771E-02  0.1113846E+00
         21   -1    0    0  502  501  0.00000000000E+00  0.00000000000E+00  0.55786797225E+03  0.55786797225E+03  0.00000000000E+00 0. -1.
         21   -1    0    0  503  502 -0.00000000000E+00 -0.00000000000E+00 -0.10327967227E+03  0.10327967227E+03  0.00000000000E+00 0.  1.
         25    1    1    2    0    0  0.17044454210E+03 -0.13189816944E+03  0.26669213919E+03  0.36496323943E+03  0.12500000000E+03 0.  0.
         21    1    1    2  503  504 -0.77189411046E+00  0.31825246763E+02  0.22708345335E+02  0.39103850193E+02  0.00000000000E+00 0. -1.
         21    1    1    2  504  501 -0.16967264799E+03  0.10007292268E+03  0.16518781545E+03  0.25708055489E+03  0.00000000000E+00 0.  1.
<mgrwt>
<rscale>  4 0.24914548E+03</rscale>
<asrwt>0</asrwt>
<pdfrwt beam="1">  1       21 0.85825840E-01 0.24914548E+03</pdfrwt>
<pdfrwt beam="2">  1       21 0.15889181E-01 0.24914548E+03</pdfrwt>
<totfact> 0.40277364E+04</totfact>
</mgrwt>
</event>
<event>
 5    0  0.4225407E+000  0.2541687E+03  0.7546771E-02  0.1110698E+00
         21   -1    0    0  502  501  0.00000000000E+00  0.00000000000E+00  0.10127094901E+03  0.10127094901E+03  0.00000000000E+00 0.  1.
         21   -1    0    0  503  502 -0.00000000000E+00 -0.00000000000E+00 -0.78646699113E+03  0.78646699113E+03  0.00000000000E+00 0.  1.
         25    1    1    2    0    0  0.53596057815E+02 -0.22233220230E+03 -0.16321568293E+03  0.30751992577E+03  0.12500000000E+03 0.  0.
         21    1    1    2  503  504  0.17693584654E+02  0.15020202685E+02 -0.14388298097E+02  0.27307371692E+02  0.00000000000E+00 0.  1.
         21    1    1    2  504  501 -0.71289642469E+02  0.20731199961E+03 -0.50759206109E+03  0.55291064268E+03  0.00000000000E+00 0.  1.
<mgrwt>
<rscale>  4 0.25416868E+03</rscale>
<asrwt>0</asrwt>
<pdfrwt beam="1">  1       21 0.15580146E-01 0.25416868E+03</pdfrwt>
<pdfrwt beam="2">  1       21 0.12099492E+00 0.25416868E+03</pdfrwt>
<totfact> 0.18270489E+04</totfact>
</mgrwt>
</event>
<event>
 5    0  0.2159162E+000  0.5006419E+03  0.7546771E-02  0.1013612E+00
         21   -1    0    0  502  501  0.00000000000E+00  0.00000000000E+00  0.92918481400E+03  0.92918481400E+03  0.00000000000E+00 0. -1.
         21   -1    0    0  503  502 -0.00000000000E+00 -0.00000000000E+00 -0.38247591070E+03  0.38247591070E+03  0.00000000000E+00 0. -1.
         25    1    1    2    0    0  0.37888548713E+02 -0.49067019806E+03  0.57158407674E+03  0.76454309373E+03  0.12500000000E+03 0.  0.
         21    1    1    2  503  504  0.26231703985E+02  0.26029927930E+02 -0.66658135645E+02  0.76216576213E+02  0.00000000000E+00 0. -1.
         21    1    1    2  504  501 -0.64120252699E+02  0.46464027013E+03  0.41782962211E+02  0.47090105475E+03  0.00000000000E+00 0. -1.
<mgrwt>
<rscale>  4 0.50064191E+03</rscale>
<asrwt>0</asrwt>
<pdfrwt beam="1">  1       21 0.14295151E+00 0.50064191E+03</pdfrwt>
<pdfrwt beam="2">  1       21 0.58842448E-01 0.50064191E+03</pdfrwt>
<totfact> 0.75449685E+02</totfact>
</mgrwt>
</event>
<event>
 5    0  0.2159162E+000  0.3610660E+03  0.7546771E-02  0.1058163E+00
         21   -1    0    0  502  501  0.00000000000E+00  0.00000000000E+00  0.14146331951E+04  0.14146331951E+04  0.00000000000E+00 0.  1.
         21   -1    0    0  503  502 -0.00000000000E+00 -0.00000000000E+00 -0.34313349242E+03  0.34313349242E+03  0.00000000000E+00 0. -1.
         25    1    1    2    0    0  0.17683654933E+03  0.24139145472E+03  0.12162152735E+04  0.12587079054E+04  0.12500000000E+03 0.  0.
         21    1    1    2  503  504 -0.28619931118E+02  0.67003739327E+02  0.65084396445E+02  0.97696367392E+02  0.00000000000E+00 0. -1.
         21    1    1    2  504  501 -0.14821661822E+03 -0.30839519405E+03 -0.20979996733E+03  0.40136241468E+03  0.00000000000E+00 0. -1.
<mgrwt>
<rscale>  4 0.36106601E+03</rscale>
<asrwt>0</asrwt>
<pdfrwt beam="1">  1       21 0.21763587E+00 0.36106601E+03</pdfrwt>
<pdfrwt beam="2">  1       21 0.52789769E-01 0.36106601E+03</pdfrwt>
<totfact> 0.30230308E+02</totfact>
</mgrwt>
</event>
<event>
 5    0  0.2159162E+000  0.3158896E+03  0.7546771E-02  0.1077557E+00
         21   -1    0    0  502  501  0.00000000000E+00  0.00000000000E+00  0.30021216887E+03  0.30021216887E+03  0.00000000000E+00 0. -1.
         21   -1    0    0  503  502 -0.00000000000E+00 -0.00000000000E+00 -0.63529593855E+03  0.63529593855E+03  0.00000000000E+00 0. -1.
         25    1    1    2    0    0 -0.22205866585E+03  0.18668466435E+03  0.16484807228E+03  0.35631601412E+03  0.12500000000E+03 0.  0.
         21    1    1    2  503  504  0.23592459150E+02 -0.81762845181E+01 -0.33538773494E+02  0.41812738308E+02  0.00000000000E+00 0.  1.
         21    1    1    2  504  501  0.19846620670E+03 -0.17850837983E+03 -0.46639306846E+03  0.53737935500E+03  0.00000000000E+00 0. -1.
<mgrwt>
<rscale>  4 0.31588956E+03</rscale>
<asrwt>0</asrwt>
<pdfrwt beam="1">  1       21 0.46186488E-01 0.31588956E+03</pdfrwt>
<pdfrwt beam="2">  1       21 0.97737836E-01 0.31588956E+03</pdfrwt>
<totfact> 0.35905034E+03</totfact>
</mgrwt>
</event>
