<LesHouchesEvents version="3.0">
  <!--
  <scalesfunctionalform>
    muR  H_T/2 := sum_i mT(i)/2, i=final state
    muF1 H_T/2 := sum_i mT(i)/2, i=final state
    muF2 H_T/2 := sum_i mT(i)/2, i=final state
    QES  H_T/2 := sum_i mT(i)/2, i=final state
  </scalesfunctionalform>
HERWIG6   
  -->
  <header>
        5
  </header>
  <init>
   2212   2212 0.65000000D+04 0.65000000D+04 -1 -1   244800   244800 -4   1
 0.53570527D-05 0.26973115D-06 0.19165835D-05     66
  </init>
  <event>
  6     66 0.19165835E-05 0.12346881E+03 0.75467711E-02 0.92756076E-01
       -1 -1    0    0    0  501 0.00000000E+00 0.00000000E+00 0.58187733E+03 0.58187741E+03 0.32000000E+00 0.0000E+00 0.9000E+01
       -2 -1    0    0    0  502 -.00000000E+00 -.00000000E+00 -.99162898E+03 0.99162903E+03 0.32000000E+00 0.0000E+00 0.9000E+01
       25  1    1    2    0    0 -.46294926E+03 -.22367108E+03 0.99866492E+02 0.53846920E+03 0.12500000E+03 0.0000E+00 0.9000E+01
       -1  1    1    2    0  501 0.44829093E+03 0.10703424E+03 0.28154411E+02 0.46175086E+03 0.32000000E+00 0.0000E+00 0.9000E+01
       -2  1    1    2    0  503 0.57350613E+02 0.13501471E+03 -.45844463E+03 0.48134151E+03 0.32000000E+00 0.0000E+00 0.9000E+01
       21  1    1    2  503  502 -.42692284E+02 -.18377872E+02 -.79327922E+02 0.91944870E+02 0.75000000E+00 0.0000E+00 0.9000E+01
#aMCatNLO 2  0  0  5  1 0.55796428D+02 0.00000000D+00  -5  6  0 0.00000000D+00 0.00000000D+00 0.00000000D+00 0.00000000D+00 0.00000000D+00
  <mgrwgt>
 0.9189444070D-06    3    2    0
 0.759609457466262D+03 0.000000000000000D+00 0.000000000000000D+00 0.759609457466262D+03
 0.759609457466262D+03 -.000000000000000D+00 -.000000000000000D+00 -.759609457466262D+03
 0.590983305520441D+03 -.463305893737862D+03 -.226884419831522D+03 0.259821816384502D+03
 0.487886739404434D+03 0.447905392798293D+03 0.104362269076117D+03 0.162858055932708D+03
 0.440348870007648D+03 0.154005009395695D+02 0.122522150755404D+03 -.422679872317210D+03
 0.000000000000000D+00 0.000000000000000D+00 0.000000000000000D+00 -.000000000000000D+00
 0.759609457466262D+03 0.000000000000000D+00 0.000000000000000D+00 0.759609457466262D+03
 0.759609457466262D+03 -.000000000000000D+00 -.000000000000000D+00 -.759609457466262D+03
 0.584632255081450D+03 -.462901610059621D+03 -.223668050054474D+03 0.248725906311871D+03
 0.485785758280294D+03 0.448240230063091D+03 0.107026142283692D+03 0.153668161858006D+03
 0.374835270868032D+03 0.574234359908765D+02 0.135043663701462D+03 -.344916277058360D+03
 0.739656307027467D+02 -.427620559943465D+02 -.184017559306799D+02 -.574777911115169D+02
-.346888169803D-07 0.000000000000D+00 0.000000000000D+00 0.145761877998D-06 0.000000000000D+00  6 -1 -2 25 -1 -2 21 2 0.89519600D-01 0.15255831D+00 0.35000459D+06 0.35000459D+06 0.35000459D+06 0.10796329D+01  1  2 13  4  6  5       -2 -.151023835102D-07 0.100000000000D+01
-.475867511794D-08 0.000000000000D+00 0.000000000000D+00 0.145761877998D-06 0.000000000000D+00  6 -1 -2 25 -1 -2 21 2 0.89519600D-01 0.15255831D+00 0.31035715D+06 0.31035715D+06 0.31035715D+06 0.10834630D+01  1  2  8  4  6  5       -2 -.209989928155D-08 0.100000000000D+01
0.215024477218D-05 0.000000000000D+00 0.000000000000D+00 0.145761877998D-06 0.171068979121D-10  6 -1 -2 25 -1 -2 21 2 0.89519600D-01 0.15255831D+00 0.35000459D+06 0.35000459D+06 0.35000459D+06 0.10796329D+01  1  2  1  4  6  5       -2 0.936146689829D-06 0.100000000000D+01
  </mgrwgt>
  </event>
  <event>
  5     66 -.19165835E-05 0.18378431E+02 0.75467711E-02 0.94925767E-01
       -1 -1    0    0    0  501 0.00000000E+00 0.00000000E+00 0.36705299E+03 0.36705313E+03 0.32000000E+00 0.0000E+00 0.9000E+01
       -2 -1    0    0    0  502 -.00000000E+00 -.00000000E+00 -.96365608E+03 0.96365613E+03 0.32000000E+00 0.0000E+00 0.9000E+01
       25  1    1    2    0    0 0.33303007E+03 -.34362366E+03 -.31954851E+02 0.49561311E+03 0.12500000E+03 0.0000E+00 0.9000E+01
       -1  1    1    2    0  501 -.86569786E+01 0.16268219E+02 0.57770005E+02 0.60638883E+02 0.32000000E+00 0.0000E+00 0.9000E+01
       -2  1    1    2    0  502 -.32437309E+03 0.32735544E+03 -.62241824E+03 0.77445726E+03 0.32000000E+00 0.0000E+00 0.9000E+01
#aMCatNLO 1  0  0  5  2 0.33862644D+02 0.00000000D+00  -5  6  0 0.00000000D+00 0.00000000D+00 0.00000000D+00 0.00000000D+00 0.00000000D+00
  <mgrwgt>
 -.5625021075D-03    6    2    0
 0.594737734591296D+03 0.000000000000000D+00 0.000000000000000D+00 0.594737734591296D+03
 0.594737734591296D+03 -.000000000000000D+00 -.000000000000000D+00 -.594737734591296D+03
 0.538600049367865D+03 0.333100632963235D+03 -.343680051108826D+03 0.213056339892514D+03
 0.965525628653989D+02 -.863360277858180D+01 0.162242914235608D+02 0.947872916943081D+02
 0.554322856949328D+03 -.324467030184653D+03 0.327455759685265D+03 -.307843631586822D+03
 0.000000000000000D+00 -.000000000000000D+00 0.000000000000000D+00 0.000000000000000D+00
 0.594737734591296D+03 0.000000000000000D+00 0.000000000000000D+00 0.594737734591296D+03
 0.594737734591296D+03 -.000000000000000D+00 -.000000000000000D+00 -.594737734591296D+03
 0.538389635813137D+03 0.332972152808378D+03 -.343550387498045D+03 0.212934442153211D+03
 0.965370806542906D+02 -.865663752779243D+01 0.162475383503676D+02 0.947654370829300D+02
 0.300297066046202D+03 -.166627243169669D+03 0.179873924246921D+03 -.173375491594534D+03
 0.254251686668962D+03 -.157688272110917D+03 0.147428924900757D+03 -.134324387641607D+03
0.416035328008D-05 0.000000000000D+00 0.000000000000D+00 0.803724123950D-06 0.000000000000D+00  6 -1 -2 25 -1 -2 21 0 0.56469706D-01 0.14825480D+00 0.23718404D+06 0.23718404D+06 0.23718404D+06 0.10921826D+01  1  2  2  4  6  5       -2 0.426868316155D-05 0.100000000000D+01
0.169683198066D-05 0.000000000000D+00 -.159768520417D-07 0.803724123950D-06 0.000000000000D+00  6 -1 -2 25 -1 -2 21 2 0.56469706D-01 0.14825480D+00 0.23718404D+06 0.23718404D+06 0.23718404D+06 0.10921826D+01  1  2  3  4  6  5       -2 0.207679235168D-05 0.100000000000D+01
-.245961987427D-05 0.000000000000D+00 0.000000000000D+00 0.803724123950D-06 0.000000000000D+00  6 -1 -2 25 -1 -2 21 2 0.56469706D-01 0.14825480D+00 0.23718404D+06 0.23718404D+06 0.23718404D+06 0.10921826D+01  1  2 15  4  6  5       -2 -.301038629704D-05 0.100000000000D+01
-.763848935297D-03 0.000000000000D+00 0.000000000000D+00 0.803724123950D-06 0.000000000000D+00  6 -1 -2 25 -1 -2 21 2 0.56469706D-01 0.14825480D+00 0.23718404D+06 0.23718404D+06 0.23718404D+06 0.10921826D+01  1  2  4  4  6  5       -2 -.934892579083D-03 0.100000000000D+01
-.551508110842D-03 0.000000000000D+00 0.000000000000D+00 0.803724123950D-06 0.000000000000D+00  6 -1 -2 25 -1 -2 21 2 0.56469706D-01 0.14825480D+00 0.23718404D+06 0.23718404D+06 0.23718404D+06 0.10921826D+01  1  2  5  4  6  5       -2 -.675003677174D-03 0.100000000000D+01
0.853042818915D-03 0.000000000000D+00 -.000000000000D+00 0.803724123950D-06 0.000000000000D+00  6 -1 -2 25 -1 -2 21 2 0.56469706D-01 0.14825480D+00 0.23718404D+06 0.23718404D+06 0.23718404D+06 0.10921826D+01  1  2  6  4  6  5       -2 0.104405905958D-02 0.100000000000D+01
  </mgrwgt>
  </event>
  <event>
  5     66 0.19165835E-05 0.27124098E+02 0.75467711E-02 0.92632766E-01
       -1 -1    0    0    0  501 0.00000000E+00 0.00000000E+00 0.83066393E+03 0.83066399E+03 0.32000000E+00 0.0000E+00 0.9000E+01
       -2 -1    0    0    0  502 -.00000000E+00 -.00000000E+00 -.10418534E+04 0.10418535E+04 0.32000000E+00 0.0000E+00 0.9000E+01
       25  1    1    2    0    0 0.38771998E+03 -.26504934E+03 -.61662211E+03 0.78512787E+03 0.12500000E+03 0.0000E+00 0.9000E+01
       -1  1    1    2    0  501 -.40950539E+03 0.24887486E+03 0.66872937E+03 0.82269827E+03 0.32000000E+00 0.0000E+00 0.9000E+01
       -2  1    1    2    0  502 0.21785408E+02 0.16174480E+02 -.26329674E+03 0.26469131E+03 0.32000000E+00 0.0000E+00 0.9000E+01
#aMCatNLO 1  0  0  5  2 0.30435650D+03 0.00000000D+00  -5  6  0 0.00000000D+00 0.00000000D+00 0.00000000D+00 0.00000000D+00 0.00000000D+00
  <mgrwgt>
 0.3860461103D-04    4    2    0
 0.930284983277800D+03 0.000000000000000D+00 0.000000000000000D+00 0.930284983277800D+03
 0.930284983277800D+03 -.000000000000000D+00 -.000000000000000D+00 -.930284983277800D+03
 0.720269918105188D+03 0.387733203860083D+03 -.265047178248808D+03 -.531579449239711D+03
 0.903900565306746D+03 -.409511449758410D+03 0.248878545065880D+03 0.766417689177716D+03
 0.236399483143666D+03 0.217782458983271D+02 0.161686331829276D+02 -.234838239938006D+03
 0.000000000000000D+00 0.000000000000000D+00 0.000000000000000D+00 0.000000000000000D+00
 0.930284983277800D+03 0.000000000000000D+00 0.000000000000000D+00 0.930284983277800D+03
 0.930284983277800D+03 -.000000000000000D+00 -.000000000000000D+00 -.930284983277800D+03
 0.771008520378380D+03 0.393759355658763D+03 -.260573234920572D+03 -.596560388871306D+03
 0.838645212885057D+03 -.402469944225607D+03 0.254106308612448D+03 0.690488031042838D+03
 0.123251500171852D+03 -.341696764207931D+02 -.106302679731330D+03 -.521833861477832D+02
 0.127664733120310D+03 0.428802649876369D+02 0.112769606039454D+03 -.417442560237491D+02
0.113882456744D-02 0.000000000000D+00 0.000000000000D+00 0.117101433207D-04 0.000000000000D+00  6 -1 -2 25 -1 -2 21 0 0.12779446D+00 0.16028515D+00 0.24618886D+06 0.24618886D+06 0.24618886D+06 0.10909614D+01  1  2  2  4  6  5       -2 0.165227817277D-03 0.100000000000D+01
0.403096185795D-03 0.000000000000D+00 -.437338619836D-05 0.117101433207D-04 0.000000000000D+00  6 -1 -2 25 -1 -2 21 2 0.12779446D+00 0.16028515D+00 0.24618886D+06 0.24618886D+06 0.24618886D+06 0.10909614D+01  1  2  3  4  6  5       -2 0.696071366459D-04 0.100000000000D+01
-.717826609216D-03 0.000000000000D+00 0.000000000000D+00 0.117101433207D-04 0.000000000000D+00  6 -1 -2 25 -1 -2 21 2 0.12779446D+00 0.16028515D+00 0.24618886D+06 0.24618886D+06 0.24618886D+06 0.10909614D+01  1  2 15  4  6  5       -2 -.123955166624D-03 0.100000000000D+01
-.418546851463D-03 0.000000000000D+00 0.000000000000D+00 0.117101433207D-04 0.000000000000D+00  6 -1 -2 25 -1 -2 21 2 0.12779446D+00 0.16028515D+00 0.24618886D+06 0.24618886D+06 0.24618886D+06 0.10909614D+01  1  2  4  4  6  5       -2 -.722751762709D-04 0.100000000000D+01
  </mgrwgt>
  </event>
  <event>
  6     66 0.19165835E-05 0.34067308E+02 0.75467711E-02 0.95101787E-01
       -3 -1    0    0    0  501 0.00000000E+00 0.00000000E+00 0.98199352E+03 0.98199365E+03 0.50000000E+00 0.0000E+00 0.9000E+01
       -4 -1    0    0    0  502 0.00000000E+00 0.00000000E+00 -.73670358E+03 0.73670522E+03 0.15500000E+01 0.0000E+00 0.9000E+01
       25  1    1    2    0    0 0.41070156E+03 0.19296741E+03 0.22729399E+03 0.52268514E+03 0.12500000E+03 0.0000E+00 0.9000E+01
       -3  1    1    2    0  503 -.38258746E+02 0.28370268E+02 0.27599671E+03 0.28007685E+03 0.50000000E+00 0.0000E+00 0.9000E+01
       -4  1    1    2    0  502 -.36416955E+03 -.19568064E+03 -.51337600E+03 0.65914163E+03 0.15500000E+01 0.0000E+00 0.9000E+01
       21  1    1    2  503  501 -.82732660E+01 -.25657040E+02 0.25537523E+03 0.25679525E+03 0.75000000E+00 0.0000E+00 0.9000E+01
#aMCatNLO 2  0  0  4  2 0.30355882D+02 0.00000000D+00  -5  6  0 0.00000000D+00 0.00000000D+00 0.00000000D+00 0.00000000D+00 0.00000000D+00
  <mgrwgt>
 0.1718506917D-04    2    2    0
 0.850552559588999D+03 0.000000000000000D+00 0.000000000000000D+00 0.850552559588999D+03
 0.850552559588999D+03 -.000000000000000D+00 -.000000000000000D+00 -.850552559588999D+03
 0.495419108476519D+03 0.411024208858707D+03 0.193093174101174D+03 0.153587821428905D+03
 0.464214459720780D+03 -.467740870355549D+02 0.272734383180518D+01 0.461843924926451D+03
 0.741471550980699D+03 -.364250121823151D+03 -.195820517932979D+03 -.615431746355355D+03
 0.000000000000000D+00 0.000000000000000D+00 0.000000000000000D+00 0.000000000000000D+00
 0.850552559588999D+03 0.000000000000000D+00 0.000000000000000D+00 0.850552559588999D+03
 0.850552559588999D+03 -.000000000000000D+00 -.000000000000000D+00 -.850552559588999D+03
 0.495684377607641D+03 0.410907101893126D+03 0.193100002475183D+03 0.154744127068367D+03
 0.242437266609987D+03 -.381690182201090D+02 0.283366658710918D+02 0.237730914390083D+03
 0.740120938324815D+03 -.364425184067494D+03 -.195810310252561D+03 -.613703194519120D+03
 0.222862536635555D+03 -.831289960552301D+01 -.256263580937139D+02 0.221228153060670D+03
-.368347146352D-08 0.000000000000D+00 0.000000000000D+00 0.175754591077D-04 0.000000000000D+00  6 -3 -4 25 -3 -4 21 2 0.15107606D+00 0.11333915D+00 0.22996315D+06 0.22996315D+06 0.22996315D+06 0.10931991D+01  1  2 13  3  6  4       -3 -.162100525185D-09 0.100000000000D+01
0.390506501554D-03 0.000000000000D+00 0.000000000000D+00 0.175754591077D-04 0.204769156405D-07  6 -3 -4 25 -3 -4 21 2 0.15107606D+00 0.11333915D+00 0.22996315D+06 0.22996315D+06 0.22996315D+06 0.10931991D+01  1  2  1  3  6  4       -3 0.171852312736D-04 0.100000000000D+01
  </mgrwgt>
  </event>
  <event>
  5     66 0.19165835E-05 0.95238560E+02 0.75467711E-02 0.89037240E-01
       -3 -1    0    0    0  501 0.00000000E+00 0.00000000E+00 0.83859594E+03 0.83859609E+03 0.50000000E+00 0.0000E+00 0.9000E+01
       -4 -1    0    0    0  502 0.00000000E+00 0.00000000E+00 -.97179300E+03 0.97179424E+03 0.15500000E+01 0.0000E+00 0.9000E+01
       25  1    1    2    0    0 0.68551360E+03 0.20054340E+03 -.12081722E+03 0.73509752E+03 0.12500000E+03 0.0000E+00 0.9000E+01
       -3  1    1    2    0  501 0.14924154E+02 -.94144049E+02 0.28979426E+03 0.30506851E+03 0.50000000E+00 0.0000E+00 0.9000E+01
       -4  1    1    2    0  502 -.70043776E+03 -.10639936E+03 -.30217410E+03 0.77022430E+03 0.15500000E+01 0.0000E+00 0.9000E+01
#aMCatNLO 1  0  0  1  1 0.16003774D+03 0.00000000D+00  -5  6  0 0.00000000D+00 0.00000000D+00 0.00000000D+00 0.00000000D+00 0.00000000D+00
  <mgrwgt>
 0.3851974641D-05    3    2    0
 0.902741890300097D+03 0.000000000000000D+00 0.000000000000000D+00 0.902741890300097D+03
 0.902741890300097D+03 0.000000000000000D+00 0.000000000000000D+00 -.902741890300097D+03
 0.728333266419146D+03 0.685692198792219D+03 0.200534200677036D+03 -.667576950403205D+02
 0.326997993831824D+03 0.149114611422559D+02 -.940639767712630D+02 0.312821521910843D+03
 0.750152520349224D+03 -.700603659934475D+03 -.106470223905773D+03 -.246063826870523D+03
 0.000000000000000D+00 0.000000000000000D+00 -.000000000000000D+00 -.000000000000000D+00
 0.908974315580746D+03 0.000000000000000D+00 0.000000000000000D+00 0.908974315580746D+03
 0.328399147672105D+04 0.000000000000000D+00 0.000000000000000D+00 -.328399147672105D+04
 0.684906496326249D+03 0.629864903547797D+03 0.228660276702197D+03 -.667576950403205D+02
 0.323348255413327D+03 -.107792058095289D+02 -.811208877561241D+02 0.312821521910843D+03
 0.804308008684013D+03 -.762009607593035D+03 -.755335943470581D+02 -.246063826870523D+03
 0.238040303187821D+04 0.142923909854766D+03 -.720057945990152D+02 -.237501716114031D+04
0.274373160591D-03 0.000000000000D+00 0.000000000000D+00 0.796782160082D-07 0.000000000000D+00  6 -3 -4 25 -3 -4 21 0 0.12901487D+00 0.14950672D+00 0.58457762D+06 0.58457762D+06 0.58457762D+06 0.10637464D+01  1  2  2  1  6  1       -3 0.684715061681D-05 0.100000000000D+01
0.552293983095D-04 0.000000000000D+00 -.105366518078D-05 0.796782160082D-07 0.000000000000D+00  6 -3 -4 25 -3 -4 21 2 0.12901487D+00 0.14950672D+00 0.58457762D+06 0.58457762D+06 0.58457762D+06 0.10637464D+01  1  2  3  1  6  1       -3 0.155960544960D-05 0.100000000000D+01
-.161295818507D-03 0.000000000000D+00 0.000000000000D+00 0.796782160082D-07 0.000000000000D+00  6 -3 -4 25 -3 -4 21 2 0.12901487D+00 0.14950672D+00 0.58457762D+06 0.58457762D+06 0.58457762D+06 0.10637464D+01  1  2 15  1  6  1       -3 -.455478142514D-05 0.100000000000D+01
  </mgrwgt>
  </event>
</LesHouchesEvents>
