<event>
 5    0  0.3169627E+000  0.2536907E+03  0.7546771E-02  0.1110994E+00
         21   -1    0    0  502  501  0.00000000000E+00  0.00000000000E+00  0.39901221641E+03  0.39901221641E+03  0.00000000000E+00 0.  1.
         21   -1    0    0  503  502 -0.00000000000E+00 -0.00000000000E+00 -0.15670044148E+03  0.15670044148E+03  0.00000000000E+00 0.  1.
         25    1    1    2    0    0  0.65318603891E+02  0.21788500049E+03  0.11454741032E+03  0.28370143225E+03  0.12500000000E+03 0.  0.
         21    1    1    2  503  504  0.15840674861E+02 -0.17581192815E+02  0.83567383927E+01  0.25097019693E+02  0.00000000000E+00 0.  1.
         21    1    1    2  504  501 -0.81159278752E+02 -0.20030380767E+03  0.11940762622E+03  0.24691420594E+03  0.00000000000E+00 0.  1.
<mgrwt>
<rscale>  4 0.25369068E+03</rscale>
<asrwt>0</asrwt>
<pdfrwt beam="1">  1       21 0.61386495E-01 0.25369068E+03</pdfrwt>
<pdfrwt beam="2">  1       21 0.24107760E-01 0.25369068E+03</pdfrwt>
<totfact> 0.38910629E+04</totfact>
</mgrwt>
</event>
<event>
 5    0  0.2307084E+000  0.2288458E+03  0.7546771E-02  0.1127455E+00
         21   -1    0    0  502  501  0.00000000000E+00  0.00000000000E+00  0.56019179188E+03  0.56019179188E+03  0.00000000000E+00 0. -1.
         21   -1    0    0  503  502 -0.00000000000E+00 -0.00000000000E+00 -0.24777939416E+03  0.24777939416E+03  0.00000000000E+00 0. -1.
         25    1    1    2    0    0  0.43468700717E+02  0.20529298509E+03  0.45769769704E+03  0.51879371579E+03  0.12500000000E+03 0.  0.
         21    1    1    2  503  504 -0.15698551655E+02 -0.64297075670E+02 -0.12843839080E+03  0.14448868017E+03  0.00000000000E+00 0. -1.
         21    1    1    2  504  501 -0.27770149061E+02 -0.14099590942E+03 -0.16846908519E+02  0.14468879009E+03  0.00000000000E+00 0. -1.
<mgrwt>
<rscale>  4 0.22884578E+03</rscale>
<asrwt>0</asrwt>
<pdfrwt beam="1">  1       21 0.86183352E-01 0.22884578E+03</pdfrwt>
<pdfrwt beam="2">  1       21 0.38119907E-01 0.22884578E+03</pdfrwt>
<totfact> 0.75129564E+03</totfact>
</mgrwt>
</event>
<event>
 5    0  0.2307600E+000  0.2943488E+03  0.7546771E-02  0.1088100E+00
         21   -1    0    0  502  501  0.00000000000E+00  0.00000000000E+00  0.18994020390E+03  0.18994020390E+03  0.00000000000E+00 0.  1.
         21   -1    0    0  503  502 -0.00000000000E+00 -0.00000000000E+00 -0.66446846396E+03  0.66446846396E+03  0.00000000000E+00 0.  1.
         25    1    1    2    0    0 -0.19922906564E+03 -0.22937851599E+03 -0.13465941986E+03  0.35505616957E+03  0.12500000000E+03 0.  0.
         21    1    1    2  503  504 -0.14996707248E+02  0.12793046205E+03 -0.12096311936E+03  0.17670082228E+03  0.00000000000E+00 0.  1.
         21    1    1    2  504  501  0.21422577289E+03  0.10144805394E+03 -0.21890572084E+03  0.32265167601E+03  0.00000000000E+00 0.  1.
<mgrwt>
<rscale>  4 0.29434876E+03</rscale>
<asrwt>0</asrwt>
<pdfrwt beam="1">  1       21 0.29221569E-01 0.29434876E+03</pdfrwt>
<pdfrwt beam="2">  1       21 0.10222592E+00 0.29434876E+03</pdfrwt>
<totfact> 0.82173575E+03</totfact>
</mgrwt>
</event>
<event>
 5    0  0.1856407E+000  0.2782378E+03  0.7546771E-02  0.1096655E+00
         21   -1    0    0  502  501  0.00000000000E+00  0.00000000000E+00  0.17147377339E+04  0.17147377339E+04  0.00000000000E+00 0. -1.
         21   -1    0    0  503  502 -0.00000000000E+00 -0.00000000000E+00 -0.61771099185E+02  0.61771099185E+02  0.00000000000E+00 0. -1.
         25    1    1    2    0    0  0.21531839120E+02 -0.24764418564E+03  0.13564843429E+04  0.13847259784E+04  0.12500000000E+03 0.  0.
         21    1    1    2  503  504  0.17635384191E+02  0.14261169687E+03  0.17612968642E+03  0.22731205269E+03  0.00000000000E+00 0. -1.
         21    1    1    2  504  501 -0.39167223311E+02  0.10503248877E+03  0.12035260541E+03  0.16447080199E+03  0.00000000000E+00 0. -1.
<mgrwt>
<rscale>  4 0.27823778E+03</rscale>
<asrwt>0</asrwt>
<pdfrwt beam="1">  1       21 0.26380577E+00 0.27823778E+03</pdfrwt>
<pdfrwt beam="2">  1       21 0.95032473E-02 0.27823778E+03</pdfrwt>
<totfact> 0.45369861E+03</totfact>
</mgrwt>
</event>
<event>
 5    0  0.1856407E+000  0.5210706E+03  0.7546771E-02  0.1008421E+00
         21   -1    0    0  502  501  0.00000000000E+00  0.00000000000E+00  0.10533349678E+04  0.10533349678E+04  0.00000000000E+00 0.  1.
         21   -1    0    0  503  502 -0.00000000000E+00 -0.00000000000E+00 -0.38850327392E+03  0.38850327392E+03  0.00000000000E+00 0.  1.
         25    1    1    2    0    0 -0.51465316773E+03 -0.87669631546E+02  0.36373760273E+03  0.64844729238E+03  0.12500000000E+03 0.  0.
         21    1    1    2  503  504  0.50060774396E+03 -0.14399006771E+02  0.28101067144E+02  0.50160254653E+03  0.00000000000E+00 0.  1.
         21    1    1    2  504  501  0.14045423768E+02  0.10206863832E+03  0.27299302398E+03  0.29178840279E+03  0.00000000000E+00 0.  1.
<mgrwt>
<rscale>  4 0.52107056E+03</rscale>
<asrwt>0</asrwt>
<pdfrwt beam="1">  1       21 0.16205153E+00 0.52107056E+03</pdfrwt>
<pdfrwt beam="2">  1       21 0.59769735E-01 0.52107056E+03</pdfrwt>
<totfact> 0.51258533E+02</totfact>
</mgrwt>
</event>
<event>
 5    0  0.1856407E+000  0.2368527E+03  0.7546771E-02  0.1121907E+00
         21   -1    0    0  502  501  0.00000000000E+00  0.00000000000E+00  0.32231758483E+03  0.32231758483E+03  0.00000000000E+00 0.  1.
         21   -1    0    0  503  502 -0.00000000000E+00 -0.00000000000E+00 -0.16284424617E+03  0.16284424617E+03  0.00000000000E+00 0.  1.
         25    1    1    2    0    0  0.19533933642E+03  0.48132718938E+02  0.12739541916E+03  0.26894015656E+03  0.12500000000E+03 0.  0.
         21    1    1    2  503  504 -0.14720632121E+03 -0.58231443482E+02  0.46457671732E+02  0.16498156647E+03  0.00000000000E+00 0.  1.
         21    1    1    2  504  501 -0.48133015212E+02  0.10098724544E+02 -0.14379752230E+02  0.51240107972E+02  0.00000000000E+00 0. -1.
<mgrwt>
<rscale>  4 0.23685273E+03</rscale>
<asrwt>0</asrwt>
<pdfrwt beam="1">  1       21 0.49587321E-01 0.23685273E+03</pdfrwt>
<pdfrwt beam="2">  1       21 0.25052961E-01 0.23685273E+03</pdfrwt>
<totfact> 0.57351678E+04</totfact>
</mgrwt>
</event>
<event>
 5    0  0.1856407E+000  0.2539091E+03  0.7546771E-02  0.1110859E+00
         21   -1    0    0  502  501  0.00000000000E+00  0.00000000000E+00  0.14581104507E+04  0.14581104507E+04  0.00000000000E+00 0. -1.
         21   -1    0    0  503  502 -0.00000000000E+00 -0.00000000000E+00 -0.69298359234E+02  0.69298359234E+02  0.00000000000E+00 0.  1.
         25    1    1    2    0    0  0.18109163909E+03 -0.12669111575E+03  0.11937051270E+04  0.12204104845E+04  0.12500000000E+03 0.  0.
         21    1    1    2  503  504 -0.71801283458E+02  0.10157551856E+03  0.11249904110E+03  0.16771715632E+03  0.00000000000E+00 0.  1.
         21    1    1    2  504  501 -0.10929035563E+03  0.25115597190E+02  0.82607923387E+02  0.13928116909E+03  0.00000000000E+00 0.  1.
<mgrwt>
<rscale>  4 0.25390908E+03</rscale>
<asrwt>0</asrwt>
<pdfrwt beam="1">  1       21 0.22432466E+00 0.25390908E+03</pdfrwt>
<pdfrwt beam="2">  1       21 0.10661287E-01 0.25390908E+03</pdfrwt>
<totfact> 0.65151350E+03</totfact>
</mgrwt>
</event>
<event>
 5    0  0.1856407E+000  0.2476236E+03  0.7546771E-02  0.1114816E+00
         21   -1    0    0  502  501  0.00000000000E+00  0.00000000000E+00  0.24727708086E+03  0.24727708086E+03  0.00000000000E+00 0.  1.
         21   -1    0    0  503  502 -0.00000000000E+00 -0.00000000000E+00 -0.25501966247E+03  0.25501966247E+03  0.00000000000E+00 0.  1.
         25    1    1    2    0    0  0.21294829516E+03  0.18586789230E+02 -0.96081370895E+02  0.26561075840E+03  0.12500000000E+03 0.  0.
         21    1    1    2  503  504 -0.26130573323E+02 -0.19577823857E+02  0.15853814515E+02  0.36296576751E+02  0.00000000000E+00 0.  1.
         21    1    1    2  504  501 -0.18681772184E+03  0.99103462638E+00  0.72484974770E+02  0.20038940818E+03  0.00000000000E+00 0.  1.
<mgrwt>
<rscale>  4 0.24762360E+03</rscale>
<asrwt>0</asrwt>
<pdfrwt beam="1">  1       21 0.38042628E-01 0.24762360E+03</pdfrwt>
<pdfrwt beam="2">  1       21 0.39233795E-01 0.24762360E+03</pdfrwt>
<totfact> 0.40674577E+04</totfact>
</mgrwt>
</event>
<event>
 5    0  0.1856407E+000  0.1825980E+03  0.7546771E-02  0.1165312E+00
         21   -1    0    0  502  501  0.00000000000E+00  0.00000000000E+00  0.13559653606E+04  0.13559653606E+04  0.00000000000E+00 0. -1.
         21   -1    0    0  503  502 -0.00000000000E+00 -0.00000000000E+00 -0.47973738222E+02  0.47973738222E+02  0.00000000000E+00 0. -1.
         25    1    1    2    0    0 -0.11972625570E+03 -0.18332964895E+03  0.75714647703E+03  0.79802250856E+03  0.12500000000E+03 0.  0.
         21    1    1    2  503  504  0.79504414698E+02  0.84091983899E+02  0.14149380953E+03  0.18279199066E+03  0.00000000000E+00 0. -1.
         21    1    1    2  504  501  0.40221841004E+02  0.99237665047E+02  0.40935133581E+03  0.42312459960E+03  0.00000000000E+00 0. -1.
<mgrwt>
<rscale>  4 0.18259805E+03</rscale>
<asrwt>0</asrwt>
<pdfrwt beam="1">  1       21 0.20861003E+00 0.18259805E+03</pdfrwt>
<pdfrwt beam="2">  1       21 0.73805761E-02 0.18259805E+03</pdfrwt>
<totfact> 0.16475500E+04</totfact>
</mgrwt>
</event>
<event>
 5    0  0.1856407E+000  0.2617584E+03  0.7546771E-02  0.1106091E+00
         21   -1    0    0  502  501  0.00000000000E+00  0.00000000000E+00  0.65574192370E+03  0.65574192370E+03  0.00000000000E+00 0. -1.
         21   -1    0    0  503  502 -0.00000000000E+00 -0.00000000000E+00 -0.95569514692E+02  0.95569514692E+02  0.00000000000E+00 0. -1.
         25    1    1    2    0    0  0.22163270936E+03  0.61411539290E+02  0.29089191867E+03  0.39132536765E+03  0.12500000000E+03 0.  0.
         21    1    1    2  503  504 -0.12768840861E+03 -0.10353884412E+02  0.11420540284E+03  0.17162286169E+03  0.00000000000E+00 0. -1.
         21    1    1    2  504  501 -0.93944300755E+02 -0.51057654878E+02  0.15507508750E+03  0.18836320907E+03  0.00000000000E+00 0. -1.
<mgrwt>
<rscale>  4 0.26175835E+03</rscale>
<asrwt>0</asrwt>
<pdfrwt beam="1">  1       21 0.10088337E+00 0.26175835E+03</pdfrwt>
<pdfrwt beam="2">  1       21 0.14703003E-01 0.26175835E+03</pdfrwt>
<totfact> 0.31587756E+04</totfact>
</mgrwt>
</event>
<event>
 5    0  0.1856407E+000  0.3351535E+03  0.7546771E-02  0.1068879E+00
         21   -1    0    0  502  501  0.00000000000E+00  0.00000000000E+00  0.59769849269E+03  0.59769849269E+03  0.00000000000E+00 0.  1.
         21   -1    0    0  503  502 -0.00000000000E+00 -0.00000000000E+00 -0.18768578562E+03  0.18768578562E+03  0.00000000000E+00 0. -1.
         25    1    1    2    0    0  0.25106178598E+03 -0.18349621210E+03  0.11907370541E+03  0.35567742064E+03  0.12500000000E+03 0.  0.
         21    1    1    2  503  504 -0.20381067615E+03  0.14088017477E+03  0.25931788505E+03  0.35865273018E+03  0.00000000000E+00 0. -1.
         21    1    1    2  504  501 -0.47251109828E+02  0.42616037330E+02  0.31621116609E+02  0.71054127490E+02  0.00000000000E+00 0. -1.
<mgrwt>
<rscale>  4 0.33515352E+03</rscale>
<asrwt>0</asrwt>
<pdfrwt beam="1">  1       21 0.91953613E-01 0.33515352E+03</pdfrwt>
<pdfrwt beam="2">  1       21 0.28874737E-01 0.33515352E+03</pdfrwt>
<totfact> 0.10637108E+04</totfact>
</mgrwt>
</event>
<event>
 5    0  0.3066902E+000  0.2477340E+03  0.7546771E-02  0.1114745E+00
         21   -1    0    0  502  501  0.00000000000E+00  0.00000000000E+00  0.27984223023E+03  0.27984223023E+03  0.00000000000E+00 0. -1.
         21   -1    0    0  503  502 -0.00000000000E+00 -0.00000000000E+00 -0.40037762384E+03  0.40037762384E+03  0.00000000000E+00 0.  1.
         25    1    1    2    0    0 -0.57560712716E+02 -0.20961352502E+03  0.17425072352E+03  0.30535124065E+03  0.12500000000E+03 0.  0.
         21    1    1    2  503  504  0.30173139247E+02  0.19649580785E+03 -0.27199175891E+03  0.33689840865E+03  0.00000000000E+00 0.  1.
         21    1    1    2  504  501  0.27387573469E+02  0.13117717174E+02 -0.22794358216E+02  0.37970204777E+02  0.00000000000E+00 0.  1.
<mgrwt>
<rscale>  4 0.24773401E+03</rscale>
<asrwt>0</asrwt>
<pdfrwt beam="1">  1       21 0.43052651E-01 0.24773401E+03</pdfrwt>
<pdfrwt beam="2">  1       21 0.61596557E-01 0.24773401E+03</pdfrwt>
<totfact> 0.12289083E+04</totfact>
</mgrwt>
</event>
<event>
 5    0  0.1856407E+000  0.2542511E+03  0.7546771E-02  0.1110647E+00
         21   -1    0    0  502  501  0.00000000000E+00  0.00000000000E+00  0.30927922610E+03  0.30927922610E+03  0.00000000000E+00 0.  1.
         21   -1    0    0  503  502 -0.00000000000E+00 -0.00000000000E+00 -0.12073314067E+04  0.12073314067E+04  0.00000000000E+00 0.  1.
         25    1    1    2    0    0  0.58481479787E+02  0.22836909222E+03  0.23081230544E+03  0.35280567754E+03  0.12500000000E+03 0.  0.
         21    1    1    2  503  504 -0.42161629222E+02 -0.87821295335E+02 -0.79843234222E+03  0.80435339745E+03  0.00000000000E+00 0.  1.
         21    1    1    2  504  501 -0.16319850565E+02 -0.14054779689E+03 -0.33043214384E+03  0.35945155781E+03  0.00000000000E+00 0.  1.
<mgrwt>
<rscale>  4 0.25425114E+03</rscale>
<asrwt>0</asrwt>
<pdfrwt beam="1">  1       21 0.47581420E-01 0.25425114E+03</pdfrwt>
<pdfrwt beam="2">  1       21 0.18574329E+00 0.25425114E+03</pdfrwt>
<totfact> 0.66043024E+02</totfact>
</mgrwt>
</event>
<event>
 5    0  0.1856407E+000  0.2563304E+03  0.7546771E-02  0.1109368E+00
         21   -1    0    0  502  501  0.00000000000E+00  0.00000000000E+00  0.36500787964E+03  0.36500787964E+03  0.00000000000E+00 0.  1.
         21   -1    0    0  503  502 -0.00000000000E+00 -0.00000000000E+00 -0.25731485007E+03  0.25731485007E+03  0.00000000000E+00 0.  1.
         25    1    1    2    0    0  0.95309193331E+02  0.19967625895E+03  0.21371475711E+03  0.33204434662E+03  0.12500000000E+03 0.  0.
         21    1    1    2  503  504 -0.12452209830E+03 -0.18721971377E+03 -0.12080694454E+03  0.25524751132E+03  0.00000000000E+00 0.  1.
         21    1    1    2  504  501  0.29212904969E+02 -0.12456545176E+02  0.14785216997E+02  0.35030871757E+02  0.00000000000E+00 0.  1.
<mgrwt>
<rscale>  4 0.25633044E+03</rscale>
<asrwt>0</asrwt>
<pdfrwt beam="1">  1       21 0.56155058E-01 0.25633044E+03</pdfrwt>
<pdfrwt beam="2">  1       21 0.39586900E-01 0.25633044E+03</pdfrwt>
<totfact> 0.17726663E+04</totfact>
</mgrwt>
</event>
<event>
 5    0  0.2442147E+000  0.3150053E+03  0.7546771E-02  0.1077971E+00
         21   -1    0    0  502  501  0.00000000000E+00  0.00000000000E+00  0.18503496267E+03  0.18503496267E+03  0.00000000000E+00 0.  1.
         21   -1    0    0  503  502 -0.00000000000E+00 -0.00000000000E+00 -0.65330319540E+03  0.65330319540E+03  0.00000000000E+00 0.  1.
         25    1    1    2    0    0 -0.10914513431E+03  0.27381289234E+03 -0.93715850845E+02  0.33360728567E+03  0.12500000000E+03 0.  0.
         21    1    1    2  503  504 -0.10913259413E+02 -0.19369443855E+02 -0.13020710498E+03  0.13209150152E+03  0.00000000000E+00 0.  1.
         21    1    1    2  504  501  0.12005839372E+03 -0.25444344849E+03 -0.24434527690E+03  0.37263937087E+03  0.00000000000E+00 0.  1.
<mgrwt>
<rscale>  4 0.31500529E+03</rscale>
<asrwt>0</asrwt>
<pdfrwt beam="1">  1       21 0.28466918E-01 0.31500529E+03</pdfrwt>
<pdfrwt beam="2">  1       21 0.10050818E+00 0.31500529E+03</pdfrwt>
<totfact> 0.89253002E+03</totfact>
</mgrwt>
</event>
<event>
 5    0  0.1856407E+000  0.3401191E+03  0.7546771E-02  0.1066745E+00
         21   -1    0    0  502  501  0.00000000000E+00  0.00000000000E+00  0.93858383216E+03  0.93858383216E+03  0.00000000000E+00 0. -1.
         21   -1    0    0  503  502 -0.00000000000E+00 -0.00000000000E+00 -0.41269526110E+03  0.41269526110E+03  0.00000000000E+00 0. -1.
         25    1    1    2    0    0 -0.18863051840E+03  0.29911507765E+03  0.77768935437E+03  0.86341011927E+03  0.12500000000E+03 0.  0.
         21    1    1    2  503  504  0.13431573450E+03 -0.28310644844E+03 -0.28385197638E+03  0.42280246236E+03  0.00000000000E+00 0. -1.
         21    1    1    2  504  501  0.54314783896E+02 -0.16008629213E+02  0.32051193062E+02  0.65066511630E+02  0.00000000000E+00 0. -1.
<mgrwt>
<rscale>  4 0.34011912E+03</rscale>
<asrwt>0</asrwt>
<pdfrwt beam="1">  1       21 0.14439751E+00 0.34011912E+03</pdfrwt>
<pdfrwt beam="2">  1       21 0.63491579E-01 0.34011912E+03</pdfrwt>
<totfact> 0.67186015E+02</totfact>
</mgrwt>
</event>
<event>
 5    0  0.1856407E+000  0.2750130E+03  0.7546771E-02  0.1098444E+00
         21   -1    0    0  502  501  0.00000000000E+00  0.00000000000E+00  0.48065803630E+02  0.48065803630E+02  0.00000000000E+00 0.  1.
         21   -1    0    0  503  502 -0.00000000000E+00 -0.00000000000E+00 -0.16812049990E+04  0.16812049990E+04  0.00000000000E+00 0. -1.
         25    1    1    2    0    0 -0.24013940205E+03 -0.48375833946E+02 -0.53267212836E+03  0.59947622977E+03  0.12500000000E+03 0.  0.
         21    1    1    2  503  504  0.79612988658E+02  0.47314073564E+02 -0.48318872391E+03  0.49198393513E+03  0.00000000000E+00 0. -1.
         21    1    1    2  504  501  0.16052641339E+03  0.10617603815E+01 -0.61727834307E+03  0.63781063770E+03  0.00000000000E+00 0. -1.
<mgrwt>
<rscale>  4 0.27501301E+03</rscale>
<asrwt>0</asrwt>
<pdfrwt beam="1">  1       21 0.73947403E-02 0.27501301E+03</pdfrwt>
<pdfrwt beam="2">  1       21 0.25864688E+00 0.27501301E+03</pdfrwt>
<totfact> 0.75896881E+03</totfact>
</mgrwt>
</event>
<event>
 5    0  0.1856407E+000  0.2564115E+03  0.7546771E-02  0.1109319E+00
         21   -1    0    0  502  501  0.00000000000E+00  0.00000000000E+00  0.12035242043E+03  0.12035242043E+03  0.00000000000E+00 0. -1.
         21   -1    0    0  503  502 -0.00000000000E+00 -0.00000000000E+00 -0.71043035599E+03  0.71043035599E+03  0.00000000000E+00 0.  1.
         25    1    1    2    0    0  0.21885916757E+03 -0.47143692134E+02 -0.77724651129E+02  0.26793279816E+03  0.12500000000E+03 0.  0.
         21    1    1    2  503  504 -0.43132048879E+02 -0.15769342886E+02 -0.88016440618E+02  0.99277085144E+02  0.00000000000E+00 0.  1.
         21    1    1    2  504  501 -0.17572711869E+03  0.62913035019E+02 -0.42433684381E+03  0.46357289312E+03  0.00000000000E+00 0.  1.
<mgrwt>
<rscale>  4 0.25641151E+03</rscale>
<asrwt>0</asrwt>
<pdfrwt beam="1">  1       21 0.18515757E-01 0.25641151E+03</pdfrwt>
<pdfrwt beam="2">  1       21 0.10929698E+00 0.25641151E+03</pdfrwt>
<totfact> 0.17033002E+04</totfact>
</mgrwt>
</event>
