<event>
 5    0  0.8533808E-002  0.2813340E+03  0.7546771E-02  0.1094963E+00
         21   -1    0    0  501  502  0.00000000000E+00  0.00000000000E+00  0.24220182639E+03  0.24220182639E+03  0.00000000000E+00 0.  1.
         21   -1    0    0  502  503 -0.00000000000E+00 -0.00000000000E+00 -0.81155796633E+03  0.81155796633E+03  0.00000000000E+00 0. -1.
         25    1    1    2    0    0  0.21751618136E+03  0.12732058008E+03 -0.70300266994E+03  0.75720642708E+03  0.12500000000E+03 0.  0.
          1    1    1    2  501    0 -0.12485585826E+03 -0.10414103839E+03  0.51430980331E+02  0.17052708570E+03  0.00000000000E+00 0.  1.
         -1    1    1    2    0  503 -0.92660323101E+02 -0.23179541689E+02  0.82215549664E+02  0.12602627994E+03  0.00000000000E+00 0. -1.
<mgrwt>
<rscale>  4 0.28133400E+03</rscale>
<asrwt>0</asrwt>
<pdfrwt beam="1">  1       21 0.37261820E-01 0.28133400E+03</pdfrwt>
<pdfrwt beam="2">  1       21 0.12485507E+00 0.28133400E+03</pdfrwt>
<totfact> 0.31139497E+03</totfact>
</mgrwt>
</event>
<event>
 5    0  0.8533808E-002  0.2517951E+03  0.7546771E-02  0.1112176E+00
         21   -1    0    0  503  502  0.00000000000E+00  0.00000000000E+00  0.92078962208E+03  0.92078962208E+03  0.00000000000E+00 0.  1.
         21   -1    0    0  501  503 -0.00000000000E+00 -0.00000000000E+00 -0.11504278820E+03  0.11504278820E+03  0.00000000000E+00 0.  1.
         25    1    1    2    0    0  0.16328415239E+03  0.17450364421E+03  0.14045988320E+03  0.30408422361E+03  0.12500000000E+03 0.  0.
          4    1    1    2  501    0 -0.43746983015E+02  0.39698492173E+01  0.14236027648E+02  0.46175997108E+02  0.00000000000E+00 0. -1.
         -4    1    1    2    0  502 -0.11953716937E+03 -0.17847349343E+03  0.65105092304E+03  0.68557218957E+03  0.00000000000E+00 0.  1.
<mgrwt>
<rscale>  4 0.25179508E+03</rscale>
<asrwt>0</asrwt>
<pdfrwt beam="1">  1       21 0.14165994E+00 0.25179508E+03</pdfrwt>
<pdfrwt beam="2">  1       21 0.17698891E-01 0.25179508E+03</pdfrwt>
<totfact> 0.96597080E+03</totfact>
</mgrwt>
</event>
<event>
 5    0  0.8533808E-002  0.2204268E+03  0.7546771E-02  0.1133565E+00
         21   -1    0    0  501  502  0.00000000000E+00  0.00000000000E+00  0.76685156433E+02  0.76685156433E+02  0.00000000000E+00 0. -1.
         21   -1    0    0  502  503 -0.00000000000E+00 -0.00000000000E+00 -0.92187777473E+03  0.92187777473E+03  0.00000000000E+00 0. -1.
         25    1    1    2    0    0 -0.16946398139E+03 -0.11226002230E+03 -0.65633579013E+03  0.69837097807E+03  0.12500000000E+03 0.  0.
          4    1    1    2  501    0  0.14840382796E+03  0.34661733874E+02 -0.13318736243E+03  0.20239566562E+03  0.00000000000E+00 0.  1.
         -4    1    1    2    0  503  0.21060153432E+02  0.77598288430E+02 -0.55669465736E+02  0.97796287481E+02  0.00000000000E+00 0. -1.
<mgrwt>
<rscale>  4 0.22042676E+03</rscale>
<asrwt>0</asrwt>
<pdfrwt beam="1">  1       21 0.11797716E-01 0.22042676E+03</pdfrwt>
<pdfrwt beam="2">  1       21 0.14182735E+00 0.22042676E+03</pdfrwt>
<totfact> 0.20563459E+04</totfact>
</mgrwt>
</event>
<event>
 5    0  0.8533808E-002  0.1907354E+03  0.7546771E-02  0.1157800E+00
         21   -1    0    0  501  502  0.00000000000E+00  0.00000000000E+00  0.91813187438E+03  0.91813187438E+03  0.00000000000E+00 0. -1.
         21   -1    0    0  502  503 -0.00000000000E+00 -0.00000000000E+00 -0.70313877569E+02  0.70313877569E+02  0.00000000000E+00 0. -1.
         25    1    1    2    0    0 -0.16990200433E+03  0.10999441502E+03  0.24756619787E+03  0.34333581919E+03  0.12500000000E+03 0.  0.
          4    1    1    2  501    0  0.79579563890E+02 -0.46810092269E+02  0.44639119483E+03  0.45583899630E+03  0.00000000000E+00 0. -1.
         -4    1    1    2    0  503  0.90322440444E+02 -0.63184322754E+02  0.15386060412E+03  0.18927093646E+03  0.00000000000E+00 0.  1.
<mgrwt>
<rscale>  4 0.19073539E+03</rscale>
<asrwt>0</asrwt>
<pdfrwt beam="1">  1       21 0.14125105E+00 0.19073539E+03</pdfrwt>
<pdfrwt beam="2">  1       21 0.10817520E-01 0.19073539E+03</pdfrwt>
<totfact> 0.24718712E+04</totfact>
</mgrwt>
</event>
<event>
 5    0  0.8533808E-002  0.2030629E+03  0.7546771E-02  0.1147180E+00
         21   -1    0    0  501  502  0.00000000000E+00  0.00000000000E+00  0.72323053224E+03  0.72323053224E+03  0.00000000000E+00 0. -1.
         21   -1    0    0  502  503 -0.00000000000E+00 -0.00000000000E+00 -0.21141896867E+03  0.21141896867E+03  0.00000000000E+00 0. -1.
         25    1    1    2    0    0  0.17116656235E+03 -0.10354239557E+03 -0.10483708124E+03  0.25813723743E+03  0.12500000000E+03 0.  0.
          3    1    1    2  501    0 -0.14527405032E+03  0.61878224387E+02  0.60610720455E+03  0.62633809381E+03  0.00000000000E+00 0. -1.
         -3    1    1    2    0  503 -0.25892512025E+02  0.41664171179E+02  0.10541440251E+02  0.50174169665E+02  0.00000000000E+00 0.  1.
<mgrwt>
<rscale>  4 0.20306294E+03</rscale>
<asrwt>0</asrwt>
<pdfrwt beam="1">  1       21 0.11126624E+00 0.20306294E+03</pdfrwt>
<pdfrwt beam="2">  1       21 0.32525995E-01 0.20306294E+03</pdfrwt>
<totfact> 0.57314470E+03</totfact>
</mgrwt>
</event>
<event>
 5    0  0.8533808E-002  0.2363727E+03  0.7546771E-02  0.1122233E+00
         21   -1    0    0  503  502  0.00000000000E+00  0.00000000000E+00  0.98830567167E+02  0.98830567167E+02  0.00000000000E+00 0.  1.
         21   -1    0    0  501  503 -0.00000000000E+00 -0.00000000000E+00 -0.95296068303E+03  0.95296068303E+03  0.00000000000E+00 0. -1.
         25    1    1    2    0    0  0.34473895316E+02  0.19763245099E+03 -0.80302700418E+03  0.83709282913E+03  0.12500000000E+03 0.  0.
          3    1    1    2  501    0 -0.30290497713E+02 -0.40753625671E+02 -0.20758933657E+02  0.54857137946E+02  0.00000000000E+00 0. -1.
         -3    1    1    2    0  502 -0.41833976025E+01 -0.15687882532E+03 -0.30344178028E+02  0.15984128312E+03  0.00000000000E+00 0.  1.
<mgrwt>
<rscale>  4 0.23637266E+03</rscale>
<asrwt>0</asrwt>
<pdfrwt beam="1">  1       21 0.15204702E-01 0.23637266E+03</pdfrwt>
<pdfrwt beam="2">  1       21 0.14660934E+00 0.23637266E+03</pdfrwt>
<totfact> 0.11788927E+04</totfact>
</mgrwt>
</event>
<event>
 5    0  0.8533808E-002  0.2678537E+03  0.7546771E-02  0.1102514E+00
         21   -1    0    0  503  502  0.00000000000E+00  0.00000000000E+00  0.90430809993E+03  0.90430809993E+03  0.00000000000E+00 0. -1.
         21   -1    0    0  501  503 -0.00000000000E+00 -0.00000000000E+00 -0.79547036681E+02  0.79547036681E+02  0.00000000000E+00 0. -1.
         25    1    1    2    0    0  0.43746829100E+02  0.23282360791E+03  0.57928332054E+03  0.63821217703E+03  0.12500000000E+03 0.  0.
          2    1    1    2  501    0  0.31637448369E+01 -0.11505922976E+03  0.97984741776E+02  0.15116099118E+03  0.00000000000E+00 0. -1.
         -2    1    1    2    0  502 -0.46910573937E+02 -0.11776437814E+03  0.14749300094E+03  0.19448196840E+03  0.00000000000E+00 0.  1.
<mgrwt>
<rscale>  4 0.26785372E+03</rscale>
<asrwt>0</asrwt>
<pdfrwt beam="1">  1       21 0.13912432E+00 0.26785372E+03</pdfrwt>
<pdfrwt beam="2">  1       21 0.12238006E-01 0.26785372E+03</pdfrwt>
<totfact> 0.19727692E+04</totfact>
</mgrwt>
</event>
<event>
 5    0  0.8533808E-002  0.2356774E+03  0.7546771E-02  0.1122706E+00
         21   -1    0    0  501  502  0.00000000000E+00  0.00000000000E+00  0.60273309304E+02  0.60273309304E+02  0.00000000000E+00 0. -1.
         21   -1    0    0  502  503 -0.00000000000E+00 -0.00000000000E+00 -0.17677864432E+04  0.17677864432E+04  0.00000000000E+00 0. -1.
         25    1    1    2    0    0  0.21082045421E+03  0.19586259550E+03 -0.76808156910E+03  0.82968772259E+03  0.12500000000E+03 0.  0.
          4    1    1    2  501    0 -0.71007499546E+02 -0.15226619956E+03 -0.31508978746E+03  0.35708351219E+03  0.00000000000E+00 0.  1.
         -4    1    1    2    0  503 -0.13981295466E+03 -0.43596395938E+02 -0.62434177732E+03  0.64128851770E+03  0.00000000000E+00 0. -1.
<mgrwt>
<rscale>  4 0.23567736E+03</rscale>
<asrwt>0</asrwt>
<pdfrwt beam="1">  1       21 0.92728169E-02 0.23567736E+03</pdfrwt>
<pdfrwt beam="2">  1       21 0.27196714E+00 0.23567736E+03</pdfrwt>
<totfact> 0.43936146E+03</totfact>
</mgrwt>
</event>
<event>
 5    0  0.8533808E-002  0.3572770E+03  0.7546771E-02  0.1059667E+00
         21   -1    0    0  501  502  0.00000000000E+00  0.00000000000E+00  0.27960918661E+03  0.27960918661E+03  0.00000000000E+00 0. -1.
         21   -1    0    0  502  503 -0.00000000000E+00 -0.00000000000E+00 -0.12652264481E+04  0.12652264481E+04  0.00000000000E+00 0. -1.
         25    1    1    2    0    0  0.21442602618E+03  0.24875848748E+03 -0.99644377025E+03  0.10565909772E+04  0.12500000000E+03 0.  0.
          1    1    1    2  501    0  0.50982074509E+02  0.36439933833E+01  0.99091066875E+02  0.11149659252E+03  0.00000000000E+00 0.  1.
         -1    1    1    2    0  503 -0.26540810069E+03 -0.25240248087E+03 -0.88264558112E+02  0.37674806499E+03  0.00000000000E+00 0. -1.
<mgrwt>
<rscale>  4 0.35727702E+03</rscale>
<asrwt>0</asrwt>
<pdfrwt beam="1">  1       21 0.43016798E-01 0.35727702E+03</pdfrwt>
<pdfrwt beam="2">  1       21 0.19465022E+00 0.35727702E+03</pdfrwt>
<totfact> 0.65793138E+02</totfact>
</mgrwt>
</event>
<event>
 5    0  0.8533808E-002  0.2559445E+03  0.7546771E-02  0.1109605E+00
         21   -1    0    0  501  502  0.00000000000E+00  0.00000000000E+00  0.58081389275E+03  0.58081389275E+03  0.00000000000E+00 0. -1.
         21   -1    0    0  502  503 -0.00000000000E+00 -0.00000000000E+00 -0.19762373280E+04  0.19762373280E+04  0.00000000000E+00 0. -1.
         25    1    1    2    0    0  0.12751021916E+03 -0.18336773505E+03 -0.19411931973E+04  0.19579935167E+04  0.12500000000E+03 0.  0.
          1    1    1    2  501    0 -0.23421686123E+01  0.90336700462E+02  0.17934214891E+03  0.20082283630E+03  0.00000000000E+00 0.  1.
         -1    1    1    2    0  503 -0.12516805055E+03  0.93031034585E+02  0.36642761310E+03  0.39823486778E+03  0.00000000000E+00 0. -1.
<mgrwt>
<rscale>  4 0.25594449E+03</rscale>
<asrwt>0</asrwt>
<pdfrwt beam="1">  1       21 0.89355983E-01 0.25594449E+03</pdfrwt>
<pdfrwt beam="2">  1       21 0.30403651E+00 0.25594449E+03</pdfrwt>
<totfact> 0.31310733E+01</totfact>
</mgrwt>
</event>
<event>
 5    0  0.8533808E-002  0.2808897E+03  0.7546771E-02  0.1095204E+00
         21   -1    0    0  503  502  0.00000000000E+00  0.00000000000E+00  0.18519414453E+03  0.18519414453E+03  0.00000000000E+00 0. -1.
         21   -1    0    0  501  503 -0.00000000000E+00 -0.00000000000E+00 -0.40840750349E+03  0.40840750349E+03  0.00000000000E+00 0. -1.
         25    1    1    2    0    0  0.13311179139E+03  0.21343682152E+03 -0.18143607649E+03  0.33439209865E+03  0.12500000000E+03 0.  0.
          3    1    1    2  501    0 -0.26842490919E+02 -0.17255942310E+02 -0.12110130699E+02  0.34131248575E+02  0.00000000000E+00 0.  1.
         -3    1    1    2    0  502 -0.10626930047E+03 -0.19618087921E+03 -0.29667151776E+02  0.22507830079E+03  0.00000000000E+00 0. -1.
<mgrwt>
<rscale>  4 0.28088970E+03</rscale>
<asrwt>0</asrwt>
<pdfrwt beam="1">  1       21 0.28491407E-01 0.28088970E+03</pdfrwt>
<pdfrwt beam="2">  1       21 0.62831923E-01 0.28088970E+03</pdfrwt>
<totfact> 0.26477938E+04</totfact>
</mgrwt>
</event>
<event>
 5    0  0.8533808E-002  0.2385439E+03  0.7546771E-02  0.1120767E+00
         21   -1    0    0  501  502  0.00000000000E+00  0.00000000000E+00  0.11584130495E+04  0.11584130495E+04  0.00000000000E+00 0.  1.
         21   -1    0    0  502  503 -0.00000000000E+00 -0.00000000000E+00 -0.45289459270E+02  0.45289459270E+02  0.00000000000E+00 0.  1.
         25    1    1    2    0    0 -0.19584209906E+03 -0.54074486229E+02  0.70023662632E+03  0.73975300653E+03  0.12500000000E+03 0.  0.
          3    1    1    2  501    0  0.58749552602E+02 -0.87704637364E+01  0.14175267676E+03  0.15369532307E+03  0.00000000000E+00 0. -1.
         -3    1    1    2    0  503  0.13709254646E+03  0.62844949965E+02  0.27113428719E+03  0.31025417922E+03  0.00000000000E+00 0.  1.
<mgrwt>
<rscale>  4 0.23854387E+03</rscale>
<asrwt>0</asrwt>
<pdfrwt beam="1">  1       21 0.17821737E+00 0.23854387E+03</pdfrwt>
<pdfrwt beam="2">  1       21 0.69676100E-02 0.23854387E+03</pdfrwt>
<totfact> 0.27715515E+04</totfact>
</mgrwt>
</event>
<event>
 5    0  0.8533808E-002  0.3335039E+03  0.7546771E-02  0.1069597E+00
         21   -1    0    0  501  502  0.00000000000E+00  0.00000000000E+00  0.44937242527E+03  0.44937242527E+03  0.00000000000E+00 0. -1.
         21   -1    0    0  502  503 -0.00000000000E+00 -0.00000000000E+00 -0.24516022753E+03  0.24516022753E+03  0.00000000000E+00 0. -1.
         25    1    1    2    0    0 -0.28187522191E+03  0.12706779735E+03  0.79205576621E+02  0.34278038045E+03  0.12500000000E+03 0.  0.
          3    1    1    2  501    0  0.65842871850E+02 -0.26820958581E+02 -0.18805782321E+02  0.73541179222E+02  0.00000000000E+00 0.  1.
         -3    1    1    2    0  503  0.21603235006E+03 -0.10024683877E+03  0.14381240344E+03  0.27821109313E+03  0.00000000000E+00 0. -1.
<mgrwt>
<rscale>  4 0.33350392E+03</rscale>
<asrwt>0</asrwt>
<pdfrwt beam="1">  1       21 0.69134219E-01 0.33350392E+03</pdfrwt>
<pdfrwt beam="2">  1       21 0.37716958E-01 0.33350392E+03</pdfrwt>
<totfact> 0.12009853E+04</totfact>
</mgrwt>
</event>
<event>
 5    0  0.8533808E-002  0.2686851E+03  0.7546771E-02  0.1102035E+00
         21   -1    0    0  501  502  0.00000000000E+00  0.00000000000E+00  0.27114509803E+03  0.27114509803E+03  0.00000000000E+00 0.  1.
         21   -1    0    0  502  503 -0.00000000000E+00 -0.00000000000E+00 -0.60791318699E+03  0.60791318699E+03  0.00000000000E+00 0.  1.
         25    1    1    2    0    0  0.14339343068E+03 -0.28905509120E+03 -0.28193226945E+03  0.44634664362E+03  0.12500000000E+03 0.  0.
          3    1    1    2  501    0 -0.14993392430E+03  0.16432048334E+03  0.91315169158E+02  0.24045761169E+03  0.00000000000E+00 0.  1.
         -3    1    1    2    0  503  0.65404936189E+01  0.12473460786E+03 -0.14615098866E+03  0.19225402971E+03  0.00000000000E+00 0. -1.
<mgrwt>
<rscale>  4 0.26868512E+03</rscale>
<asrwt>0</asrwt>
<pdfrwt beam="1">  1       21 0.41714631E-01 0.26868512E+03</pdfrwt>
<pdfrwt beam="2">  1       21 0.93525104E-01 0.26868512E+03</pdfrwt>
<totfact> 0.50475704E+03</totfact>
</mgrwt>
</event>
<event>
 5    0  0.8533808E-002  0.2396592E+03  0.7546771E-02  0.1120020E+00
         21   -1    0    0  501  502  0.00000000000E+00  0.00000000000E+00  0.89529549352E+02  0.89529549352E+02  0.00000000000E+00 0. -1.
         21   -1    0    0  502  503 -0.00000000000E+00 -0.00000000000E+00 -0.10419805134E+04  0.10419805134E+04  0.00000000000E+00 0. -1.
         25    1    1    2    0    0  0.20136838437E+03  0.27080134303E+02 -0.81966316872E+03  0.85367164066E+03  0.12500000000E+03 0.  0.
          2    1    1    2  501    0  0.98507351219E+01 -0.29147580258E+02 -0.29827351208E+02  0.42851946250E+02  0.00000000000E+00 0.  1.
         -2    1    1    2    0  503 -0.21121911949E+03  0.20674459557E+01 -0.10296044410E+03  0.23498647583E+03  0.00000000000E+00 0. -1.
<mgrwt>
<rscale>  4 0.23965919E+03</rscale>
<asrwt>0</asrwt>
<pdfrwt beam="1">  1       21 0.13773777E-01 0.23965919E+03</pdfrwt>
<pdfrwt beam="2">  1       21 0.16030469E+00 0.23965919E+03</pdfrwt>
<totfact> 0.11094784E+04</totfact>
</mgrwt>
</event>
<event>
 5    0  0.8533808E-002  0.3961830E+03  0.7546771E-02  0.1045109E+00
         21   -1    0    0  503  502  0.00000000000E+00  0.00000000000E+00  0.36970212823E+03  0.36970212823E+03  0.00000000000E+00 0. -1.
         21   -1    0    0  501  503 -0.00000000000E+00 -0.00000000000E+00 -0.59571099840E+03  0.59571099840E+03  0.00000000000E+00 0. -1.
         25    1    1    2    0    0  0.37008632878E+03 -0.66121562562E+02 -0.38008137547E+03  0.54901985735E+03  0.12500000000E+03 0.  0.
          1    1    1    2  501    0 -0.28293135468E+03  0.10175804593E+02  0.11807221121E+03  0.30674866833E+03  0.00000000000E+00 0. -1.
         -1    1    1    2    0  502 -0.87154974102E+02  0.55945757969E+02  0.36000294085E+02  0.10964460096E+03  0.00000000000E+00 0.  1.
<mgrwt>
<rscale>  4 0.39618298E+03</rscale>
<asrwt>0</asrwt>
<pdfrwt beam="1">  1       21 0.56877251E-01 0.39618298E+03</pdfrwt>
<pdfrwt beam="2">  1       21 0.91647846E-01 0.39618298E+03</pdfrwt>
<totfact> 0.25911597E+03</totfact>
</mgrwt>
</event>
<event>
 5    0  0.8533808E-002  0.2987302E+03  0.7546771E-02  0.1085877E+00
         21   -1    0    0  501  502  0.00000000000E+00  0.00000000000E+00  0.93289058457E+03  0.93289058457E+03  0.00000000000E+00 0. -1.
         21   -1    0    0  502  503 -0.00000000000E+00 -0.00000000000E+00 -0.75326611814E+03  0.75326611814E+03  0.00000000000E+00 0. -1.
         25    1    1    2    0    0 -0.11362102262E+03  0.24638384701E+03 -0.70016572644E+03  0.76123043905E+03  0.12500000000E+03 0.  0.
          3    1    1    2  501    0  0.85703512696E+02 -0.15560938599E+03  0.69262865528E+03  0.71504812930E+03  0.00000000000E+00 0. -1.
         -3    1    1    2    0  503  0.27917509924E+02 -0.90774461019E+02  0.18716153759E+03  0.20987813437E+03  0.00000000000E+00 0.  1.
<mgrwt>
<rscale>  4 0.29873021E+03</rscale>
<asrwt>0</asrwt>
<pdfrwt beam="1">  1       21 0.14352163E+00 0.29873021E+03</pdfrwt>
<pdfrwt beam="2">  1       21 0.11588710E+00 0.29873021E+03</pdfrwt>
<totfact> 0.17302348E+02</totfact>
</mgrwt>
</event>
<event>
 5    0  0.8533808E-002  0.2392905E+03  0.7546771E-02  0.1120266E+00
         21   -1    0    0  501  502  0.00000000000E+00  0.00000000000E+00  0.19064807741E+03  0.19064807741E+03  0.00000000000E+00 0. -1.
         21   -1    0    0  502  503 -0.00000000000E+00 -0.00000000000E+00 -0.52839942160E+03  0.52839942160E+03  0.00000000000E+00 0. -1.
         25    1    1    2    0    0 -0.23363872572E+03 -0.64957337778E+02 -0.32050683306E+03  0.42089920399E+03  0.12500000000E+03 0.  0.
          4    1    1    2  501    0  0.80583536741E+02 -0.14660775546E+01  0.72752896813E+02  0.10857642365E+03  0.00000000000E+00 0.  1.
         -4    1    1    2    0  503  0.15305518898E+03  0.66423415333E+02 -0.89997407946E+02  0.18957187137E+03  0.00000000000E+00 0. -1.
<mgrwt>
<rscale>  4 0.23929054E+03</rscale>
<asrwt>0</asrwt>
<pdfrwt beam="1">  1       21 0.29330474E-01 0.23929054E+03</pdfrwt>
<pdfrwt beam="2">  1       21 0.81292217E-01 0.23929054E+03</pdfrwt>
<totfact> 0.14358958E+04</totfact>
</mgrwt>
</event>
<event>
 5    0  0.8533808E-002  0.2510029E+03  0.7546771E-02  0.1112673E+00
         21   -1    0    0  503  502  0.00000000000E+00  0.00000000000E+00  0.81395256059E+02  0.81395256059E+02  0.00000000000E+00 0.  1.
         21   -1    0    0  501  503 -0.00000000000E+00 -0.00000000000E+00 -0.71609968526E+03  0.71609968526E+03  0.00000000000E+00 0.  1.
         25    1    1    2    0    0  0.21735741538E+03 -0.11541423030E+02 -0.29190660209E+03  0.38498300587E+03  0.12500000000E+03 0.  0.
          3    1    1    2  501    0 -0.36210525222E+02 -0.32939534502E+01 -0.11774757474E+03  0.12323369517E+03  0.00000000000E+00 0. -1.
         -3    1    1    2    0  502 -0.18114689016E+03  0.14835376480E+02 -0.22505025237E+03  0.28927824028E+03  0.00000000000E+00 0.  1.
<mgrwt>
<rscale>  4 0.25100289E+03</rscale>
<asrwt>0</asrwt>
<pdfrwt beam="1">  1       21 0.12522346E-01 0.25100289E+03</pdfrwt>
<pdfrwt beam="2">  1       21 0.11016919E+00 0.25100289E+03</pdfrwt>
<totfact> 0.34332151E+04</totfact>
</mgrwt>
</event>
<event>
 5    0  0.8533808E-002  0.2873244E+03  0.7546771E-02  0.1091754E+00
         21   -1    0    0  503  502  0.00000000000E+00  0.00000000000E+00  0.68116940915E+03  0.68116940915E+03  0.00000000000E+00 0.  1.
         21   -1    0    0  501  503 -0.00000000000E+00 -0.00000000000E+00 -0.17706339756E+03  0.17706339756E+03  0.00000000000E+00 0.  1.
         25    1    1    2    0    0 -0.72844821929E+02 -0.24986008736E+03  0.70238730532E+01  0.28880922099E+03  0.12500000000E+03 0.  0.
          3    1    1    2  501    0  0.91563949143E+02  0.23734690660E+03  0.44313142998E+03  0.51096279228E+03  0.00000000000E+00 0.  1.
         -3    1    1    2    0  502 -0.18719127214E+02  0.12513180757E+02  0.53950708558E+02  0.58460793445E+02  0.00000000000E+00 0. -1.
<mgrwt>
<rscale>  4 0.28732441E+03</rscale>
<asrwt>0</asrwt>
<pdfrwt beam="1">  1       21 0.10479529E+00 0.28732441E+03</pdfrwt>
<pdfrwt beam="2">  1       21 0.27240523E-01 0.28732441E+03</pdfrwt>
<totfact> 0.89058096E+03</totfact>
</mgrwt>
</event>
<event>
 5    0  0.8533808E-002  0.3147953E+03  0.7546771E-02  0.1085246E+00
         21   -1    0    0  503  502  0.00000000000E+00  0.00000000000E+00  0.45805528501E+03  0.45805528501E+03  0.00000000000E+00 0. -1.
         21   -1    0    0  501  503 -0.00000000000E+00 -0.00000000000E+00 -0.66405067687E+03  0.66405067687E+03  0.00000000000E+00 0.  1.
         25    1    1    2    0    0 -0.11191210734E+03 -0.19812734323E+03 -0.32109113951E+03  0.41292043274E+03  0.12500000000E+03 0.  0.
          1    1    1    2  501    0 -0.26782360531E+03  0.14014439645E+03  0.11945920629E+03  0.32502374896E+03  0.00000000000E+00 0.  1.
         -1    1    1    2    0  502  0.37973571265E+03  0.57982946784E+02 -0.43634586275E+01  0.38416178018E+03  0.00000000000E+00 0. -1.
<mgrwt>
<rscale>  4 0.29998992E+03</rscale>
<asrwt>0</asrwt>
<pdfrwt beam="1">  1       21 0.70470044E-01 0.31479527E+03</pdfrwt>
<pdfrwt beam="2">  1       21 0.10216164E+00 0.31479527E+03</pdfrwt>
<totfact> 0.12983403E+03</totfact>
</mgrwt>
</event>
<event>
 5    0  0.8533808E-002  0.2384619E+03  0.7546771E-02  0.1120822E+00
         21   -1    0    0  501  502  0.00000000000E+00  0.00000000000E+00  0.86719062440E+02  0.86719062440E+02  0.00000000000E+00 0. -1.
         21   -1    0    0  502  503 -0.00000000000E+00 -0.00000000000E+00 -0.80723648866E+03  0.80723648866E+03  0.00000000000E+00 0.  1.
         25    1    1    2    0    0 -0.20824344581E+03 -0.57149061451E+02 -0.36224146900E+03  0.43985819284E+03  0.12500000000E+03 0.  0.
          2    1    1    2  501    0  0.45816168790E+02 -0.59294668336E+02 -0.13530091357E+03  0.15466517458E+03  0.00000000000E+00 0.  1.
         -2    1    1    2    0  503  0.16242727702E+03  0.11644372979E+03 -0.22297504365E+03  0.29943218367E+03  0.00000000000E+00 0. -1.
<mgrwt>
<rscale>  4 0.23846194E+03</rscale>
<asrwt>0</asrwt>
<pdfrwt beam="1">  1       21 0.13341394E-01 0.23846194E+03</pdfrwt>
<pdfrwt beam="2">  1       21 0.12419024E+00 0.23846194E+03</pdfrwt>
<totfact> 0.22899133E+04</totfact>
</mgrwt>
</event>
<event>
 5    0  0.8533808E-002  0.3147644E+03  0.7546771E-02  0.1078084E+00
         21   -1    0    0  501  502  0.00000000000E+00  0.00000000000E+00  0.58561616747E+02  0.58561616747E+02  0.00000000000E+00 0. -1.
         21   -1    0    0  502  503 -0.00000000000E+00 -0.00000000000E+00 -0.19754471263E+04  0.19754471263E+04  0.00000000000E+00 0. -1.
         25    1    1    2    0    0 -0.18959408808E+02 -0.28825712089E+03 -0.53690460025E+03  0.62236900364E+03  0.12500000000E+03 0.  0.
          3    1    1    2  501    0  0.40517937977E+02  0.18895422999E+03 -0.98645522027E+03  0.10052061012E+04  0.00000000000E+00 0. -1.
         -3    1    1    2    0  503 -0.21558529169E+02  0.99302890898E+02 -0.39352568907E+03  0.40643363823E+03  0.00000000000E+00 0.  1.
<mgrwt>
<rscale>  4 0.31476440E+03</rscale>
<asrwt>0</asrwt>
<pdfrwt beam="1">  1       21 0.90094808E-02 0.31476440E+03</pdfrwt>
<pdfrwt beam="2">  1       21 0.30391490E+00 0.31476440E+03</pdfrwt>
<totfact> 0.28136830E+03</totfact>
</mgrwt>
</event>
<event>
 5    0  0.8533808E-002  0.2372256E+03  0.7546771E-02  0.1121655E+00
         21   -1    0    0  501  502  0.00000000000E+00  0.00000000000E+00  0.18076174849E+04  0.18076174849E+04  0.00000000000E+00 0. -1.
         21   -1    0    0  502  503 -0.00000000000E+00 -0.00000000000E+00 -0.68381746690E+03  0.68381746690E+03  0.00000000000E+00 0.  1.
         25    1    1    2    0    0 -0.11857659094E+02 -0.21438916435E+03 -0.63622218056E+03  0.68301316306E+03  0.12500000000E+03 0.  0.
          2    1    1    2  501    0  0.56604282502E+02  0.19344320652E+03  0.17452560245E+04  0.17568559730E+04  0.00000000000E+00 0. -1.
         -2    1    1    2    0  503 -0.44746623408E+02  0.20945957839E+02  0.14766174116E+02  0.51565815752E+02  0.00000000000E+00 0.  1.
<mgrwt>
<rscale>  4 0.23722560E+03</rscale>
<asrwt>0</asrwt>
<pdfrwt beam="1">  1       21 0.27809499E+00 0.23722560E+03</pdfrwt>
<pdfrwt beam="2">  1       21 0.10520269E+00 0.23722560E+03</pdfrwt>
<totfact> 0.30910186E+01</totfact>
</mgrwt>
</event>
<event>
 5    0  0.8533808E-002  0.2538677E+03  0.7546771E-02  0.1110885E+00
         21   -1    0    0  501  502  0.00000000000E+00  0.00000000000E+00  0.46578192473E+03  0.46578192473E+03  0.00000000000E+00 0.  1.
         21   -1    0    0  502  503 -0.00000000000E+00 -0.00000000000E+00 -0.12388392673E+03  0.12388392673E+03  0.00000000000E+00 0.  1.
         25    1    1    2    0    0 -0.22604805609E+02  0.21980180005E+03  0.16031345200E+03  0.30024858274E+03  0.12500000000E+03 0.  0.
          4    1    1    2  501    0  0.35386838297E+01 -0.87690434675E+02  0.99692030335E+02  0.13281805423E+03  0.00000000000E+00 0.  1.
         -4    1    1    2    0  503  0.19066121779E+02 -0.13211136538E+03  0.81892515661E+02  0.15659921450E+03  0.00000000000E+00 0. -1.
<mgrwt>
<rscale>  4 0.25386770E+03</rscale>
<asrwt>0</asrwt>
<pdfrwt beam="1">  1       21 0.71658757E-01 0.25386770E+03</pdfrwt>
<pdfrwt beam="2">  1       21 0.19059066E-01 0.25386770E+03</pdfrwt>
<totfact> 0.43188209E+04</totfact>
</mgrwt>
</event>
<event>
 5    0  0.8533808E-002  0.2547295E+03  0.7546771E-02  0.1110352E+00
         21   -1    0    0  501  502  0.00000000000E+00  0.00000000000E+00  0.73553969128E+02  0.73553969128E+02  0.00000000000E+00 0.  1.
         21   -1    0    0  502  503 -0.00000000000E+00 -0.00000000000E+00 -0.11238956125E+04  0.11238956125E+04  0.00000000000E+00 0.  1.
         25    1    1    2    0    0 -0.47693987587E+02 -0.21676579314E+03 -0.87231318541E+03  0.90874496916E+03  0.12500000000E+03 0.  0.
          1    1    1    2  501    0  0.11298166487E+01  0.10232785511E+03 -0.64844125037E+02  0.12114878030E+03  0.00000000000E+00 0.  1.
         -1    1    1    2    0  503  0.46564170938E+02  0.11443793804E+03 -0.11318433294E+03  0.16755583219E+03  0.00000000000E+00 0. -1.
<mgrwt>
<rscale>  4 0.25472951E+03</rscale>
<asrwt>0</asrwt>
<pdfrwt beam="1">  1       21 0.11315996E-01 0.25472951E+03</pdfrwt>
<pdfrwt beam="2">  1       21 0.17290701E+00 0.25472951E+03</pdfrwt>
<totfact> 0.12719185E+04</totfact>
</mgrwt>
</event>
<event>
 5    0  0.8533808E-002  0.3909849E+03  0.7546771E-02  0.1046947E+00
         21   -1    0    0  501  502  0.00000000000E+00  0.00000000000E+00  0.83944853507E+03  0.83944853507E+03  0.00000000000E+00 0. -1.
         21   -1    0    0  502  503 -0.00000000000E+00 -0.00000000000E+00 -0.30343421154E+03  0.30343421154E+03  0.00000000000E+00 0. -1.
         25    1    1    2    0    0  0.23463664511E+03 -0.28668768689E+03  0.63047391426E+03  0.74186692985E+03  0.12500000000E+03 0.  0.
          4    1    1    2  501    0 -0.16489227427E+03  0.19467278155E+03 -0.53658997565E+01  0.25517787300E+03  0.00000000000E+00 0. -1.
         -4    1    1    2    0  503 -0.69744370840E+02  0.92014905332E+02 -0.89093690971E+02  0.14583794375E+03  0.00000000000E+00 0.  1.
<mgrwt>
<rscale>  4 0.39098489E+03</rscale>
<asrwt>0</asrwt>
<pdfrwt beam="1">  1       21 0.12914593E+00 0.39098489E+03</pdfrwt>
<pdfrwt beam="2">  1       21 0.46682187E-01 0.39098489E+03</pdfrwt>
<totfact> 0.16954790E+03</totfact>
</mgrwt>
</event>
<event>
 5    0  0.8533808E-002  0.2986315E+03  0.7546771E-02  0.1085927E+00
         21   -1    0    0  501  502  0.00000000000E+00  0.00000000000E+00  0.66623851014E+03  0.66623851014E+03  0.00000000000E+00 0.  1.
         21   -1    0    0  502  503 -0.00000000000E+00 -0.00000000000E+00 -0.17746098325E+03  0.17746098325E+03  0.00000000000E+00 0.  1.
         25    1    1    2    0    0 -0.25504815745E+03  0.92229199148E+02  0.47245181112E+03  0.55891994205E+03  0.12500000000E+03 0.  0.
          3    1    1    2  501    0  0.13035401806E+03 -0.65416300639E+01 -0.11202438379E+02  0.13099792966E+03  0.00000000000E+00 0. -1.
         -3    1    1    2    0  503  0.12469413939E+03 -0.85687569084E+02  0.27528154154E+02  0.15378162168E+03  0.00000000000E+00 0.  1.
<mgrwt>
<rscale>  4 0.29863153E+03</rscale>
<asrwt>0</asrwt>
<pdfrwt beam="1">  1       21 0.10249823E+00 0.29863153E+03</pdfrwt>
<pdfrwt beam="2">  1       21 0.27301690E-01 0.29863153E+03</pdfrwt>
<totfact> 0.93060087E+03</totfact>
</mgrwt>
</event>
<event>
 5    0  0.8533808E-002  0.2060198E+03  0.7546771E-02  0.1144757E+00
         21   -1    0    0  503  502  0.00000000000E+00  0.00000000000E+00  0.14479419745E+03  0.14479419745E+03  0.00000000000E+00 0.  1.
         21   -1    0    0  501  503 -0.00000000000E+00 -0.00000000000E+00 -0.49961676955E+03  0.49961676955E+03  0.00000000000E+00 0.  1.
         25    1    1    2    0    0 -0.76531016376E+01  0.22460646061E+03 -0.10289842096E+03  0.27698324345E+03  0.12500000000E+03 0.  0.
          2    1    1    2  501    0 -0.60574900752E+02 -0.91122984318E+02 -0.63026324693E+02  0.12627364918E+03  0.00000000000E+00 0. -1.
         -2    1    1    2    0  502  0.68228002389E+02 -0.13348347630E+03 -0.18889782645E+03  0.24115407438E+03  0.00000000000E+00 0.  1.
<mgrwt>
<rscale>  4 0.20601977E+03</rscale>
<asrwt>0</asrwt>
<pdfrwt beam="1">  1       21 0.22276030E-01 0.20601977E+03</pdfrwt>
<pdfrwt beam="2">  1       21 0.76864118E-01 0.20601977E+03</pdfrwt>
<totfact> 0.28161329E+04</totfact>
</mgrwt>
</event>
<event>
 5    0  0.8533808E-002  0.2311756E+03  0.7546771E-02  0.1125815E+00
         21   -1    0    0  501  502  0.00000000000E+00  0.00000000000E+00  0.17612368802E+03  0.17612368802E+03  0.00000000000E+00 0. -1.
         21   -1    0    0  502  503 -0.00000000000E+00 -0.00000000000E+00 -0.51225356699E+03  0.51225356699E+03  0.00000000000E+00 0. -1.
         25    1    1    2    0    0 -0.22122981283E+03  0.29871062729E+02  0.12870270976E+02  0.25617485112E+03  0.12500000000E+03 0.  0.
          3    1    1    2  501    0  0.14784938771E+03 -0.47884049931E+02 -0.13712448361E+03  0.20725696053E+03  0.00000000000E+00 0. -1.
         -3    1    1    2    0  503  0.73380425113E+02  0.18012987202E+02 -0.21187566634E+03  0.22494544335E+03  0.00000000000E+00 0.  1.
<mgrwt>
<rscale>  4 0.23117556E+03</rscale>
<asrwt>0</asrwt>
<pdfrwt beam="1">  1       21 0.27095952E-01 0.23117556E+03</pdfrwt>
<pdfrwt beam="2">  1       21 0.78808240E-01 0.23117556E+03</pdfrwt>
<totfact> 0.18054124E+04</totfact>
</mgrwt>
</event>
<event>
 5    0  0.8533808E-002  0.2887315E+03  0.7546771E-02  0.1091013E+00
         21   -1    0    0  501  502  0.00000000000E+00  0.00000000000E+00  0.77971691908E+02  0.77971691908E+02  0.00000000000E+00 0.  1.
         21   -1    0    0  502  503 -0.00000000000E+00 -0.00000000000E+00 -0.18869721272E+04  0.18869721272E+04  0.00000000000E+00 0.  1.
         25    1    1    2    0    0  0.20259237143E+03 -0.22532385929E+03 -0.13611345055E+04  0.14000452323E+04  0.12500000000E+03 0.  0.
          3    1    1    2  501    0 -0.77852115610E+02  0.65807845074E+01 -0.18530989799E+03  0.20110697881E+03  0.00000000000E+00 0. -1.
         -3    1    1    2    0  503 -0.12474025582E+03  0.21874307478E+03 -0.26255603177E+03  0.36379160794E+03  0.00000000000E+00 0.  1.
<mgrwt>
<rscale>  4 0.28873149E+03</rscale>
<asrwt>0</asrwt>
<pdfrwt beam="1">  1       21 0.11995646E-01 0.28873149E+03</pdfrwt>
<pdfrwt beam="2">  1       21 0.29030339E+00 0.28873149E+03</pdfrwt>
<totfact> 0.20691219E+03</totfact>
</mgrwt>
</event>
<event>
 5    0  0.8533808E-002  0.3038465E+03  0.7546771E-02  0.1083333E+00
         21   -1    0    0  503  502  0.00000000000E+00  0.00000000000E+00  0.79746335064E+03  0.79746335064E+03  0.00000000000E+00 0. -1.
         21   -1    0    0  501  503 -0.00000000000E+00 -0.00000000000E+00 -0.19840031313E+03  0.19840031313E+03  0.00000000000E+00 0. -1.
         25    1    1    2    0    0 -0.18700865847E+03  0.21884205468E+03  0.54836219134E+03  0.63181498568E+03  0.12500000000E+03 0.  0.
          3    1    1    2  501    0  0.94338549891E+02 -0.24301622130E+03  0.60995192371E+02  0.26772571655E+03  0.00000000000E+00 0. -1.
         -3    1    1    2    0  502  0.92670108578E+02  0.24174166618E+02 -0.10294346213E+02  0.96322961538E+02  0.00000000000E+00 0.  1.
<mgrwt>
<rscale>  4 0.30384653E+03</rscale>
<asrwt>0</asrwt>
<pdfrwt beam="1">  1       21 0.12268667E+00 0.30384653E+03</pdfrwt>
<pdfrwt beam="2">  1       21 0.30523126E-01 0.30384653E+03</pdfrwt>
<totfact> 0.47866644E+03</totfact>
</mgrwt>
</event>
<event>
 5    0  0.9385323E-002  0.2432897E+03  0.7546771E-02  0.1117621E+00
         21   -1    0    0  501  502  0.00000000000E+00  0.00000000000E+00  0.63226993790E+03  0.63226993790E+03  0.00000000000E+00 0. -1.
         21   -1    0    0  502  503 -0.00000000000E+00 -0.00000000000E+00 -0.10746553570E+03  0.10746553570E+03  0.00000000000E+00 0. -1.
         25    1    1    2    0    0 -0.20612432797E+03  0.32827367907E+02  0.45030468088E+03  0.51182436469E+03  0.12500000000E+03 0.  0.
          1    1    1    2  501    0  0.15279504971E+03 -0.18132587289E+02  0.77952137483E+02  0.17248667680E+03  0.00000000000E+00 0. -1.
         -1    1    1    2    0  503  0.53329278261E+02 -0.14694780618E+02 -0.34524161595E+01  0.55424432109E+02  0.00000000000E+00 0.  1.
<mgrwt>
<rscale>  4 0.24328969E+03</rscale>
<asrwt>0</asrwt>
<pdfrwt beam="1">  1       21 0.97272296E-01 0.24328969E+03</pdfrwt>
<pdfrwt beam="2">  1       21 0.16533160E-01 0.24328969E+03</pdfrwt>
<totfact> 0.28006946E+04</totfact>
</mgrwt>
</event>
<event>
 5    0  0.8533808E-002  0.2341402E+03  0.7546771E-02  0.1123759E+00
         21   -1    0    0  503  502  0.00000000000E+00  0.00000000000E+00  0.45493930942E+03  0.45493930942E+03  0.00000000000E+00 0.  1.
         21   -1    0    0  501  503 -0.00000000000E+00 -0.00000000000E+00 -0.24295606865E+03  0.24295606865E+03  0.00000000000E+00 0.  1.
         25    1    1    2    0    0  0.18228715633E+03  0.13794535543E+03  0.31859895708E+03  0.41156752046E+03  0.12500000000E+03 0.  0.
          2    1    1    2  501    0 -0.97332897918E+02 -0.11430041341E+03 -0.28523403157E+01  0.15015463152E+03  0.00000000000E+00 0.  1.
         -2    1    1    2    0  502 -0.84954258410E+02 -0.23644942023E+02 -0.10376337599E+03  0.13617322609E+03  0.00000000000E+00 0. -1.
<mgrwt>
<rscale>  4 0.23414019E+03</rscale>
<asrwt>0</asrwt>
<pdfrwt beam="1">  1       21 0.69990663E-01 0.23414019E+03</pdfrwt>
<pdfrwt beam="2">  1       21 0.37377857E-01 0.23414019E+03</pdfrwt>
<totfact> 0.12468259E+04</totfact>
</mgrwt>
</event>
<event>
 5    0  0.8533808E-002  0.2529001E+03  0.7546771E-02  0.1111486E+00
         21   -1    0    0  503  502  0.00000000000E+00  0.00000000000E+00  0.91015945048E+02  0.91015945048E+02  0.00000000000E+00 0. -1.
         21   -1    0    0  501  503 -0.00000000000E+00 -0.00000000000E+00 -0.72389367384E+03  0.72389367384E+03  0.00000000000E+00 0. -1.
         25    1    1    2    0    0 -0.17410588101E+03 -0.13424091018E+03 -0.19127298946E+03  0.31708648073E+03  0.12500000000E+03 0.  0.
          4    1    1    2  501    0  0.16723703596E+03  0.10411446372E+03 -0.35690520882E+03  0.40766331186E+03  0.00000000000E+00 0. -1.
         -4    1    1    2    0  502  0.68688450499E+01  0.30126446466E+02 -0.84699530520E+02  0.90159826304E+02  0.00000000000E+00 0.  1.
<mgrwt>
<rscale>  4 0.25290014E+03</rscale>
<asrwt>0</asrwt>
<pdfrwt beam="1">  1       21 0.14002454E-01 0.25290014E+03</pdfrwt>
<pdfrwt beam="2">  1       21 0.11136825E+00 0.25290014E+03</pdfrwt>
<totfact> 0.27278332E+04</totfact>
</mgrwt>
</event>
<event>
 5    0  0.8533808E-002  0.2855128E+03  0.7546771E-02  0.1092716E+00
         21   -1    0    0  501  502  0.00000000000E+00  0.00000000000E+00  0.52268199878E+03  0.52268199878E+03  0.00000000000E+00 0. -1.
         21   -1    0    0  502  503 -0.00000000000E+00 -0.00000000000E+00 -0.15838356528E+03  0.15838356528E+03  0.00000000000E+00 0. -1.
         25    1    1    2    0    0  0.70024877811E+02 -0.24695965041E+03  0.93289087031E+02  0.30036711904E+03  0.12500000000E+03 0.  0.
          2    1    1    2  501    0 -0.55238194331E+02  0.21859613325E+03  0.26536868464E+03  0.34821841762E+03  0.00000000000E+00 0. -1.
         -2    1    1    2    0  503 -0.14786683480E+02  0.28363517157E+02  0.56406618346E+01  0.32480027398E+02  0.00000000000E+00 0.  1.
<mgrwt>
<rscale>  4 0.28551279E+03</rscale>
<asrwt>0</asrwt>
<pdfrwt beam="1">  1       21 0.80412614E-01 0.28551279E+03</pdfrwt>
<pdfrwt beam="2">  1       21 0.24366703E-01 0.28551279E+03</pdfrwt>
<totfact> 0.20621023E+04</totfact>
</mgrwt>
</event>
<event>
 5    0  0.8533808E-002  0.2522064E+03  0.7546771E-02  0.1111918E+00
         21   -1    0    0  503  502  0.00000000000E+00  0.00000000000E+00  0.10646267815E+03  0.10646267815E+03  0.00000000000E+00 0. -1.
         21   -1    0    0  501  503 -0.00000000000E+00 -0.00000000000E+00 -0.53266909640E+03  0.53266909640E+03  0.00000000000E+00 0. -1.
         25    1    1    2    0    0 -0.21851509323E+03  0.15303624516E+02 -0.25103465177E+03  0.35584609494E+03  0.12500000000E+03 0.  0.
          4    1    1    2  501    0  0.19192940890E+03  0.33907617630E-01 -0.15002889666E+03  0.24360945997E+03  0.00000000000E+00 0. -1.
         -4    1    1    2    0  502  0.26585684327E+02 -0.15337532133E+02 -0.25142869814E+02  0.39676219648E+02  0.00000000000E+00 0.  1.
<mgrwt>
<rscale>  4 0.25220636E+03</rscale>
<asrwt>0</asrwt>
<pdfrwt beam="1">  1       21 0.16378873E-01 0.25220636E+03</pdfrwt>
<pdfrwt beam="2">  1       21 0.81949095E-01 0.25220636E+03</pdfrwt>
<totfact> 0.42299911E+04</totfact>
</mgrwt>
</event>
<event>
 5    0  0.8533808E-002  0.2426370E+03  0.7546771E-02  0.1118049E+00
         21   -1    0    0  501  502  0.00000000000E+00  0.00000000000E+00  0.30758167684E+03  0.30758167684E+03  0.00000000000E+00 0. -1.
         21   -1    0    0  502  503 -0.00000000000E+00 -0.00000000000E+00 -0.32911291022E+03  0.32911291022E+03  0.00000000000E+00 0.  1.
         25    1    1    2    0    0  0.80137212130E+02 -0.19190031542E+03 -0.23314127117E+03  0.33649302541E+03  0.12500000000E+03 0.  0.
          4    1    1    2  501    0 -0.32755144561E+02  0.11336057068E+03  0.14444311043E+03  0.18651362050E+03  0.00000000000E+00 0.  1.
         -4    1    1    2    0  503 -0.47382067569E+02  0.78539744732E+02  0.67166927363E+02  0.11368794114E+03  0.00000000000E+00 0. -1.
<mgrwt>
<rscale>  4 0.24263698E+03</rscale>
<asrwt>0</asrwt>
<pdfrwt beam="1">  1       21 0.47320258E-01 0.24263698E+03</pdfrwt>
<pdfrwt beam="2">  1       21 0.50632755E-01 0.24263698E+03</pdfrwt>
<totfact> 0.15401432E+04</totfact>
</mgrwt>
</event>
<event>
 5    0  0.1141341E-001  0.2378396E+03  0.7546771E-02  0.1121240E+00
         21   -1    0    0  503  502  0.00000000000E+00  0.00000000000E+00  0.36480419876E+03  0.36480419876E+03  0.00000000000E+00 0.  1.
         21   -1    0    0  501  503 -0.00000000000E+00 -0.00000000000E+00 -0.29836048376E+03  0.29836048376E+03  0.00000000000E+00 0.  1.
         25    1    1    2    0    0  0.19463530084E+03 -0.55315046950E+02  0.27859097932E+03  0.36630668641E+03  0.12500000000E+03 0.  0.
          3    1    1    2  501    0 -0.64048462584E+02 -0.38201110323E+01 -0.70587349104E+02  0.95390631936E+02  0.00000000000E+00 0. -1.
         -3    1    1    2    0  502 -0.13058683825E+03  0.59135157983E+02 -0.14155991521E+03  0.20146736418E+03  0.00000000000E+00 0.  1.
<mgrwt>
<rscale>  4 0.23783956E+03</rscale>
<asrwt>0</asrwt>
<pdfrwt beam="1">  1       21 0.56123723E-01 0.23783956E+03</pdfrwt>
<pdfrwt beam="2">  1       21 0.45901613E-01 0.23783956E+03</pdfrwt>
<totfact> 0.13226173E+04</totfact>
</mgrwt>
</event>
<event>
 5    0  0.8533808E-002  0.2623996E+03  0.7546771E-02  0.1105710E+00
         21   -1    0    0  503  502  0.00000000000E+00  0.00000000000E+00  0.28172972972E+03  0.28172972972E+03  0.00000000000E+00 0.  1.
         21   -1    0    0  501  503 -0.00000000000E+00 -0.00000000000E+00 -0.27030887295E+03  0.27030887295E+03  0.00000000000E+00 0. -1.
         25    1    1    2    0    0  0.15844052636E+03  0.18037008683E+03 -0.29838124537E+02  0.27230879951E+03  0.12500000000E+03 0.  0.
          2    1    1    2  501    0 -0.11210887040E+03 -0.19706751659E+03  0.41441705313E+02  0.23048084488E+03  0.00000000000E+00 0.  1.
         -2    1    1    2    0  502 -0.46331655958E+02  0.16697429754E+02 -0.18272400706E+00  0.49248958287E+02  0.00000000000E+00 0. -1.
<mgrwt>
<rscale>  4 0.26239962E+03</rscale>
<asrwt>0</asrwt>
<pdfrwt beam="1">  1       21 0.43343036E-01 0.26239962E+03</pdfrwt>
<pdfrwt beam="2">  1       21 0.41585980E-01 0.26239962E+03</pdfrwt>
<totfact> 0.27519252E+04</totfact>
</mgrwt>
</event>
<event>
 5    0  0.8533808E-002  0.2346102E+03  0.7546771E-02  0.1123436E+00
         21   -1    0    0  503  502  0.00000000000E+00  0.00000000000E+00  0.40033981315E+03  0.40033981315E+03  0.00000000000E+00 0. -1.
         21   -1    0    0  501  503 -0.00000000000E+00 -0.00000000000E+00 -0.13752268710E+03  0.13752268710E+03  0.00000000000E+00 0. -1.
         25    1    1    2    0    0 -0.15507264228E+03  0.12826389617E+03  0.15495085694E+03  0.28307935197E+03  0.12500000000E+03 0.  0.
          2    1    1    2  501    0 -0.80652357580E+01 -0.18440313467E+02 -0.12990597232E+02  0.23955141516E+02  0.00000000000E+00 0.  1.
         -2    1    1    2    0  502  0.16313787804E+03 -0.10982358270E+03  0.12085686635E+03  0.23082800677E+03  0.00000000000E+00 0. -1.
<mgrwt>
<rscale>  4 0.23461018E+03</rscale>
<asrwt>0</asrwt>
<pdfrwt beam="1">  1       21 0.61590740E-01 0.23461018E+03</pdfrwt>
<pdfrwt beam="2">  1       21 0.21157337E-01 0.23461018E+03</pdfrwt>
<totfact> 0.49904796E+04</totfact>
</mgrwt>
</event>
<event>
 5    0  0.8533808E-002  0.2502264E+03  0.7546771E-02  0.1113162E+00
         21   -1    0    0  501  502  0.00000000000E+00  0.00000000000E+00  0.34811463665E+03  0.34811463665E+03  0.00000000000E+00 0.  1.
         21   -1    0    0  502  503 -0.00000000000E+00 -0.00000000000E+00 -0.35089550395E+03  0.35089550395E+03  0.00000000000E+00 0.  1.
         25    1    1    2    0    0  0.18237354883E+03 -0.11716705237E+03 -0.25910086448E+03  0.36020339733E+03  0.12500000000E+03 0.  0.
          3    1    1    2  501    0 -0.37153103961E+02  0.18994143551E+02  0.25250003414E+02  0.48771849417E+02  0.00000000000E+00 0. -1.
         -3    1    1    2    0  503 -0.14522044487E+03  0.98172908822E+02  0.23106999376E+03  0.29003489385E+03  0.00000000000E+00 0.  1.
<mgrwt>
<rscale>  4 0.25022636E+03</rscale>
<asrwt>0</asrwt>
<pdfrwt beam="1">  1       21 0.53556098E-01 0.25022636E+03</pdfrwt>
<pdfrwt beam="2">  1       21 0.53983924E-01 0.25022636E+03</pdfrwt>
<totfact> 0.10330384E+04</totfact>
</mgrwt>
</event>
<event>
 5    0  0.8533808E-002  0.3499141E+03  0.7546771E-02  0.1062650E+00
         21   -1    0    0  501  502  0.00000000000E+00  0.00000000000E+00  0.78338610297E+03  0.78338610297E+03  0.00000000000E+00 0.  1.
         21   -1    0    0  502  503 -0.00000000000E+00 -0.00000000000E+00 -0.56644647608E+03  0.56644647608E+03  0.00000000000E+00 0. -1.
         25    1    1    2    0    0 -0.27664319818E+03 -0.17402124309E+03 -0.46695396072E+03  0.58351165677E+03  0.12500000000E+03 0.  0.
          4    1    1    2  501    0  0.22188917845E+03  0.11662228785E+03  0.60297986934E+03  0.65300864341E+03  0.00000000000E+00 0.  1.
         -4    1    1    2    0  503  0.54754019730E+02  0.57398955242E+02  0.80913718278E+02  0.11331227888E+03  0.00000000000E+00 0. -1.
<mgrwt>
<rscale>  4 0.34991406E+03</rscale>
<asrwt>0</asrwt>
<pdfrwt beam="1">  1       21 0.12052094E+00 0.34991406E+03</pdfrwt>
<pdfrwt beam="2">  1       21 0.87145611E-01 0.34991406E+03</pdfrwt>
<totfact> 0.52061316E+02</totfact>
</mgrwt>
</event>
<event>
 5    0  0.8533808E-002  0.3755737E+03  0.7546771E-02  0.1052582E+00
         21   -1    0    0  501  502  0.00000000000E+00  0.00000000000E+00  0.33296720959E+03  0.33296720959E+03  0.00000000000E+00 0.  1.
         21   -1    0    0  502  503 -0.00000000000E+00 -0.00000000000E+00 -0.61805534926E+03  0.61805534926E+03  0.00000000000E+00 0.  1.
         25    1    1    2    0    0  0.15317348756E+03  0.31932504972E+03 -0.41461366044E+03  0.55942836190E+03  0.12500000000E+03 0.  0.
          4    1    1    2  501    0 -0.71030813444E+02 -0.25420774400E+03  0.10410515977E+03  0.28373374466E+03  0.00000000000E+00 0.  1.
         -4    1    1    2    0  503 -0.82142674117E+02 -0.65117305718E+02  0.25420361003E+02  0.10786045229E+03  0.00000000000E+00 0. -1.
<mgrwt>
<rscale>  4 0.37557370E+03</rscale>
<asrwt>0</asrwt>
<pdfrwt beam="1">  1       21 0.51225725E-01 0.37557370E+03</pdfrwt>
<pdfrwt beam="2">  1       21 0.95085438E-01 0.37557370E+03</pdfrwt>
<totfact> 0.29976793E+03</totfact>
</mgrwt>
</event>
<event>
 5    0  0.8533808E-002  0.3224783E+03  0.7546771E-02  0.1074514E+00
         21   -1    0    0  503  502  0.00000000000E+00  0.00000000000E+00  0.42394579497E+03  0.42394579497E+03  0.00000000000E+00 0.  1.
         21   -1    0    0  501  503 -0.00000000000E+00 -0.00000000000E+00 -0.36342981147E+03  0.36342981147E+03  0.00000000000E+00 0.  1.
         25    1    1    2    0    0  0.25618984152E+03  0.15995948165E+03 -0.19158179477E+03  0.37887841685E+03  0.12500000000E+03 0.  0.
          1    1    1    2  501    0 -0.15210178672E+01 -0.36302107456E+02  0.15329298663E+02  0.39435312838E+02  0.00000000000E+00 0. -1.
         -1    1    1    2    0  502 -0.25466882366E+03 -0.12365737419E+03  0.23676847960E+03  0.36906187675E+03  0.00000000000E+00 0.  1.
<mgrwt>
<rscale>  4 0.32247833E+03</rscale>
<asrwt>0</asrwt>
<pdfrwt beam="1">  1       21 0.65222430E-01 0.32247833E+03</pdfrwt>
<pdfrwt beam="2">  1       21 0.55912279E-01 0.32247833E+03</pdfrwt>
<totfact> 0.60376460E+03</totfact>
</mgrwt>
</event>
<event>
 5    0  0.8533808E-002  0.2571870E+03  0.7546771E-02  0.1108845E+00
         21   -1    0    0  501  502  0.00000000000E+00  0.00000000000E+00  0.51175052207E+02  0.51175052207E+02  0.00000000000E+00 0. -1.
         21   -1    0    0  502  503 -0.00000000000E+00 -0.00000000000E+00 -0.11930707650E+04  0.11930707650E+04  0.00000000000E+00 0. -1.
         25    1    1    2    0    0 -0.46078548143E+01  0.22471960456E+03 -0.52296225544E+03  0.58278182334E+03  0.12500000000E+03 0.  0.
          2    1    1    2  501    0  0.95986938825E+01 -0.17604314180E+03 -0.40002843500E+03  0.43715680426E+03  0.00000000000E+00 0. -1.
         -2    1    1    2    0  503 -0.49908390682E+01 -0.48676462755E+02 -0.21890502239E+03  0.22430718965E+03  0.00000000000E+00 0.  1.
<mgrwt>
<rscale>  4 0.25718696E+03</rscale>
<asrwt>0</asrwt>
<pdfrwt beam="1">  1       21 0.78730857E-02 0.25718696E+03</pdfrwt>
<pdfrwt beam="2">  1       21 0.18354933E+00 0.25718696E+03</pdfrwt>
<totfact> 0.20375658E+04</totfact>
</mgrwt>
</event>
<event>
 5    0  0.8533808E-002  0.3802009E+03  0.7546771E-02  0.1051962E+00
         21   -1    0    0  503  502  0.00000000000E+00  0.00000000000E+00  0.27409902521E+03  0.27409902521E+03  0.00000000000E+00 0. -1.
         21   -1    0    0  501  503 -0.00000000000E+00 -0.00000000000E+00 -0.51121554879E+03  0.51121554879E+03  0.00000000000E+00 0. -1.
         25    1    1    2    0    0  0.52761662056E+02  0.34256738390E+03 -0.11784422491E+03  0.38684424106E+03  0.12500000000E+03 0.  0.
          4    1    1    2  501    0  0.26075922903E+02 -0.25992924707E+03 -0.53441587464E+02  0.26664427710E+03  0.00000000000E+00 0. -1.
         -4    1    1    2    0  502 -0.78837584959E+02 -0.82638136824E+02 -0.65830711209E+02  0.13182605584E+03  0.00000000000E+00 0.  1.
<mgrwt>
<rscale>  4 0.37723052E+03</rscale>
<asrwt>0</asrwt>
<pdfrwt beam="1">  1       21 0.42169081E-01 0.38020090E+03</pdfrwt>
<pdfrwt beam="2">  1       21 0.78648545E-01 0.38020090E+03</pdfrwt>
<totfact> 0.70124400E+03</totfact>
</mgrwt>
</event>
<event>
 5    0  0.8533808E-002  0.5973897E+03  0.7546771E-02  0.9910836E-01
         21   -1    0    0  501  502  0.00000000000E+00  0.00000000000E+00  0.10985838689E+04  0.10985838689E+04  0.00000000000E+00 0. -1.
         21   -1    0    0  502  503 -0.00000000000E+00 -0.00000000000E+00 -0.47036023224E+03  0.47036023224E+03  0.00000000000E+00 0. -1.
         25    1    1    2    0    0 -0.35847707154E+03  0.54129154679E+03  0.15747921823E+03  0.67965215634E+03  0.12500000000E+03 0.  0.
          4    1    1    2  501    0  0.31029143566E+03 -0.46005452252E+03  0.53834501047E+03  0.77314053641E+03  0.00000000000E+00 0. -1.
         -4    1    1    2    0  503  0.48185635874E+02 -0.81237024274E+02 -0.67600592065E+02  0.11615140836E+03  0.00000000000E+00 0.  1.
<mgrwt>
<rscale>  4 0.59738974E+03</rscale>
<asrwt>0</asrwt>
<pdfrwt beam="1">  1       21 0.16901290E+00 0.59738974E+03</pdfrwt>
<pdfrwt beam="2">  1       21 0.72363113E-01 0.59738974E+03</pdfrwt>
<totfact> 0.28792600E+02</totfact>
</mgrwt>
</event>
<event>
 5    0  0.8533808E-002  0.3030069E+03  0.7546771E-02  0.1083747E+00
         21   -1    0    0  501  502  0.00000000000E+00  0.00000000000E+00  0.15914989055E+03  0.15914989055E+03  0.00000000000E+00 0.  1.
         21   -1    0    0  502  503 -0.00000000000E+00 -0.00000000000E+00 -0.19716788197E+04  0.19716788197E+04  0.00000000000E+00 0.  1.
         25    1    1    2    0    0 -0.46353242195E+02 -0.27370928107E+03 -0.17936166834E+04  0.18192721623E+04  0.12500000000E+03 0.  0.
          2    1    1    2  501    0  0.12983632545E+01  0.26326162885E+03 -0.51995375849E+01  0.26331617148E+03  0.00000000000E+00 0.  1.
         -2    1    1    2    0  503  0.45054878941E+02  0.10447652220E+02 -0.13712708126E+02  0.48240376423E+02  0.00000000000E+00 0. -1.
<mgrwt>
<rscale>  4 0.30300690E+03</rscale>
<asrwt>0</asrwt>
<pdfrwt beam="1">  1       21 0.24484598E-01 0.30300690E+03</pdfrwt>
<pdfrwt beam="2">  1       21 0.30333521E+00 0.30300690E+03</pdfrwt>
<totfact> 0.45384094E+02</totfact>
</mgrwt>
</event>
<event>
 5    0  0.8533808E-002  0.2420693E+03  0.7546771E-02  0.1118422E+00
         21   -1    0    0  503  502  0.00000000000E+00  0.00000000000E+00  0.48053114061E+02  0.48053114061E+02  0.00000000000E+00 0. -1.
         21   -1    0    0  501  503 -0.00000000000E+00 -0.00000000000E+00 -0.13543404343E+04  0.13543404343E+04  0.00000000000E+00 0. -1.
         25    1    1    2    0    0  0.18286142922E+03  0.97643417313E+02 -0.37413846788E+03  0.44561994164E+03  0.12500000000E+03 0.  0.
          2    1    1    2  501    0 -0.34822045001E+02 -0.20530562509E+02 -0.30990427644E+03  0.31252958159E+03  0.00000000000E+00 0.  1.
         -2    1    1    2    0  502 -0.14803938421E+03 -0.77112854803E+02 -0.62224457595E+03  0.64424402516E+03  0.00000000000E+00 0. -1.
<mgrwt>
<rscale>  4 0.24206929E+03</rscale>
<asrwt>0</asrwt>
<pdfrwt beam="1">  1       21 0.73927867E-02 0.24206929E+03</pdfrwt>
<pdfrwt beam="2">  1       21 0.20836007E+00 0.24206929E+03</pdfrwt>
<totfact> 0.15767872E+04</totfact>
</mgrwt>
</event>
<event>
 5    0  0.8533808E-002  0.2476947E+03  0.7546771E-02  0.1114770E+00
         21   -1    0    0  503  502  0.00000000000E+00  0.00000000000E+00  0.14211347289E+03  0.14211347289E+03  0.00000000000E+00 0.  1.
         21   -1    0    0  501  503 -0.00000000000E+00 -0.00000000000E+00 -0.78149997248E+03  0.78149997248E+03  0.00000000000E+00 0.  1.
         25    1    1    2    0    0 -0.12045334441E+02  0.21350078061E+03 -0.37678546645E+01  0.24772337422E+03  0.12500000000E+03 0.  0.
          4    1    1    2  501    0  0.36815678928E+02 -0.87427890988E+02 -0.35140285511E+03  0.36398213819E+03  0.00000000000E+00 0. -1.
         -4    1    1    2    0  502 -0.24770344487E+02 -0.12607288963E+03 -0.28421578981E+03  0.31190793296E+03  0.00000000000E+00 0.  1.
<mgrwt>
<rscale>  4 0.24769472E+03</rscale>
<asrwt>0</asrwt>
<pdfrwt beam="1">  1       21 0.21863612E-01 0.24769472E+03</pdfrwt>
<pdfrwt beam="2">  1       21 0.12023076E+00 0.24769472E+03</pdfrwt>
<totfact> 0.99004609E+03</totfact>
</mgrwt>
</event>
<event>
 5    0  0.8533808E-002  0.2874113E+03  0.7546771E-02  0.1091708E+00
         21   -1    0    0  501  502  0.00000000000E+00  0.00000000000E+00  0.31575648123E+04  0.31575648123E+04  0.00000000000E+00 0.  1.
         21   -1    0    0  502  503 -0.00000000000E+00 -0.00000000000E+00 -0.72003142316E+02  0.72003142316E+02  0.00000000000E+00 0.  1.
         25    1    1    2    0    0  0.17279370480E+03 -0.24846737197E+03  0.38147401869E+03  0.50273365342E+03  0.12500000000E+03 0.  0.
          4    1    1    2  501    0 -0.34469795482E+02  0.14101914121E+03  0.18060570393E+04  0.18118820586E+04  0.00000000000E+00 0.  1.
         -4    1    1    2    0  503 -0.13832390931E+03  0.10744823076E+03  0.89803061196E+03  0.91495224258E+03  0.00000000000E+00 0. -1.
<mgrwt>
<rscale>  4 0.28741135E+03</rscale>
<asrwt>0</asrwt>
<pdfrwt beam="1">  1       21 0.48577909E+00 0.28741135E+03</pdfrwt>
<pdfrwt beam="2">  1       21 0.11077409E-01 0.28741135E+03</pdfrwt>
<totfact> 0.14021675E+02</totfact>
</mgrwt>
</event>
<event>
 5    0  0.8533808E-002  0.5125131E+03  0.7546771E-02  0.1011378E+00
         21   -1    0    0  501  502  0.00000000000E+00  0.00000000000E+00  0.28192603235E+03  0.28192603235E+03  0.00000000000E+00 0.  1.
         21   -1    0    0  502  503 -0.00000000000E+00 -0.00000000000E+00 -0.23057712389E+04  0.23057712389E+04  0.00000000000E+00 0.  1.
         25    1    1    2    0    0  0.32780919765E+03  0.35597444611E+03 -0.20139998452E+04  0.20750896493E+04  0.12500000000E+03 0.  0.
          1    1    1    2  501    0 -0.13091980196E+03 -0.62899276421E+02  0.51780594869E+02  0.15419968717E+03  0.00000000000E+00 0. -1.
         -1    1    1    2    0  503 -0.19688939569E+03 -0.29307516969E+03 -0.61625956257E+02  0.35840793477E+03  0.00000000000E+00 0.  1.
<mgrwt>
<rscale>  4 0.50930522E+03</rscale>
<asrwt>0</asrwt>
<pdfrwt beam="1">  1       21 0.43373235E-01 0.51251307E+03</pdfrwt>
<pdfrwt beam="2">  1       21 0.35473404E+00 0.51251307E+03</pdfrwt>
<totfact> 0.60606735E+01</totfact>
</mgrwt>
</event>
<event>
 5    0  0.1424812E-001  0.2727536E+03  0.7546771E-02  0.1099714E+00
         21   -1    0    0  503  502  0.00000000000E+00  0.00000000000E+00  0.81129136951E+03  0.81129136951E+03  0.00000000000E+00 0.  1.
         21   -1    0    0  501  503 -0.00000000000E+00 -0.00000000000E+00 -0.29747223376E+03  0.29747223376E+03  0.00000000000E+00 0.  1.
         25    1    1    2    0    0 -0.88254917699E+02 -0.22578883566E+03  0.73100688210E+03  0.78023431768E+03  0.12500000000E+03 0.  0.
          2    1    1    2  501    0  0.31001029664E+02  0.39397760043E+02 -0.31097445200E+02  0.58994054231E+02  0.00000000000E+00 0. -1.
         -2    1    1    2    0  502  0.57253888035E+02  0.18639107562E+03 -0.18609030115E+03  0.26953523137E+03  0.00000000000E+00 0.  1.
<mgrwt>
<rscale>  4 0.27275360E+03</rscale>
<asrwt>0</asrwt>
<pdfrwt beam="1">  1       21 0.12481406E+00 0.27275360E+03</pdfrwt>
<pdfrwt beam="2">  1       21 0.45764959E-01 0.27275360E+03</pdfrwt>
<totfact> 0.20573566E+03</totfact>
</mgrwt>
</event>
<event>
 5    0  0.8533808E-002  0.2705012E+03  0.7546771E-02  0.1100993E+00
         21   -1    0    0  503  502  0.00000000000E+00  0.00000000000E+00  0.10476521517E+04  0.10476521517E+04  0.00000000000E+00 0. -1.
         21   -1    0    0  501  503 -0.00000000000E+00 -0.00000000000E+00 -0.63503675615E+02  0.63503675615E+02  0.00000000000E+00 0. -1.
         25    1    1    2    0    0  0.19048388014E+03  0.14581419112E+03  0.48774794824E+03  0.55773555377E+03  0.12500000000E+03 0.  0.
          2    1    1    2  501    0 -0.43978930767E+02 -0.11401288120E+02  0.80401318899E+02  0.92349920427E+02  0.00000000000E+00 0.  1.
         -2    1    1    2    0  502 -0.14650494937E+03 -0.13441290300E+03  0.41599920895E+03  0.46107035312E+03  0.00000000000E+00 0. -1.
<mgrwt>
<rscale>  4 0.27050118E+03</rscale>
<asrwt>0</asrwt>
<pdfrwt beam="1">  1       21 0.16117724E+00 0.27050118E+03</pdfrwt>
<pdfrwt beam="2">  1       21 0.97697970E-02 0.27050118E+03</pdfrwt>
<totfact> 0.19911059E+04</totfact>
</mgrwt>
</event>
<event>
 5    0  0.8533808E-002  0.2526819E+03  0.7546771E-02  0.1111622E+00
         21   -1    0    0  503  502  0.00000000000E+00  0.00000000000E+00  0.43207545971E+03  0.43207545971E+03  0.00000000000E+00 0. -1.
         21   -1    0    0  501  503 -0.00000000000E+00 -0.00000000000E+00 -0.23861500761E+03  0.23861500761E+03  0.00000000000E+00 0. -1.
         25    1    1    2    0    0 -0.16271637464E+03 -0.14746701104E+03  0.32436858811E+03  0.41117285766E+03  0.12500000000E+03 0.  0.
          2    1    1    2  501    0  0.10703410701E+03  0.93898091187E+02 -0.59530324446E+02  0.15432760971E+03  0.00000000000E+00 0. -1.
         -2    1    1    2    0  502  0.55682267635E+02  0.53568919854E+02 -0.71377811576E+02  0.10518999995E+03  0.00000000000E+00 0.  1.
<mgrwt>
<rscale>  4 0.25268189E+03</rscale>
<asrwt>0</asrwt>
<pdfrwt beam="1">  1       21 0.66473148E-01 0.25268189E+03</pdfrwt>
<pdfrwt beam="2">  1       21 0.36710001E-01 0.25268189E+03</pdfrwt>
<totfact> 0.14344807E+04</totfact>
</mgrwt>
</event>
<event>
 5    0  0.8533808E-002  0.3560186E+03  0.7546771E-02  0.1060172E+00
         21   -1    0    0  503  502  0.00000000000E+00  0.00000000000E+00  0.14982178644E+03  0.14982178644E+03  0.00000000000E+00 0.  1.
         21   -1    0    0  501  503 -0.00000000000E+00 -0.00000000000E+00 -0.81967427107E+03  0.81967427107E+03  0.00000000000E+00 0.  1.
         25    1    1    2    0    0 -0.33334644149E+03  0.20884994873E+01 -0.27398171826E+03  0.44923845987E+03  0.12500000000E+03 0.  0.
          4    1    1    2  501    0  0.28621029960E+02 -0.14388865646E+02 -0.47002687963E+02  0.56881064392E+02  0.00000000000E+00 0. -1.
         -4    1    1    2    0  502  0.30472541153E+03  0.12300366159E+02 -0.34886807840E+03  0.46337653325E+03  0.00000000000E+00 0.  1.
<mgrwt>
<rscale>  4 0.35601856E+03</rscale>
<asrwt>0</asrwt>
<pdfrwt beam="1">  1       21 0.23049506E-01 0.35601856E+03</pdfrwt>
<pdfrwt beam="2">  1       21 0.12610373E+00 0.35601856E+03</pdfrwt>
<totfact> 0.75244391E+03</totfact>
</mgrwt>
</event>
<event>
 5    0  0.8533808E-002  0.2449284E+03  0.7546771E-02  0.1116553E+00
         21   -1    0    0  503  502  0.00000000000E+00  0.00000000000E+00  0.41746197054E+03  0.41746197054E+03  0.00000000000E+00 0. -1.
         21   -1    0    0  501  503 -0.00000000000E+00 -0.00000000000E+00 -0.16370398601E+03  0.16370398601E+03  0.00000000000E+00 0. -1.
         25    1    1    2    0    0 -0.18491053025E+03  0.10086137139E+03  0.26926035966E+03  0.36399321658E+03  0.12500000000E+03 0.  0.
          3    1    1    2  501    0  0.12490416325E+03 -0.70217369172E+02 -0.34069921332E+02  0.14728302166E+03  0.00000000000E+00 0. -1.
         -3    1    1    2    0  502  0.60006366997E+02 -0.30644002218E+02  0.18567546211E+02  0.69889718303E+02  0.00000000000E+00 0.  1.
<mgrwt>
<rscale>  4 0.24492840E+03</rscale>
<asrwt>0</asrwt>
<pdfrwt beam="1">  1       21 0.64224918E-01 0.24492840E+03</pdfrwt>
<pdfrwt beam="2">  1       21 0.25185229E-01 0.24492840E+03</pdfrwt>
<totfact> 0.32548145E+04</totfact>
</mgrwt>
</event>
<event>
 5    0  0.8533808E-002  0.1843883E+03  0.7546771E-02  0.1163622E+00
         21   -1    0    0  501  502  0.00000000000E+00  0.00000000000E+00  0.11467117728E+04  0.11467117728E+04  0.00000000000E+00 0.  1.
         21   -1    0    0  502  503 -0.00000000000E+00 -0.00000000000E+00 -0.19548511637E+03  0.19548511637E+03  0.00000000000E+00 0.  1.
         25    1    1    2    0    0 -0.22330804848E+03 -0.46285205033E+01 -0.75775874281E+02  0.26693611753E+03  0.12500000000E+03 0.  0.
          1    1    1    2  501    0  0.13158096809E+03  0.20610655379E+02  0.93474428484E+03  0.94418495451E+03  0.00000000000E+00 0.  1.
         -1    1    1    2    0  503  0.91727080391E+02 -0.15982134876E+02  0.92258245909E+02  0.13107581718E+03  0.00000000000E+00 0. -1.
<mgrwt>
<rscale>  4 0.18438831E+03</rscale>
<asrwt>0</asrwt>
<pdfrwt beam="1">  1       21 0.17641719E+00 0.18438831E+03</pdfrwt>
<pdfrwt beam="2">  1       21 0.30074634E-01 0.18438831E+03</pdfrwt>
<totfact> 0.20589421E+03</totfact>
</mgrwt>
</event>
<event>
 5    0  0.8533808E-002  0.2229545E+03  0.7546771E-02  0.1131699E+00
         21   -1    0    0  501  502  0.00000000000E+00  0.00000000000E+00  0.27317456349E+03  0.27317456349E+03  0.00000000000E+00 0. -1.
         21   -1    0    0  502  503 -0.00000000000E+00 -0.00000000000E+00 -0.37283985036E+03  0.37283985036E+03  0.00000000000E+00 0. -1.
         25    1    1    2    0    0 -0.34691074680E+02  0.24886060064E+03 -0.20554037110E+03  0.34786047974E+03  0.12500000000E+03 0.  0.
          1    1    1    2  501    0  0.31025865620E+02 -0.17132229604E+03  0.12952777177E+03  0.21700547716E+03  0.00000000000E+00 0. -1.
         -1    1    1    2    0  503  0.36652090600E+01 -0.77538304598E+02 -0.23652687544E+02  0.81148456951E+02  0.00000000000E+00 0.  1.
<mgrwt>
<rscale>  4 0.22295447E+03</rscale>
<asrwt>0</asrwt>
<pdfrwt beam="1">  1       21 0.42026856E-01 0.22295447E+03</pdfrwt>
<pdfrwt beam="2">  1       21 0.57359977E-01 0.22295447E+03</pdfrwt>
<totfact> 0.15261250E+04</totfact>
</mgrwt>
</event>
<event>
 5    0  0.8533808E-002  0.3458735E+03  0.7546771E-02  0.1064322E+00
         21   -1    0    0  501  502  0.00000000000E+00  0.00000000000E+00  0.13616534695E+03  0.13616534695E+03  0.00000000000E+00 0.  1.
         21   -1    0    0  502  503 -0.00000000000E+00 -0.00000000000E+00 -0.87696174922E+03  0.87696174922E+03  0.00000000000E+00 0.  1.
         25    1    1    2    0    0  0.31997417081E+03 -0.40249248429E+02 -0.29756703805E+03  0.45626156327E+03  0.12500000000E+03 0.  0.
          3    1    1    2  501    0 -0.29424669462E+03  0.16903578536E+02 -0.35112670016E+03  0.45842862893E+03  0.00000000000E+00 0.  1.
         -3    1    1    2    0  503 -0.25727476197E+02  0.23345669893E+02 -0.92102664063E+02  0.98436903963E+02  0.00000000000E+00 0. -1.
<mgrwt>
<rscale>  4 0.34587349E+03</rscale>
<asrwt>0</asrwt>
<pdfrwt beam="1">  1       21 0.20948514E-01 0.34587349E+03</pdfrwt>
<pdfrwt beam="2">  1       21 0.13491720E+00 0.34587349E+03</pdfrwt>
<totfact> 0.76215837E+03</totfact>
</mgrwt>
</event>
<event>
 5    0  0.8533808E-002  0.2273651E+03  0.7546771E-02  0.1128508E+00
         21   -1    0    0  503  502  0.00000000000E+00  0.00000000000E+00  0.62369761881E+03  0.62369761881E+03  0.00000000000E+00 0.  1.
         21   -1    0    0  501  503 -0.00000000000E+00 -0.00000000000E+00 -0.16660737810E+03  0.16660737810E+03  0.00000000000E+00 0.  1.
         25    1    1    2    0    0  0.15349146058E+01  0.20867226103E+03 -0.28535416141E+01  0.24326859885E+03  0.12500000000E+03 0.  0.
          3    1    1    2  501    0 -0.21279727249E+01 -0.16477092776E+03  0.11895969393E+03  0.20323728911E+03  0.00000000000E+00 0. -1.
         -3    1    1    2    0  502  0.59305811903E+00 -0.43901333270E+02  0.34098408839E+03  0.34379910895E+03  0.00000000000E+00 0.  1.
<mgrwt>
<rscale>  4 0.22736514E+03</rscale>
<asrwt>0</asrwt>
<pdfrwt beam="1">  1       21 0.95953479E-01 0.22736514E+03</pdfrwt>
<pdfrwt beam="2">  1       21 0.25631905E-01 0.22736514E+03</pdfrwt>
<totfact> 0.12780175E+04</totfact>
</mgrwt>
</event>
<event>
 5    0  0.8533808E-002  0.2885139E+03  0.7546771E-02  0.1091128E+00
         21   -1    0    0  503  502  0.00000000000E+00  0.00000000000E+00  0.15674650813E+03  0.15674650813E+03  0.00000000000E+00 0. -1.
         21   -1    0    0  501  503 -0.00000000000E+00 -0.00000000000E+00 -0.97862439022E+03  0.97862439022E+03  0.00000000000E+00 0.  1.
         25    1    1    2    0    0  0.25991412136E+03  0.99832863656E+02 -0.76377373077E+03  0.82249453674E+03  0.12500000000E+03 0.  0.
          4    1    1    2  501    0 -0.78792283863E+02 -0.36226880595E+02 -0.82096525799E+02  0.11941712784E+03  0.00000000000E+00 0.  1.
         -4    1    1    2    0  502 -0.18112183749E+03 -0.63605983061E+02  0.23992374487E+02  0.19345923377E+03  0.00000000000E+00 0. -1.
<mgrwt>
<rscale>  4 0.28851386E+03</rscale>
<asrwt>0</asrwt>
<pdfrwt beam="1">  1       21 0.24114848E-01 0.28851386E+03</pdfrwt>
<pdfrwt beam="2">  1       21 0.15055759E+00 0.28851386E+03</pdfrwt>
<totfact> 0.44861864E+03</totfact>
</mgrwt>
</event>
<event>
 5    0  0.8533808E-002  0.2554135E+03  0.7546771E-02  0.1109931E+00
         21   -1    0    0  503  502  0.00000000000E+00  0.00000000000E+00  0.82478963769E+03  0.82478963769E+03  0.00000000000E+00 0. -1.
         21   -1    0    0  501  503 -0.00000000000E+00 -0.00000000000E+00 -0.15775736395E+03  0.15775736395E+03  0.00000000000E+00 0.  1.
         25    1    1    2    0    0  0.10405938147E+03 -0.19693328580E+03 -0.19631685771E+02  0.25616689289E+03  0.12500000000E+03 0.  0.
          2    1    1    2  501    0 -0.46178537506E+02  0.39030641039E+02  0.10800510291E+03  0.12377782726E+03  0.00000000000E+00 0.  1.
         -2    1    1    2    0  502 -0.57880843963E+02  0.15790264476E+03  0.57865885661E+03  0.60260228148E+03  0.00000000000E+00 0. -1.
<mgrwt>
<rscale>  4 0.25541354E+03</rscale>
<asrwt>0</asrwt>
<pdfrwt beam="1">  1       21 0.12689071E+00 0.25541354E+03</pdfrwt>
<pdfrwt beam="2">  1       21 0.24270364E-01 0.25541354E+03</pdfrwt>
<totfact> 0.70517265E+03</totfact>
</mgrwt>
</event>
<event>
 5    0  0.8533808E-002  0.2366521E+03  0.7546771E-02  0.1122043E+00
         21   -1    0    0  503  502  0.00000000000E+00  0.00000000000E+00  0.80194230317E+03  0.80194230317E+03  0.00000000000E+00 0. -1.
         21   -1    0    0  501  503 -0.00000000000E+00 -0.00000000000E+00 -0.12058288616E+03  0.12058288616E+03  0.00000000000E+00 0. -1.
         25    1    1    2    0    0  0.20086545561E+03 -0.56815608622E+01  0.28108793859E+02  0.23831558003E+03  0.12500000000E+03 0.  0.
          3    1    1    2  501    0 -0.17839156759E+03 -0.17732169600E+01  0.59934733680E+03  0.62533505085E+03  0.00000000000E+00 0. -1.
         -3    1    1    2    0  502 -0.22473888016E+02  0.74547778221E+01  0.53903286346E+02  0.58874558460E+02  0.00000000000E+00 0.  1.
<mgrwt>
<rscale>  4 0.23665209E+03</rscale>
<asrwt>0</asrwt>
<pdfrwt beam="1">  1       21 0.12337574E+00 0.23665209E+03</pdfrwt>
<pdfrwt beam="2">  1       21 0.18551214E-01 0.23665209E+03</pdfrwt>
<totfact> 0.12717413E+04</totfact>
</mgrwt>
</event>
<event>
 5    0  0.8533808E-002  0.3122166E+03  0.7546771E-02  0.1079288E+00
         21   -1    0    0  501  502  0.00000000000E+00  0.00000000000E+00  0.85433560634E+03  0.85433560634E+03  0.00000000000E+00 0.  1.
         21   -1    0    0  502  503 -0.00000000000E+00 -0.00000000000E+00 -0.16575807833E+04  0.16575807833E+04  0.00000000000E+00 0.  1.
         25    1    1    2    0    0  0.25245623104E+03 -0.13461069209E+03 -0.16162360816E+04  0.16461161133E+04  0.12500000000E+03 0.  0.
          1    1    1    2  501    0 -0.38074565553E+02  0.50777294375E+02  0.12273350666E+03  0.13817206600E+03  0.00000000000E+00 0. -1.
         -1    1    1    2    0  503 -0.21438166549E+03  0.83833397717E+02  0.69025739795E+03  0.72762821035E+03  0.00000000000E+00 0.  1.
<mgrwt>
<rscale>  4 0.31221657E+03</rscale>
<asrwt>0</asrwt>
<pdfrwt beam="1">  1       21 0.13143625E+00 0.31221657E+03</pdfrwt>
<pdfrwt beam="2">  1       21 0.25501243E+00 0.31221657E+03</pdfrwt>
<totfact> 0.22194466E+01</totfact>
</mgrwt>
</event>
<event>
 5    0  0.8533808E-002  0.3270722E+03  0.7546771E-02  0.1072440E+00
         21   -1    0    0  501  502  0.00000000000E+00  0.00000000000E+00  0.54587845727E+03  0.54587845727E+03  0.00000000000E+00 0.  1.
         21   -1    0    0  502  503 -0.00000000000E+00 -0.00000000000E+00 -0.22922369343E+03  0.22922369343E+03  0.00000000000E+00 0.  1.
         25    1    1    2    0    0 -0.30215573313E+03 -0.72909540819E+01  0.10700114643E+02  0.32724721164E+03  0.12500000000E+03 0.  0.
          1    1    1    2  501    0  0.21657897875E+03 -0.45700439935E+02  0.24500081153E+03  0.33018234643E+03  0.00000000000E+00 0.  1.
         -1    1    1    2    0  503  0.85576754373E+02  0.52991394016E+02  0.60953837673E+02  0.11767259263E+03  0.00000000000E+00 0. -1.
<mgrwt>
<rscale>  4 0.32707223E+03</rscale>
<asrwt>0</asrwt>
<pdfrwt beam="1">  1       21 0.83981301E-01 0.32707223E+03</pdfrwt>
<pdfrwt beam="2">  1       21 0.35265184E-01 0.32707223E+03</pdfrwt>
<totfact> 0.88661927E+03</totfact>
</mgrwt>
</event>
<event>
 5    0  0.8533808E-002  0.4276788E+03  0.7546771E-02  0.1034596E+00
         21   -1    0    0  501  502  0.00000000000E+00  0.00000000000E+00  0.91693890168E+03  0.91693890168E+03  0.00000000000E+00 0. -1.
         21   -1    0    0  502  503 -0.00000000000E+00 -0.00000000000E+00 -0.63417399654E+03  0.63417399654E+03  0.00000000000E+00 0.  1.
         25    1    1    2    0    0 -0.24461242417E+03  0.32779407836E+03 -0.50524158393E+03  0.66195034104E+03  0.12500000000E+03 0.  0.
          1    1    1    2  501    0  0.20025324234E+02 -0.10425796392E+02  0.54360881851E+02  0.58862690362E+02  0.00000000000E+00 0.  1.
         -1    1    1    2    0  503  0.22458709994E+03 -0.31736828197E+03  0.73364560722E+03  0.83029986683E+03  0.00000000000E+00 0. -1.
<mgrwt>
<rscale>  4 0.42767885E+03</rscale>
<asrwt>0</asrwt>
<pdfrwt beam="1">  1       21 0.14106752E+00 0.42767885E+03</pdfrwt>
<pdfrwt beam="2">  1       21 0.97565230E-01 0.42767885E+03</pdfrwt>
<totfact> 0.25367756E+02</totfact>
</mgrwt>
</event>
<event>
 5    0  0.8533808E-002  0.2425124E+03  0.7546771E-02  0.1118130E+00
         21   -1    0    0  501  502  0.00000000000E+00  0.00000000000E+00  0.44641953313E+03  0.44641953313E+03  0.00000000000E+00 0.  1.
         21   -1    0    0  502  503 -0.00000000000E+00 -0.00000000000E+00 -0.12326891794E+03  0.12326891794E+03  0.00000000000E+00 0.  1.
         25    1    1    2    0    0 -0.14631227795E+03  0.14758037543E+03  0.19427099137E+03  0.31073053918E+03  0.12500000000E+03 0.  0.
          4    1    1    2  501    0  0.12110801288E+03 -0.10960969322E+03  0.13635166175E+03  0.21277502507E+03  0.00000000000E+00 0.  1.
         -4    1    1    2    0  503  0.25204265062E+02 -0.37970682211E+02 -0.74720379269E+01  0.46182886827E+02  0.00000000000E+00 0. -1.
<mgrwt>
<rscale>  4 0.24251237E+03</rscale>
<asrwt>0</asrwt>
<pdfrwt beam="1">  1       21 0.68679927E-01 0.24251237E+03</pdfrwt>
<pdfrwt beam="2">  1       21 0.18964449E-01 0.24251237E+03</pdfrwt>
<totfact> 0.48125286E+04</totfact>
</mgrwt>
</event>
<event>
 5    0  0.8533808E-002  0.2662522E+03  0.7546771E-02  0.1103444E+00
         21   -1    0    0  503  502  0.00000000000E+00  0.00000000000E+00  0.11560143558E+04  0.11560143558E+04  0.00000000000E+00 0. -1.
         21   -1    0    0  501  503 -0.00000000000E+00 -0.00000000000E+00 -0.56042290343E+02  0.56042290343E+02  0.00000000000E+00 0. -1.
         25    1    1    2    0    0  0.19853925334E+03  0.12588642326E+03  0.56648652300E+03  0.62593706347E+03  0.12500000000E+03 0.  0.
          3    1    1    2  501    0 -0.69819201069E+02 -0.70780701675E+02  0.17517233600E+03  0.20141989938E+03  0.00000000000E+00 0.  1.
         -3    1    1    2    0  502 -0.12872005227E+03 -0.55105721583E+02  0.35831320650E+03  0.38469968334E+03  0.00000000000E+00 0. -1.
<mgrwt>
<rscale>  4 0.26625219E+03</rscale>
<asrwt>0</asrwt>
<pdfrwt beam="1">  1       21 0.17784834E+00 0.26625219E+03</pdfrwt>
<pdfrwt beam="2">  1       21 0.86218917E-02 0.26625219E+03</pdfrwt>
<totfact> 0.18918265E+04</totfact>
</mgrwt>
</event>
