<event>
 5    0  0.1911311E+001  0.3104133E+03  0.7546771E-02  0.1080148E+00
         21   -1    0    0  502  501  0.00000000000E+00  0.00000000000E+00  0.48830317520E+03  0.48830317520E+03  0.00000000000E+00 0. -1.
         21   -1    0    0  504  502 -0.00000000000E+00 -0.00000000000E+00 -0.78817118047E+03  0.78817118047E+03  0.00000000000E+00 0. -1.
         25    1    1    2    0    0  0.16997978282E+03  0.19990119058E+03  0.33493918106E+03  0.44346687314E+03  0.12500000000E+03 0.  0.
         21    1    1    2  503  501 -0.96529224526E+01  0.36696490237E+02  0.66018166738E+02  0.76145975908E+02  0.00000000000E+00 0. -1.
         21    1    1    2  504  503 -0.16032686037E+03 -0.23659768082E+03 -0.70082535306E+03  0.75686150663E+03  0.00000000000E+00 0. -1.
<mgrwt>
<rscale>  4 0.31041329E+03</rscale>
<asrwt>0</asrwt>
<pdfrwt beam="1">  1       21 0.75123565E-01 0.31041329E+03</pdfrwt>
<pdfrwt beam="2">  1       21 0.12125711E+00 0.31041329E+03</pdfrwt>
<totfact> 0.73912745E+02</totfact>
</mgrwt>
</event>
<event>
 5    0  0.1911311E+001  0.4169820E+03  0.7546771E-02  0.1038053E+00
         21   -1    0    0  504  501  0.00000000000E+00  0.00000000000E+00  0.33525147447E+03  0.33525147447E+03  0.00000000000E+00 0. -1.
         21   -1    0    0  503  502 -0.00000000000E+00 -0.00000000000E+00 -0.13057534865E+04  0.13057534865E+04  0.00000000000E+00 0. -1.
         25    1    1    2    0    0 -0.24002915295E+03 -0.43350073195E+03 -0.43090726133E+03  0.66846312294E+03  0.12500000000E+03 0.  0.
         21    1    1    2  503  501  0.76656760949E+02  0.10259161711E+03 -0.58669236463E+03  0.60050747673E+03  0.00000000000E+00 0. -1.
         21    1    1    2  504  502  0.16337239200E+03  0.33090911484E+03  0.47097613921E+02  0.37203436130E+03  0.00000000000E+00 0. -1.
<mgrwt>
<rscale>  4 0.41698201E+03</rscale>
<asrwt>0</asrwt>
<pdfrwt beam="1">  1       21 0.51577151E-01 0.41698201E+03</pdfrwt>
<pdfrwt beam="2">  1       21 0.20088515E+00 0.41698201E+03</pdfrwt>
<totfact> 0.39433956E+02</totfact>
</mgrwt>
</event>
<event>
 5    0  0.1911311E+001  0.2938106E+03  0.7546771E-02  0.1088376E+00
         21   -1    0    0  504  501  0.00000000000E+00  0.00000000000E+00  0.19681150146E+03  0.19681150146E+03  0.00000000000E+00 0.  1.
         21   -1    0    0  501  502 -0.00000000000E+00 -0.00000000000E+00 -0.93350315200E+03  0.93350315200E+03  0.00000000000E+00 0.  1.
         25    1    1    2    0    0  0.10448026836E+03 -0.31135998281E+03 -0.61214375848E+03  0.70583719541E+03  0.12500000000E+03 0.  0.
         21    1    1    2  503  502  0.34848473882E+02  0.15709385582E+03  0.32234909078E+02  0.16410967379E+03  0.00000000000E+00 0.  1.
         21    1    1    2  504  503 -0.13932874224E+03  0.15426612699E+03 -0.15678280114E+03  0.26036778427E+03  0.00000000000E+00 0.  1.
<mgrwt>
<rscale>  4 0.29381064E+03</rscale>
<asrwt>0</asrwt>
<pdfrwt beam="1">  1       21 0.30278693E-01 0.29381064E+03</pdfrwt>
<pdfrwt beam="2">  1       21 0.14361587E+00 0.29381064E+03</pdfrwt>
<totfact> 0.32570244E+03</totfact>
</mgrwt>
</event>
<event>
 5    0  0.1911311E+001  0.3363761E+03  0.7546771E-02  0.1068350E+00
         21   -1    0    0  502  501  0.00000000000E+00  0.00000000000E+00  0.33939882902E+03  0.33939882902E+03  0.00000000000E+00 0.  1.
         21   -1    0    0  504  502 -0.00000000000E+00 -0.00000000000E+00 -0.52338959985E+03  0.52338959985E+03  0.00000000000E+00 0.  1.
         25    1    1    2    0    0 -0.19893156337E+03 -0.12006424784E+03 -0.20763497467E+03  0.33574763323E+03  0.12500000000E+03 0.  0.
         21    1    1    2  503  501  0.27257106955E+03  0.21900986796E+03  0.12089939875E+03  0.36996888361E+03  0.00000000000E+00 0.  1.
         21    1    1    2  504  503 -0.73639506185E+02 -0.98945620127E+02 -0.97255194898E+02  0.15707191203E+03  0.00000000000E+00 0. -1.
<mgrwt>
<rscale>  4 0.33637611E+03</rscale>
<asrwt>0</asrwt>
<pdfrwt beam="1">  1       21 0.52215205E-01 0.33637611E+03</pdfrwt>
<pdfrwt beam="2">  1       21 0.80521476E-01 0.33637611E+03</pdfrwt>
<totfact> 0.43218368E+03</totfact>
</mgrwt>
</event>
