<event>
 5    0  0.1882753E+000  0.2628744E+03  0.7546771E-02  0.1105428E+00
         21   -1    0    0  502  501  0.00000000000E+00  0.00000000000E+00  0.15470293922E+04  0.15470293922E+04  0.00000000000E+00 0. -1.
         21   -1    0    0  503  502 -0.00000000000E+00 -0.00000000000E+00 -0.50212195507E+02  0.50212195507E+02  0.00000000000E+00 0. -1.
         25    1    1    2    0    0  0.95640161736E+02 -0.21054910214E+03  0.10702064311E+04  0.11020184981E+04  0.12500000000E+03 0.  0.
         21    1    1    2  503  504 -0.24933079738E+02  0.11718648732E+03  0.13241070845E+03  0.17856910983E+03  0.00000000000E+00 0. -1.
         21    1    1    2  504  501 -0.70707081998E+02  0.93362614824E+02  0.29420005713E+03  0.31665397977E+03  0.00000000000E+00 0. -1.
<mgrwt>
<rscale>  4 0.26287443E+03</rscale>
<asrwt>0</asrwt>
<pdfrwt beam="1">  1       21 0.23800449E+00 0.26287443E+03</pdfrwt>
<pdfrwt beam="2">  1       21 0.77249543E-02 0.26287443E+03</pdfrwt>
<totfact> 0.94335660E+03</totfact>
</mgrwt>
</event>
<event>
 5    0  0.1856407E+000  0.2894402E+03  0.7546771E-02  0.1090642E+00
         21   -1    0    0  502  501  0.00000000000E+00  0.00000000000E+00  0.95179386674E+02  0.95179386674E+02  0.00000000000E+00 0.  1.
         21   -1    0    0  503  502 -0.00000000000E+00 -0.00000000000E+00 -0.22033892504E+04  0.22033892504E+04  0.00000000000E+00 0. -1.
         25    1    1    2    0    0  0.63794841376E+02 -0.28370340732E+03 -0.23076408059E+03  0.39170711763E+03  0.12500000000E+03 0.  0.
         21    1    1    2  503  504  0.80773467304E+01  0.36165845189E+02 -0.55258377168E+02  0.66533451254E+02  0.00000000000E+00 0. -1.
         21    1    1    2  504  501 -0.71872188106E+02  0.24753756213E+03 -0.18221874060E+04  0.18403280682E+04  0.00000000000E+00 0. -1.
<mgrwt>
<rscale>  4 0.28944022E+03</rscale>
<asrwt>0</asrwt>
<pdfrwt beam="1">  1       21 0.14642983E-01 0.28944022E+03</pdfrwt>
<pdfrwt beam="2">  1       21 0.33898294E+00 0.28944022E+03</pdfrwt>
<totfact> 0.74166125E+02</totfact>
</mgrwt>
</event>
<event>
 5    0  0.1856407E+000  0.4469975E+03  0.7546771E-02  0.1028621E+00
         21   -1    0    0  502  501  0.00000000000E+00  0.00000000000E+00  0.23690760352E+03  0.23690760352E+03  0.00000000000E+00 0.  1.
         21   -1    0    0  503  502 -0.00000000000E+00 -0.00000000000E+00 -0.85957411370E+03  0.85957411370E+03  0.00000000000E+00 0.  1.
         25    1    1    2    0    0  0.43579201520E+03  0.24192182709E+01 -0.32187388079E+03  0.55601108646E+03  0.12500000000E+03 0.  0.
         21    1    1    2  503  504 -0.42302854399E+03  0.19532102392E+02 -0.28030775895E+03  0.50784553930E+03  0.00000000000E+00 0.  1.
         21    1    1    2  504  501 -0.12763471203E+02 -0.21951320663E+02 -0.20484870446E+02  0.32625091466E+02  0.00000000000E+00 0.  1.
<mgrwt>
<rscale>  4 0.44699753E+03</rscale>
<asrwt>0</asrwt>
<pdfrwt beam="1">  1       21 0.36447325E-01 0.44699753E+03</pdfrwt>
<pdfrwt beam="2">  1       21 0.13224217E+00 0.44699753E+03</pdfrwt>
<totfact> 0.25975086E+03</totfact>
</mgrwt>
</event>
<event>
 5    0  0.1856407E+000  0.2695745E+03  0.7546771E-02  0.1101523E+00
         21   -1    0    0  502  501  0.00000000000E+00  0.00000000000E+00  0.15618022752E+03  0.15618022752E+03  0.00000000000E+00 0. -1.
         21   -1    0    0  503  502 -0.00000000000E+00 -0.00000000000E+00 -0.46924398295E+03  0.46924398295E+03  0.00000000000E+00 0. -1.
         25    1    1    2    0    0 -0.53453517675E+02 -0.23278350160E+03 -0.64351123762E+02  0.27714888471E+03  0.12500000000E+03 0.  0.
         21    1    1    2  503  504  0.39349040421E+02  0.15155723669E+03 -0.19410367384E+03  0.24938760830E+03  0.00000000000E+00 0. -1.
         21    1    1    2  504  501  0.14104477255E+02  0.81226264911E+02 -0.54608957827E+02  0.98887717462E+02  0.00000000000E+00 0. -1.
<mgrwt>
<rscale>  4 0.26957455E+03</rscale>
<asrwt>0</asrwt>
<pdfrwt beam="1">  1       21 0.24027728E-01 0.26957455E+03</pdfrwt>
<pdfrwt beam="2">  1       21 0.72191380E-01 0.26957455E+03</pdfrwt>
<totfact> 0.27216172E+04</totfact>
</mgrwt>
</event>
<event>
 5    0  0.1856407E+000  0.2575234E+03  0.7546771E-02  0.1108640E+00
         21   -1    0    0  502  501  0.00000000000E+00  0.00000000000E+00  0.11422193752E+03  0.11422193752E+03  0.00000000000E+00 0. -1.
         21   -1    0    0  503  502 -0.00000000000E+00 -0.00000000000E+00 -0.52346350011E+03  0.52346350011E+03  0.00000000000E+00 0. -1.
         25    1    1    2    0    0  0.93941441991E+02 -0.20461743888E+03 -0.25738155592E+03  0.36409278508E+03  0.12500000000E+03 0.  0.
         21    1    1    2  503  504 -0.19874116169E+02  0.26239958494E+02 -0.11629858901E+02  0.34910879871E+02  0.00000000000E+00 0. -1.
         21    1    1    2  504  501 -0.74067325822E+02  0.17837748039E+03 -0.14023014777E+03  0.23868177268E+03  0.00000000000E+00 0. -1.
<mgrwt>
<rscale>  4 0.25752338E+03</rscale>
<asrwt>0</asrwt>
<pdfrwt beam="1">  1       21 0.17572606E-01 0.25752338E+03</pdfrwt>
<pdfrwt beam="2">  1       21 0.80532846E-01 0.25752338E+03</pdfrwt>
<totfact> 0.38557478E+04</totfact>
</mgrwt>
</event>
<event>
 5    0  0.2119652E+000  0.2417102E+03  0.7546771E-02  0.1118659E+00
         21   -1    0    0  502  501  0.00000000000E+00  0.00000000000E+00  0.12968272729E+03  0.12968272729E+03  0.00000000000E+00 0.  1.
         21   -1    0    0  503  502 -0.00000000000E+00 -0.00000000000E+00 -0.41121380531E+03  0.41121380531E+03  0.00000000000E+00 0.  1.
         25    1    1    2    0    0 -0.15369670198E+03  0.13847796150E+03 -0.18234204490E+03  0.30277457515E+03  0.12500000000E+03 0.  0.
         21    1    1    2  503  504  0.16018386818E+02 -0.39771425086E+02 -0.40102861372E+02  0.58707703582E+02  0.00000000000E+00 0.  1.
         21    1    1    2  504  501  0.13767831516E+03 -0.98706536413E+02 -0.59086171747E+02  0.17941425386E+03  0.00000000000E+00 0.  1.
<mgrwt>
<rscale>  4 0.24171020E+03</rscale>
<asrwt>0</asrwt>
<pdfrwt beam="1">  1       21 0.19951189E-01 0.24171020E+03</pdfrwt>
<pdfrwt beam="2">  1       21 0.63263663E-01 0.24171020E+03</pdfrwt>
<totfact> 0.52426426E+04</totfact>
</mgrwt>
</event>
<event>
 5    0  0.3544295E+000  0.2809794E+03  0.7546771E-02  0.1095155E+00
         21   -1    0    0  502  501  0.00000000000E+00  0.00000000000E+00  0.30165250771E+03  0.30165250771E+03  0.00000000000E+00 0. -1.
         21   -1    0    0  503  502 -0.00000000000E+00 -0.00000000000E+00 -0.38056942266E+03  0.38056942266E+03  0.00000000000E+00 0. -1.
         25    1    1    2    0    0 -0.17852349395E+03  0.17735209333E+03  0.16275473967E+03  0.32471296277E+03  0.12500000000E+03 0.  0.
         21    1    1    2  503  504  0.15701851888E+02 -0.59939408295E+02 -0.68828336854E+02  0.92610046828E+02  0.00000000000E+00 0.  1.
         21    1    1    2  504  501  0.16282164207E+03 -0.11741268504E+03 -0.17284331776E+03  0.26489892077E+03  0.00000000000E+00 0. -1.
<mgrwt>
<rscale>  4 0.28097936E+03</rscale>
<asrwt>0</asrwt>
<pdfrwt beam="1">  1       21 0.46408078E-01 0.28097936E+03</pdfrwt>
<pdfrwt beam="2">  1       21 0.58549142E-01 0.28097936E+03</pdfrwt>
<totfact> 0.11549683E+04</totfact>
</mgrwt>
</event>
<event>
 5    0  0.1856407E+000  0.3148890E+03  0.7546771E-02  0.1078026E+00
         21   -1    0    0  502  501  0.00000000000E+00  0.00000000000E+00  0.22931186395E+04  0.22931186395E+04  0.00000000000E+00 0. -1.
         21   -1    0    0  503  502 -0.00000000000E+00 -0.00000000000E+00 -0.11076807161E+03  0.11076807161E+03  0.00000000000E+00 0. -1.
         25    1    1    2    0    0 -0.27460873410E+03 -0.90111759955E+02  0.20548743587E+04  0.20788611585E+04  0.12500000000E+03 0.  0.
         21    1    1    2  503  504  0.17937955267E+03  0.73676533738E+02  0.47667402529E+02  0.19969335693E+03  0.00000000000E+00 0. -1.
         21    1    1    2  504  501  0.95229181426E+02  0.16435226217E+02  0.79808806619E+02  0.12533219566E+03  0.00000000000E+00 0. -1.
<mgrwt>
<rscale>  4 0.31488901E+03</rscale>
<asrwt>0</asrwt>
<pdfrwt beam="1">  1       21 0.35278745E+00 0.31488901E+03</pdfrwt>
<pdfrwt beam="2">  1       21 0.17041243E-01 0.31488901E+03</pdfrwt>
<totfact> 0.45208939E+02</totfact>
</mgrwt>
</event>
<event>
 5    0  0.3396006E+000  0.3213333E+03  0.7546771E-02  0.1075037E+00
         21   -1    0    0  502  501  0.00000000000E+00  0.00000000000E+00  0.60525521796E+02  0.60525521796E+02  0.00000000000E+00 0. -1.
         21   -1    0    0  503  502 -0.00000000000E+00 -0.00000000000E+00 -0.16730592017E+04  0.16730592017E+04  0.00000000000E+00 0. -1.
         25    1    1    2    0    0  0.22060849612E+03  0.19738790223E+03 -0.65274506363E+03  0.72755151749E+03  0.12500000000E+03 0.  0.
         21    1    1    2  503  504 -0.16563026883E+02 -0.22454098917E+02 -0.48680169396E+02  0.56109529583E+02  0.00000000000E+00 0. -1.
         21    1    1    2  504  501 -0.20404546923E+03 -0.17493380332E+03 -0.91110844688E+03  0.94992367642E+03  0.00000000000E+00 0. -1.
<mgrwt>
<rscale>  4 0.32133330E+03</rscale>
<asrwt>0</asrwt>
<pdfrwt beam="1">  1       21 0.93116191E-02 0.32133330E+03</pdfrwt>
<pdfrwt beam="2">  1       21 0.25739371E+00 0.32133330E+03</pdfrwt>
<totfact> 0.49891922E+03</totfact>
</mgrwt>
</event>
<event>
 5    0  0.3455295E+000  0.2409707E+03  0.7546771E-02  0.1119148E+00
         21   -1    0    0  502  501  0.00000000000E+00  0.00000000000E+00  0.85314362947E+02  0.85314362947E+02  0.00000000000E+00 0. -1.
         21   -1    0    0  503  502 -0.00000000000E+00 -0.00000000000E+00 -0.84094208055E+03  0.84094208055E+03  0.00000000000E+00 0. -1.
         25    1    1    2    0    0 -0.14553649816E+03 -0.14581146154E+03 -0.15102340342E+03  0.28438516662E+03  0.12500000000E+03 0.  0.
         21    1    1    2  503  504  0.13774270816E+03  0.12110273901E+03 -0.56906018446E+03  0.59788662854E+03  0.00000000000E+00 0. -1.
         21    1    1    2  504  501  0.77937900000E+01  0.24708722533E+02 -0.35544129720E+02  0.43984648337E+02  0.00000000000E+00 0. -1.
<mgrwt>
<rscale>  4 0.24097065E+03</rscale>
<asrwt>0</asrwt>
<pdfrwt beam="1">  1       21 0.13125286E-01 0.24097065E+03</pdfrwt>
<pdfrwt beam="2">  1       21 0.12937571E+00 0.24097065E+03</pdfrwt>
<totfact> 0.21241063E+04</totfact>
</mgrwt>
</event>
<event>
 5    0  0.1856407E+000  0.2516297E+03  0.7546771E-02  0.1112279E+00
         21   -1    0    0  502  501  0.00000000000E+00  0.00000000000E+00  0.46700775132E+03  0.46700775132E+03  0.00000000000E+00 0. -1.
         21   -1    0    0  503  502 -0.00000000000E+00 -0.00000000000E+00 -0.34189225764E+03  0.34189225764E+03  0.00000000000E+00 0. -1.
         25    1    1    2    0    0 -0.21853949659E+03 -0.77696477991E+02  0.35847245996E+03  0.44488623132E+03  0.12500000000E+03 0.  0.
         21    1    1    2  503  504  0.71404990777E+02 -0.23922105004E+02 -0.14759420637E+03  0.16569547238E+03  0.00000000000E+00 0. -1.
         21    1    1    2  504  501  0.14713450581E+03  0.10161858299E+03 -0.85762759916E+02  0.19831830525E+03  0.00000000000E+00 0. -1.
<mgrwt>
<rscale>  4 0.25162966E+03</rscale>
<asrwt>0</asrwt>
<pdfrwt beam="1">  1       21 0.71847346E-01 0.25162966E+03</pdfrwt>
<pdfrwt beam="2">  1       21 0.52598809E-01 0.25162966E+03</pdfrwt>
<totfact> 0.57576486E+03</totfact>
</mgrwt>
</event>
<event>
 5    0  0.1996113E+000  0.3890762E+03  0.7546771E-02  0.1047629E+00
         21   -1    0    0  502  501  0.00000000000E+00  0.00000000000E+00  0.95435120650E+03  0.95435120650E+03  0.00000000000E+00 0.  1.
         21   -1    0    0  503  502 -0.00000000000E+00 -0.00000000000E+00 -0.15522461666E+03  0.15522461666E+03  0.00000000000E+00 0.  1.
         25    1    1    2    0    0  0.31984495329E+03 -0.18290563333E+03  0.33092297005E+03  0.51077419371E+03  0.12500000000E+03 0.  0.
         21    1    1    2  503  504 -0.49800658303E+02  0.89618808010E+01  0.46736527424E+02  0.68881956059E+02  0.00000000000E+00 0.  1.
         21    1    1    2  504  501 -0.27004429499E+03  0.17394375253E+03  0.42146709237E+03  0.52991967339E+03  0.00000000000E+00 0.  1.
<mgrwt>
<rscale>  4 0.38907617E+03</rscale>
<asrwt>0</asrwt>
<pdfrwt beam="1">  1       21 0.14682326E+00 0.38907617E+03</pdfrwt>
<pdfrwt beam="2">  1       21 0.23880711E-01 0.38907617E+03</pdfrwt>
<totfact> 0.46551377E+03</totfact>
</mgrwt>
</event>
<event>
 5    0  0.1885217E+000  0.2434382E+03  0.7546771E-02  0.1117523E+00
         21   -1    0    0  502  501  0.00000000000E+00  0.00000000000E+00  0.15847260540E+04  0.15847260540E+04  0.00000000000E+00 0.  1.
         21   -1    0    0  503  502 -0.00000000000E+00 -0.00000000000E+00 -0.84637211534E+02  0.84637211534E+02  0.00000000000E+00 0.  1.
         25    1    1    2    0    0 -0.15316534853E+03  0.17941854125E+03  0.12138465408E+04  0.12428592284E+04  0.12500000000E+03 0.  0.
         21    1    1    2  503  504  0.51043955457E+02 -0.16460119901E+03  0.27247371883E+03  0.32239877102E+03  0.00000000000E+00 0.  1.
         21    1    1    2  504  501  0.10212139307E+03 -0.14817342245E+02  0.13768582782E+02  0.10410526608E+03  0.00000000000E+00 0.  1.
<mgrwt>
<rscale>  4 0.24343822E+03</rscale>
<asrwt>0</asrwt>
<pdfrwt beam="1">  1       21 0.24380399E+00 0.24343822E+03</pdfrwt>
<pdfrwt beam="2">  1       21 0.13021111E-01 0.24343822E+03</pdfrwt>
<totfact> 0.34912290E+03</totfact>
</mgrwt>
</event>
