<event>
 5    0  0.1014204E+000  0.3917944E+03  0.7546771E-02  0.1046659E+00
          2   -1    0    0  503    0 -0.00000000000E+00  0.00000000000E+00  0.13191063836E+04  0.13191063836E+04  0.00000000000E+00 0. -1.
         21   -1    0    0  501  502  0.00000000000E+00 -0.00000000000E+00 -0.34162191125E+03  0.34162191125E+03  0.00000000000E+00 0.  1.
         25    1    1    2    0    0  0.11889034283E+02  0.35960165873E+03 -0.14295995685E+03  0.40683811444E+03  0.12500000000E+03 0.  0.
         21    1    1    2  503  502 -0.44560996914E+02  0.96101105338E+02  0.21964169615E+03  0.24385155235E+03  0.00000000000E+00 0. -1.
          2    1    1    2  501    0  0.32671962631E+02 -0.45570276407E+03  0.90080273306E+03  0.10100386281E+04  0.00000000000E+00 0. -1.
<mgrwt>
<rscale>  4 0.39179438E+03</rscale>
<asrwt>0</asrwt>
<pdfrwt beam="1">  1       21 0.52557218E-01 0.39179438E+03</pdfrwt>
<pdfrwt beam="2">  1        2 0.20293944E+00 0.39179438E+03</pdfrwt>
<totfact> 0.68620210E+02</totfact>
</mgrwt>
</event>
<event>
 5    0  0.1014204E+000  0.2361267E+03  0.7546771E-02  0.1122400E+00
         -3   -1    0    0    0  501 -0.00000000000E+00  0.00000000000E+00  0.38903456424E+03  0.38903456424E+03  0.00000000000E+00 0.  1.
         21   -1    0    0  503  502  0.00000000000E+00 -0.00000000000E+00 -0.48485700954E+03  0.48485700954E+03  0.00000000000E+00 0. -1.
         25    1    1    2    0    0  0.70459292123E+02  0.18986491115E+03 -0.41715812295E+03  0.48026981570E+03  0.12500000000E+03 0.  0.
         21    1    1    2  503  501  0.25755129729E+01 -0.28637560276E+02  0.23864144207E+01  0.28852003387E+02  0.00000000000E+00 0.  1.
         -3    1    1    2    0  502 -0.73034805096E+02 -0.16122735088E+03  0.31894926323E+03  0.36476975469E+03  0.00000000000E+00 0.  1.
<mgrwt>
<rscale>  4 0.23612668E+03</rscale>
<asrwt>0</asrwt>
<pdfrwt beam="1">  1       21 0.74593386E-01 0.23612668E+03</pdfrwt>
<pdfrwt beam="2">  1       -3 0.59851472E-01 0.23612668E+03</pdfrwt>
<totfact> 0.21718713E+02</totfact>
</mgrwt>
</event>
<event>
 5    0  0.1014204E+000  0.3299262E+03  0.7546771E-02  0.1071170E+00
         -2   -1    0    0    0  501 -0.00000000000E+00  0.00000000000E+00  0.31399664196E+04  0.31399664196E+04  0.00000000000E+00 0. -1.
         21   -1    0    0  503  502  0.00000000000E+00 -0.00000000000E+00 -0.15626183415E+03  0.15626183415E+03  0.00000000000E+00 0.  1.
         25    1    1    2    0    0  0.24455302333E+03  0.14440484561E+03  0.46607987104E+02  0.31377738146E+03  0.12500000000E+03 0.  0.
         21    1    1    2  503  501  0.54486193589E+02 -0.73107650605E+02  0.13124540439E+03  0.15980872956E+03  0.00000000000E+00 0.  1.
         -2    1    1    2    0  502 -0.29903921692E+03 -0.71297195000E+02  0.28058511939E+04  0.28226421427E+04  0.00000000000E+00 0. -1.
<mgrwt>
<rscale>  4 0.32992624E+03</rscale>
<asrwt>0</asrwt>
<pdfrwt beam="1">  1       21 0.24040285E-01 0.32992624E+03</pdfrwt>
<pdfrwt beam="2">  1       -2 0.48307171E+00 0.32992624E+03</pdfrwt>
<totfact> 0.32750085E+00</totfact>
</mgrwt>
</event>
<event>
 5    0  0.1014204E+000  0.2627088E+03  0.7546771E-02  0.1105527E+00
         -1   -1    0    0    0  501 -0.00000000000E+00  0.00000000000E+00  0.81416677352E+03  0.81416677352E+03  0.00000000000E+00 0. -1.
         21   -1    0    0  503  502  0.00000000000E+00 -0.00000000000E+00 -0.12041869260E+04  0.12041869260E+04  0.00000000000E+00 0.  1.
         25    1    1    2    0    0 -0.16579626587E+03 -0.16029213044E+03 -0.11634870119E+04  0.11926898154E+04  0.12500000000E+03 0.  0.
         21    1    1    2  503  501 -0.29051030025E+02 -0.40964560803E+01  0.43558132281E+02  0.52517179910E+02  0.00000000000E+00 0. -1.
         -1    1    1    2    0  502  0.19484729589E+03  0.16438858652E+03  0.72990872721E+03  0.77314670416E+03  0.00000000000E+00 0. -1.
<mgrwt>
<rscale>  4 0.26270878E+03</rscale>
<asrwt>0</asrwt>
<pdfrwt beam="1">  1       21 0.18525953E+00 0.26270878E+03</pdfrwt>
<pdfrwt beam="2">  1       -1 0.12525643E+00 0.26270878E+03</pdfrwt>
<totfact> 0.88184910E+00</totfact>
</mgrwt>
</event>
<event>
 5    0  0.1014204E+000  0.5123303E+03  0.7546771E-02  0.1010610E+00
          2   -1    0    0  503    0 -0.00000000000E+00  0.00000000000E+00  0.20170801421E+04  0.20170801421E+04  0.00000000000E+00 0.  1.
         21   -1    0    0  501  502  0.00000000000E+00 -0.00000000000E+00 -0.19288472942E+03  0.19288472942E+03  0.00000000000E+00 0. -1.
         25    1    1    2    0    0 -0.32525855627E+03 -0.36148288502E+03  0.31661849290E+03  0.59357836436E+03  0.12500000000E+03 0.  0.
         21    1    1    2  503  502 -0.48954906825E+02 -0.15155327405E+02  0.10981955189E+03  0.12118828668E+03  0.00000000000E+00 0. -1.
          2    1    1    2  501    0  0.37421346310E+03  0.37663821242E+03  0.13977573679E+04  0.14951982205E+04  0.00000000000E+00 0.  1.
<mgrwt>
<rscale>  4 0.51233026E+03</rscale>
<asrwt>0</asrwt>
<pdfrwt beam="1">  1       21 0.29674575E-01 0.51233026E+03</pdfrwt>
<pdfrwt beam="2">  1        2 0.31032001E+00 0.51233026E+03</pdfrwt>
<totfact> 0.89887103E+02</totfact>
</mgrwt>
</event>
<event>
 5    0  0.1014204E+000  0.3397819E+03  0.7546771E-02  0.1066889E+00
          2   -1    0    0  503    0 -0.00000000000E+00  0.00000000000E+00  0.11148896392E+04  0.11148896392E+04  0.00000000000E+00 0.  1.
         21   -1    0    0  501  502  0.00000000000E+00 -0.00000000000E+00 -0.23016522494E+03  0.23016522494E+03  0.00000000000E+00 0.  1.
         25    1    1    2    0    0 -0.32229328084E+03  0.44429262817E+02  0.63048762314E+02  0.35418507125E+03  0.12500000000E+03 0.  0.
         21    1    1    2  503  502  0.20175271566E+02 -0.12987086186E+02  0.63265346632E+03  0.63310829598E+03  0.00000000000E+00 0.  1.
          2    1    1    2  501    0  0.30211800927E+03 -0.31442176631E+02  0.18902218558E+03  0.35776149687E+03  0.00000000000E+00 0.  1.
<mgrwt>
<rscale>  4 0.33978193E+03</rscale>
<asrwt>0</asrwt>
<pdfrwt beam="1">  1       21 0.35410035E-01 0.33978193E+03</pdfrwt>
<pdfrwt beam="2">  1        2 0.17152148E+00 0.33978193E+03</pdfrwt>
<totfact> 0.20725718E+03</totfact>
</mgrwt>
</event>
<event>
 5    0  0.1014204E+000  0.4783554E+03  0.7546771E-02  0.1019588E+00
          2   -1    0    0  503    0 -0.00000000000E+00  0.00000000000E+00  0.99819261030E+03  0.99819261030E+03  0.00000000000E+00 0. -1.
         21   -1    0    0  501  502  0.00000000000E+00 -0.00000000000E+00 -0.43019134597E+03  0.43019134597E+03  0.00000000000E+00 0. -1.
         25    1    1    2    0    0  0.44389504067E+03 -0.10320356694E+03 -0.18453384470E+03  0.50731797051E+03  0.12500000000E+03 0.  0.
         21    1    1    2  503  502  0.38402829475E+02  0.11416551362E+02  0.52939880033E+02  0.66390856709E+02  0.00000000000E+00 0.  1.
          2    1    1    2  501    0 -0.48229787015E+03  0.91787015573E+02  0.69959522900E+03  0.85467512905E+03  0.00000000000E+00 0. -1.
<mgrwt>
<rscale>  4 0.47835539E+03</rscale>
<asrwt>0</asrwt>
<pdfrwt beam="1">  1       21 0.66183284E-01 0.47835539E+03</pdfrwt>
<pdfrwt beam="2">  1        2 0.15356809E+00 0.47835539E+03</pdfrwt>
<totfact> 0.62565107E+02</totfact>
</mgrwt>
</event>
<event>
 5    0  0.1014204E+000  0.2873478E+03  0.7546771E-02  0.1091742E+00
         -2   -1    0    0    0  501 -0.00000000000E+00  0.00000000000E+00  0.48860265386E+03  0.48860265386E+03  0.00000000000E+00 0.  1.
         21   -1    0    0  503  502  0.00000000000E+00 -0.00000000000E+00 -0.59543453911E+03  0.59543453911E+03  0.00000000000E+00 0.  1.
         25    1    1    2    0    0  0.25732820833E+03 -0.50235819813E+02 -0.50484580661E+03  0.58243946711E+03  0.12500000000E+03 0.  0.
         21    1    1    2  503  501 -0.42965701132E+02 -0.23178549892E+01 -0.37602467946E+01  0.43192168057E+02  0.00000000000E+00 0. -1.
         -2    1    1    2    0  502 -0.21436250720E+03  0.52553674803E+02  0.40177416815E+03  0.45840555780E+03  0.00000000000E+00 0.  1.
<mgrwt>
<rscale>  4 0.28734777E+03</rscale>
<asrwt>0</asrwt>
<pdfrwt beam="1">  1       21 0.91605314E-01 0.28734777E+03</pdfrwt>
<pdfrwt beam="2">  1       -2 0.75169639E-01 0.28734777E+03</pdfrwt>
<totfact> 0.12841390E+02</totfact>
</mgrwt>
</event>
<event>
 5    0  0.1014204E+000  0.3352726E+03  0.7546771E-02  0.1068827E+00
         21   -1    0    0  501  502  0.00000000000E+00  0.00000000000E+00  0.11037503728E+04  0.11037503728E+04  0.00000000000E+00 0. -1.
          1   -1    0    0  503    0 -0.00000000000E+00 -0.00000000000E+00 -0.13902446569E+03  0.13902446569E+03  0.00000000000E+00 0. -1.
         25    1    1    2    0    0  0.25637138884E+03 -0.17687100216E+03  0.16306619143E+03  0.37312896324E+03  0.12500000000E+03 0.  0.
         21    1    1    2  503  502 -0.16172945737E+02 -0.20447429446E+02  0.55179206781E+02  0.61027914971E+02  0.00000000000E+00 0.  1.
          1    1    1    2  501    0 -0.24019844310E+03  0.19731843161E+03  0.74648050895E+03  0.80861796032E+03  0.00000000000E+00 0. -1.
<mgrwt>
<rscale>  4 0.33527255E+03</rscale>
<asrwt>0</asrwt>
<pdfrwt beam="1">  1       21 0.16980774E+00 0.33527255E+03</pdfrwt>
<pdfrwt beam="2">  1        1 0.21388380E-01 0.33527255E+03</pdfrwt>
<totfact> 0.50237314E+02</totfact>
</mgrwt>
</event>
<event>
 5    0  0.1014204E+000  0.2405246E+03  0.7546771E-02  0.1119444E+00
          2   -1    0    0  503    0 -0.00000000000E+00  0.00000000000E+00  0.16019662591E+04  0.16019662591E+04  0.00000000000E+00 0.  1.
         21   -1    0    0  501  502  0.00000000000E+00 -0.00000000000E+00 -0.12144496074E+03  0.12144496074E+03  0.00000000000E+00 0.  1.
         25    1    1    2    0    0 -0.36284902198E+02  0.20001334832E+03  0.18414935204E+02  0.23934503018E+03  0.12500000000E+03 0.  0.
         21    1    1    2  503  502 -0.65304593402E+00  0.23780254071E+02  0.23253878091E+03  0.23375245792E+03  0.00000000000E+00 0.  1.
          2    1    1    2  501    0  0.36937948132E+02 -0.22379360239E+03  0.12295675822E+04  0.12503137317E+04  0.00000000000E+00 0.  1.
<mgrwt>
<rscale>  4 0.24052458E+03</rscale>
<asrwt>0</asrwt>
<pdfrwt beam="1">  1       21 0.18683841E-01 0.24052458E+03</pdfrwt>
<pdfrwt beam="2">  1        2 0.24645633E+00 0.24052458E+03</pdfrwt>
<totfact> 0.39769133E+03</totfact>
</mgrwt>
</event>
<event>
 5    0  0.1014204E+000  0.3839359E+03  0.7546771E-02  0.1049489E+00
         21   -1    0    0  501  502  0.00000000000E+00  0.00000000000E+00  0.82201919005E+02  0.82201919005E+02  0.00000000000E+00 0. -1.
          2   -1    0    0  503    0 -0.00000000000E+00 -0.00000000000E+00 -0.19227533738E+04  0.19227533738E+04  0.00000000000E+00 0. -1.
         25    1    1    2    0    0  0.13467703622E+03  0.33711105153E+03 -0.61727247678E+03  0.72693333652E+03  0.12500000000E+03 0.  0.
         21    1    1    2  503  502  0.59354331655E+01 -0.24943920029E+02 -0.12548225859E+03  0.12807507851E+03  0.00000000000E+00 0.  1.
          2    1    1    2  501    0 -0.14061246938E+03 -0.31216713150E+03 -0.10977967194E+04  0.11499468778E+04  0.00000000000E+00 0. -1.
<mgrwt>
<rscale>  4 0.38393589E+03</rscale>
<asrwt>0</asrwt>
<pdfrwt beam="1">  1       21 0.12646450E-01 0.38393589E+03</pdfrwt>
<pdfrwt beam="2">  1        2 0.29580819E+00 0.38393589E+03</pdfrwt>
<totfact> 0.52783471E+03</totfact>
</mgrwt>
</event>
<event>
 5    0  0.1014204E+000  0.3493119E+03  0.7546771E-02  0.1062898E+00
         21   -1    0    0  501  502  0.00000000000E+00  0.00000000000E+00  0.20515524406E+03  0.20515524406E+03  0.00000000000E+00 0.  1.
          2   -1    0    0  503    0 -0.00000000000E+00 -0.00000000000E+00 -0.13863565559E+04  0.13863565559E+04  0.00000000000E+00 0. -1.
         25    1    1    2    0    0  0.15646252902E+02  0.32580518056E+03  0.16029078264E+02  0.34967949934E+03  0.12500000000E+03 0.  0.
         21    1    1    2  503  502 -0.13563138498E+02 -0.22800268637E+02 -0.11137687796E+03  0.11449288152E+03  0.00000000000E+00 0.  1.
          2    1    1    2  501    0 -0.20831144037E+01 -0.30300491193E+03 -0.10858535121E+04  0.11273394191E+04  0.00000000000E+00 0. -1.
<mgrwt>
<rscale>  4 0.34931192E+03</rscale>
<asrwt>0</asrwt>
<pdfrwt beam="1">  1       21 0.31562345E-01 0.34931192E+03</pdfrwt>
<pdfrwt beam="2">  1        2 0.21328563E+00 0.34931192E+03</pdfrwt>
<totfact> 0.18232114E+03</totfact>
</mgrwt>
</event>
<event>
 5    0  0.1014204E+000  0.2538474E+03  0.7546771E-02  0.1110897E+00
         21   -1    0    0  501  502  0.00000000000E+00  0.00000000000E+00  0.50479806719E+03  0.50479806719E+03  0.00000000000E+00 0. -1.
          2   -1    0    0  503    0 -0.00000000000E+00 -0.00000000000E+00 -0.63093353969E+03  0.63093353969E+03  0.00000000000E+00 0.  1.
         25    1    1    2    0    0  0.22011819222E+03  0.41475915394E+01  0.44193854363E+03  0.50931708926E+03  0.12500000000E+03 0.  0.
         21    1    1    2  503  502  0.13026417045E+02 -0.25468991424E+02 -0.83142204022E+02  0.87926009546E+02  0.00000000000E+00 0. -1.
          2    1    1    2  501    0 -0.23314460927E+03  0.21321399884E+02 -0.48493181212E+03  0.53848850808E+03  0.00000000000E+00 0.  1.
<mgrwt>
<rscale>  4 0.25384745E+03</rscale>
<asrwt>0</asrwt>
<pdfrwt beam="1">  1       21 0.77661241E-01 0.25384745E+03</pdfrwt>
<pdfrwt beam="2">  1        2 0.97066698E-01 0.25384745E+03</pdfrwt>
<totfact> 0.85253804E+02</totfact>
</mgrwt>
</event>
<event>
 5    0  0.1014204E+000  0.3456027E+03  0.7546771E-02  0.1064434E+00
          2   -1    0    0  503    0 -0.00000000000E+00  0.00000000000E+00  0.56184106765E+03  0.56184106765E+03  0.00000000000E+00 0. -1.
         21   -1    0    0  501  502  0.00000000000E+00 -0.00000000000E+00 -0.28355573116E+03  0.28355573116E+03  0.00000000000E+00 0.  1.
         25    1    1    2    0    0  0.89176234574E+02 -0.29849441360E+03 -0.47507642402E+02  0.33901812909E+03  0.12500000000E+03 0.  0.
         21    1    1    2  503  502  0.15063991019E+02 -0.34911188868E+02  0.38260849310E+02  0.53940777929E+02  0.00000000000E+00 0.  1.
          2    1    1    2  501    0 -0.10424022559E+03  0.33340560247E+03  0.28753212958E+03  0.45243789179E+03  0.00000000000E+00 0. -1.
<mgrwt>
<rscale>  4 0.34560266E+03</rscale>
<asrwt>0</asrwt>
<pdfrwt beam="1">  1       21 0.43623959E-01 0.34560266E+03</pdfrwt>
<pdfrwt beam="2">  1        2 0.86437087E-01 0.34560266E+03</pdfrwt>
<totfact> 0.32995071E+03</totfact>
</mgrwt>
</event>
<event>
 5    0  0.1014204E+000  0.2326198E+03  0.7546771E-02  0.1124809E+00
          2   -1    0    0  503    0 -0.00000000000E+00  0.00000000000E+00  0.26143087318E+04  0.26143087318E+04  0.00000000000E+00 0.  1.
         21   -1    0    0  501  502  0.00000000000E+00 -0.00000000000E+00 -0.33757570954E+02  0.33757570954E+02  0.00000000000E+00 0. -1.
         25    1    1    2    0    0 -0.10897373008E+03  0.17091608902E+03  0.49231419322E+03  0.54688741819E+03  0.12500000000E+03 0.  0.
         21    1    1    2  503  502 -0.18289752513E+02 -0.42122799476E+02  0.64421106011E+03  0.64584575191E+03  0.00000000000E+00 0.  1.
          2    1    1    2  501    0  0.12726348259E+03 -0.12879328954E+03  0.14440259075E+04  0.14553331327E+04  0.00000000000E+00 0.  1.
<mgrwt>
<rscale>  4 0.23261979E+03</rscale>
<asrwt>0</asrwt>
<pdfrwt beam="1">  1       21 0.51934745E-02 0.23261979E+03</pdfrwt>
<pdfrwt beam="2">  1        2 0.40220118E+00 0.23261979E+03</pdfrwt>
<totfact> 0.11255466E+04</totfact>
</mgrwt>
</event>
<event>
 5    0  0.1014204E+000  0.4142976E+03  0.7546771E-02  0.1038938E+00
          1   -1    0    0  503    0 -0.00000000000E+00  0.00000000000E+00  0.11907040346E+04  0.11907040346E+04  0.00000000000E+00 0.  1.
         21   -1    0    0  501  502  0.00000000000E+00 -0.00000000000E+00 -0.19344935180E+03  0.19344935180E+03  0.00000000000E+00 0. -1.
         25    1    1    2    0    0 -0.21619383818E+03  0.28577608701E+03  0.29660124316E+03  0.48166902020E+03  0.12500000000E+03 0.  0.
         21    1    1    2  503  502 -0.68541539976E+02  0.56183190484E+02  0.26627404734E+03  0.28063563901E+03  0.00000000000E+00 0. -1.
          1    1    1    2  501    0  0.28473537816E+03 -0.34195927750E+03  0.43437939228E+03  0.62184872717E+03  0.00000000000E+00 0.  1.
<mgrwt>
<rscale>  4 0.41429763E+03</rscale>
<asrwt>0</asrwt>
<pdfrwt beam="1">  1       21 0.29761440E-01 0.41429763E+03</pdfrwt>
<pdfrwt beam="2">  1        1 0.18318523E+00 0.41429763E+03</pdfrwt>
<totfact> 0.13065829E+03</totfact>
</mgrwt>
</event>
<event>
 5    0  0.1014204E+000  0.2356473E+03  0.7546771E-02  0.1122727E+00
          2   -1    0    0  503    0 -0.00000000000E+00  0.00000000000E+00  0.10468799270E+04  0.10468799270E+04  0.00000000000E+00 0.  1.
         21   -1    0    0  501  502  0.00000000000E+00 -0.00000000000E+00 -0.12087732032E+03  0.12087732032E+03  0.00000000000E+00 0. -1.
         25    1    1    2    0    0 -0.19314757192E+03  0.64604290428E+02  0.36896639528E+02  0.24179756179E+03  0.12500000000E+03 0.  0.
         21    1    1    2  503  502  0.12333302762E+02 -0.18160468593E+02  0.42707825954E+03  0.42764208487E+03  0.00000000000E+00 0. -1.
          2    1    1    2  501    0  0.18081426916E+03 -0.46443821835E+02  0.46202770757E+03  0.49831760061E+03  0.00000000000E+00 0.  1.
<mgrwt>
<rscale>  4 0.23564734E+03</rscale>
<asrwt>0</asrwt>
<pdfrwt beam="1">  1       21 0.18596511E-01 0.23564734E+03</pdfrwt>
<pdfrwt beam="2">  1        2 0.16105844E+00 0.23564734E+03</pdfrwt>
<totfact> 0.81586122E+03</totfact>
</mgrwt>
</event>
<event>
 5    0  0.1014204E+000  0.2343118E+03  0.7546771E-02  0.1123641E+00
         21   -1    0    0  501  502  0.00000000000E+00  0.00000000000E+00  0.99093142283E+02  0.99093142283E+02  0.00000000000E+00 0.  1.
          2   -1    0    0  503    0 -0.00000000000E+00 -0.00000000000E+00 -0.19930040112E+04  0.19930040112E+04  0.00000000000E+00 0.  1.
         25    1    1    2    0    0  0.29254318196E+02  0.21283097229E+03 -0.83722081378E+02  0.26227318736E+03  0.12500000000E+03 0.  0.
         21    1    1    2  503  502 -0.26661529178E+02 -0.15596949641E+02 -0.51097375531E+02  0.59707987425E+02  0.00000000000E+00 0.  1.
          2    1    1    2  501    0 -0.25927890181E+01 -0.19723402265E+03 -0.17590914120E+04  0.17701159787E+04  0.00000000000E+00 0.  1.
<mgrwt>
<rscale>  4 0.23431185E+03</rscale>
<asrwt>0</asrwt>
<pdfrwt beam="1">  1       21 0.15245097E-01 0.23431185E+03</pdfrwt>
<pdfrwt beam="2">  1        2 0.30661603E+00 0.23431185E+03</pdfrwt>
<totfact> 0.36230434E+03</totfact>
</mgrwt>
</event>
<event>
 5    0  0.1014204E+000  0.2910618E+03  0.7546771E-02  0.1089796E+00
         21   -1    0    0  501  502  0.00000000000E+00  0.00000000000E+00  0.46823722826E+03  0.46823722826E+03  0.00000000000E+00 0. -1.
          2   -1    0    0  503    0 -0.00000000000E+00 -0.00000000000E+00 -0.13728979716E+04  0.13728979716E+04  0.00000000000E+00 0.  1.
         25    1    1    2    0    0  0.11916628018E+02  0.26258328423E+03  0.40776100984E+03  0.50098505799E+03  0.12500000000E+03 0.  0.
         21    1    1    2  503  502 -0.30239840606E+02 -0.55162874368E+02 -0.29201702059E+03  0.29871613780E+03  0.00000000000E+00 0.  1.
          2    1    1    2  501    0  0.18323212588E+02 -0.20742040986E+03 -0.10204047326E+04  0.10414340041E+04  0.00000000000E+00 0.  1.
<mgrwt>
<rscale>  4 0.29106183E+03</rscale>
<asrwt>0</asrwt>
<pdfrwt beam="1">  1       21 0.72036497E-01 0.29106183E+03</pdfrwt>
<pdfrwt beam="2">  1        2 0.21121507E+00 0.29106183E+03</pdfrwt>
<totfact> 0.33508528E+02</totfact>
</mgrwt>
</event>
<event>
 5    0  0.1014204E+000  0.2970168E+03  0.7546771E-02  0.1086741E+00
          2   -1    0    0  503    0 -0.00000000000E+00  0.00000000000E+00  0.21047882076E+04  0.21047882076E+04  0.00000000000E+00 0. -1.
         21   -1    0    0  501  502  0.00000000000E+00 -0.00000000000E+00 -0.66117635771E+02  0.66117635771E+02  0.00000000000E+00 0. -1.
         25    1    1    2    0    0  0.10067594841E+03  0.26940932609E+03  0.67249190179E+03  0.74201576098E+03  0.12500000000E+03 0.  0.
         21    1    1    2  503  502 -0.58975429882E+01 -0.31692841365E+02  0.87004671995E+03  0.87064373432E+03  0.00000000000E+00 0. -1.
          2    1    1    2  501    0 -0.94778405426E+02 -0.23771648472E+03  0.49613195013E+03  0.55824634812E+03  0.00000000000E+00 0. -1.
<mgrwt>
<rscale>  4 0.29701683E+03</rscale>
<asrwt>0</asrwt>
<pdfrwt beam="1">  1       21 0.10171946E-01 0.29701683E+03</pdfrwt>
<pdfrwt beam="2">  1        2 0.32381352E+00 0.29701683E+03</pdfrwt>
<totfact> 0.64158209E+03</totfact>
</mgrwt>
</event>
<event>
 5    0  0.1014204E+000  0.2397124E+03  0.7546771E-02  0.1119985E+00
         -1   -1    0    0    0  501 -0.00000000000E+00  0.00000000000E+00  0.50730963701E+03  0.50730963701E+03  0.00000000000E+00 0. -1.
         21   -1    0    0  503  502  0.00000000000E+00 -0.00000000000E+00 -0.65698625744E+03  0.65698625744E+03  0.00000000000E+00 0. -1.
         25    1    1    2    0    0  0.13992795546E+03  0.15459947982E+03 -0.59934660252E+03  0.64677830965E+03  0.12500000000E+03 0.  0.
         21    1    1    2  503  501 -0.90463399790E+02  0.34041418176E+01  0.15305239950E+03  0.17782084207E+03  0.00000000000E+00 0. -1.
         -1    1    1    2    0  502 -0.49464555673E+02 -0.15800362163E+03  0.29661758259E+03  0.33969674273E+03  0.00000000000E+00 0. -1.
<mgrwt>
<rscale>  4 0.23971244E+03</rscale>
<asrwt>0</asrwt>
<pdfrwt beam="1">  1       21 0.10107481E+00 0.23971244E+03</pdfrwt>
<pdfrwt beam="2">  1       -1 0.78047637E-01 0.23971244E+03</pdfrwt>
<totfact> 0.12456622E+02</totfact>
</mgrwt>
</event>
<event>
 5    0  0.1014204E+000  0.3418069E+03  0.7546771E-02  0.1066029E+00
          2   -1    0    0  503    0 -0.00000000000E+00  0.00000000000E+00  0.14419360959E+04  0.14419360959E+04  0.00000000000E+00 0.  1.
         21   -1    0    0  501  502  0.00000000000E+00 -0.00000000000E+00 -0.29013876679E+03  0.29013876679E+03  0.00000000000E+00 0. -1.
         25    1    1    2    0    0  0.11035897191E+03  0.29527033124E+03 -0.14382655388E+03  0.36834053373E+03  0.12500000000E+03 0.  0.
         21    1    1    2  503  502  0.46416691463E+01  0.25160719483E+02  0.46971009120E+03  0.47040639523E+03  0.00000000000E+00 0.  1.
          2    1    1    2  501    0 -0.11500064106E+03 -0.32043105072E+03  0.82591379174E+03  0.89332793368E+03  0.00000000000E+00 0.  1.
<mgrwt>
<rscale>  4 0.34180691E+03</rscale>
<asrwt>0</asrwt>
<pdfrwt beam="1">  1       21 0.44636734E-01 0.34180691E+03</pdfrwt>
<pdfrwt beam="2">  1        2 0.22183632E+00 0.34180691E+03</pdfrwt>
<totfact> 0.84267903E+02</totfact>
</mgrwt>
</event>
<event>
 5    0  0.1014204E+000  0.3461422E+03  0.7546771E-02  0.1064210E+00
          2   -1    0    0  503    0 -0.00000000000E+00  0.00000000000E+00  0.63671223185E+03  0.63671223185E+03  0.00000000000E+00 0. -1.
         21   -1    0    0  501  502  0.00000000000E+00 -0.00000000000E+00 -0.23600604273E+03  0.23600604273E+03  0.00000000000E+00 0. -1.
         25    1    1    2    0    0 -0.33646282283E+03  0.22349426098E+02  0.13655812839E+03  0.38468149218E+03  0.12500000000E+03 0.  0.
         21    1    1    2  503  502  0.26696798286E+02  0.22619419262E+01  0.15710690151E+03  0.15937507308E+03  0.00000000000E+00 0. -1.
          2    1    1    2  501    0  0.30976602455E+03 -0.24611368024E+02  0.10704115923E+03  0.32866170931E+03  0.00000000000E+00 0. -1.
<mgrwt>
<rscale>  4 0.34614215E+03</rscale>
<asrwt>0</asrwt>
<pdfrwt beam="1">  1       21 0.36308622E-01 0.34614215E+03</pdfrwt>
<pdfrwt beam="2">  1        2 0.97955727E-01 0.34614215E+03</pdfrwt>
<totfact> 0.41458152E+03</totfact>
</mgrwt>
</event>
<event>
 5    0  0.1014204E+000  0.2460406E+03  0.7546771E-02  0.1115833E+00
          1   -1    0    0  503    0 -0.00000000000E+00  0.00000000000E+00  0.35487132378E+04  0.35487132378E+04  0.00000000000E+00 0. -1.
         21   -1    0    0  501  502  0.00000000000E+00 -0.00000000000E+00 -0.15943050341E+03  0.15943050341E+03  0.00000000000E+00 0. -1.
         25    1    1    2    0    0  0.15425763210E+03  0.14639673357E+03 -0.56516334087E+02  0.25307413277E+03  0.12500000000E+03 0.  0.
         21    1    1    2  503  502 -0.21651103911E+02 -0.15338112653E+02  0.83700182363E+02  0.87805173697E+02  0.00000000000E+00 0. -1.
          1    1    1    2  501    0 -0.13260652818E+03 -0.13105862091E+03  0.33620988862E+04  0.33672644348E+04  0.00000000000E+00 0. -1.
<mgrwt>
<rscale>  4 0.24604058E+03</rscale>
<asrwt>0</asrwt>
<pdfrwt beam="1">  1       21 0.24527772E-01 0.24604058E+03</pdfrwt>
<pdfrwt beam="2">  1        1 0.54595582E+00 0.24604058E+03</pdfrwt>
<totfact> 0.50359386E+01</totfact>
</mgrwt>
</event>
<event>
 5    0  0.1014204E+000  0.3127976E+03  0.7546771E-02  0.1079013E+00
          2   -1    0    0  503    0 -0.00000000000E+00  0.00000000000E+00  0.13712656958E+04  0.13712656958E+04  0.00000000000E+00 0. -1.
         21   -1    0    0  501  502  0.00000000000E+00 -0.00000000000E+00 -0.12024409546E+03  0.12024409546E+03  0.00000000000E+00 0. -1.
         25    1    1    2    0    0  0.76698963388E+02 -0.27062704454E+03  0.19337316085E+03  0.36351053294E+03  0.12500000000E+03 0.  0.
         21    1    1    2  503  502  0.54099278573E+02 -0.29849305896E+01  0.40169910561E+03  0.40533666649E+03  0.00000000000E+00 0. -1.
          2    1    1    2  501    0 -0.13079824196E+03  0.27361197513E+03  0.65594933390E+03  0.72266259186E+03  0.00000000000E+00 0. -1.
<mgrwt>
<rscale>  4 0.31279756E+03</rscale>
<asrwt>0</asrwt>
<pdfrwt beam="1">  1       21 0.18499093E-01 0.31279756E+03</pdfrwt>
<pdfrwt beam="2">  1        2 0.21096394E+00 0.31279756E+03</pdfrwt>
<totfact> 0.52630426E+03</totfact>
</mgrwt>
</event>
<event>
 5    0  0.1014204E+000  0.2864030E+03  0.7546771E-02  0.1092242E+00
         21   -1    0    0  501  502  0.00000000000E+00  0.00000000000E+00  0.26009767318E+03  0.26009767318E+03  0.00000000000E+00 0.  1.
          2   -1    0    0  503    0 -0.00000000000E+00 -0.00000000000E+00 -0.13557767578E+04  0.13557767578E+04  0.00000000000E+00 0.  1.
         25    1    1    2    0    0 -0.24400600170E+03 -0.83675446184E+02  0.15928948299E+03  0.32793085940E+03  0.12500000000E+03 0.  0.
         21    1    1    2  503  502 -0.28441279007E+01  0.21471171438E+02 -0.31217537935E+02  0.37995196291E+02  0.00000000000E+00 0.  1.
          2    1    1    2  501    0  0.24685012960E+03  0.62204274746E+02 -0.12237510296E+04  0.12499483753E+04  0.00000000000E+00 0.  1.
<mgrwt>
<rscale>  4 0.28640299E+03</rscale>
<asrwt>0</asrwt>
<pdfrwt beam="1">  1       21 0.40015029E-01 0.28640299E+03</pdfrwt>
<pdfrwt beam="2">  1        2 0.20858103E+00 0.28640299E+03</pdfrwt>
<totfact> 0.12026709E+03</totfact>
</mgrwt>
</event>
<event>
 5    0  0.1014204E+000  0.2796177E+03  0.7546771E-02  0.1095898E+00
          2   -1    0    0  503    0 -0.00000000000E+00  0.00000000000E+00  0.17164707094E+04  0.17164707094E+04  0.00000000000E+00 0. -1.
         21   -1    0    0  501  502  0.00000000000E+00 -0.00000000000E+00 -0.31377054457E+03  0.31377054457E+03  0.00000000000E+00 0.  1.
         25    1    1    2    0    0 -0.22957179254E+03  0.96261564355E+02 -0.22957062753E+03  0.36096699257E+03  0.12500000000E+03 0.  0.
         21    1    1    2  503  502  0.24523078582E+01  0.61967332673E+02  0.49171185205E+03  0.49560721300E+03  0.00000000000E+00 0.  1.
          2    1    1    2  501    0  0.22711948468E+03 -0.15822889703E+03  0.11405589403E+04  0.11736670484E+04  0.00000000000E+00 0. -1.
<mgrwt>
<rscale>  4 0.27961773E+03</rscale>
<asrwt>0</asrwt>
<pdfrwt beam="1">  1       21 0.48272392E-01 0.27961773E+03</pdfrwt>
<pdfrwt beam="2">  1        2 0.26407241E+00 0.27961773E+03</pdfrwt>
<totfact> 0.52446927E+02</totfact>
</mgrwt>
</event>
<event>
 5    0  0.1014204E+000  0.2410123E+03  0.7546771E-02  0.1119120E+00
         21   -1    0    0  501  502  0.00000000000E+00  0.00000000000E+00  0.63273101935E+02  0.63273101935E+02  0.00000000000E+00 0.  1.
          2   -1    0    0  503    0 -0.00000000000E+00 -0.00000000000E+00 -0.15222350410E+04  0.15222350410E+04  0.00000000000E+00 0. -1.
         25    1    1    2    0    0  0.19630142064E+03  0.50487781255E+02 -0.23010499026E+03  0.33114433461E+03  0.12500000000E+03 0.  0.
         21    1    1    2  503  502  0.22168602269E+02 -0.18773816309E+02 -0.10050867387E+03  0.10462263917E+03  0.00000000000E+00 0. -1.
          2    1    1    2  501    0 -0.21847002291E+03 -0.31713964946E+02 -0.11283482749E+04  0.11497411691E+04  0.00000000000E+00 0. -1.
<mgrwt>
<rscale>  4 0.24101228E+03</rscale>
<asrwt>0</asrwt>
<pdfrwt beam="1">  1       21 0.97343235E-02 0.24101228E+03</pdfrwt>
<pdfrwt beam="2">  1        2 0.23419000E+00 0.24101228E+03</pdfrwt>
<totfact> 0.14320364E+04</totfact>
</mgrwt>
</event>
<event>
 5    0  0.1014204E+000  0.4216180E+03  0.7546771E-02  0.1036541E+00
         21   -1    0    0  501  502  0.00000000000E+00  0.00000000000E+00  0.10891935589E+04  0.10891935589E+04  0.00000000000E+00 0. -1.
          2   -1    0    0  503    0 -0.00000000000E+00 -0.00000000000E+00 -0.33845586957E+03  0.33845586957E+03  0.00000000000E+00 0. -1.
         25    1    1    2    0    0  0.40194701471E+03 -0.43522858166E+02  0.84124919342E+03  0.94169042006E+03  0.12500000000E+03 0.  0.
         21    1    1    2  503  502 -0.15907159332E+02 -0.58705156260E+02 -0.60020502054E+02  0.85450533973E+02  0.00000000000E+00 0. -1.
          2    1    1    2  501    0 -0.38603985537E+03  0.10222801443E+03 -0.30491002050E+02  0.40050847441E+03  0.00000000000E+00 0. -1.
<mgrwt>
<rscale>  4 0.42161798E+03</rscale>
<asrwt>0</asrwt>
<pdfrwt beam="1">  1       21 0.16756824E+00 0.42161798E+03</pdfrwt>
<pdfrwt beam="2">  1        2 0.52070134E-01 0.42161798E+03</pdfrwt>
<totfact> 0.23508685E+02</totfact>
</mgrwt>
</event>
<event>
 5    0  0.1014204E+000  0.2431517E+03  0.7546771E-02  0.1117711E+00
          2   -1    0    0  503    0 -0.00000000000E+00  0.00000000000E+00  0.15254722512E+04  0.15254722512E+04  0.00000000000E+00 0. -1.
         21   -1    0    0  501  502  0.00000000000E+00 -0.00000000000E+00 -0.46797577451E+02  0.46797577451E+02  0.00000000000E+00 0. -1.
         25    1    1    2    0    0 -0.21343370503E+03  0.15292034279E+02  0.48225646825E+03  0.54220300066E+03  0.12500000000E+03 0.  0.
         21    1    1    2  503  502  0.10953770682E+02 -0.23032947807E+02  0.38711626980E+03  0.38795554916E+03  0.00000000000E+00 0. -1.
          2    1    1    2  501    0  0.20247993435E+03  0.77409135276E+01  0.60930193566E+03  0.64211127880E+03  0.00000000000E+00 0. -1.
<mgrwt>
<rscale>  4 0.24315168E+03</rscale>
<asrwt>0</asrwt>
<pdfrwt beam="1">  1       21 0.71996285E-02 0.24315168E+03</pdfrwt>
<pdfrwt beam="2">  1        2 0.23468800E+00 0.24315168E+03</pdfrwt>
<totfact> 0.24204871E+04</totfact>
</mgrwt>
</event>
<event>
 5    0  0.1014204E+000  0.3008467E+03  0.7546771E-02  0.1084818E+00
          1   -1    0    0  503    0 -0.00000000000E+00  0.00000000000E+00  0.24208646253E+04  0.24208646253E+04  0.00000000000E+00 0.  1.
         21   -1    0    0  501  502  0.00000000000E+00 -0.00000000000E+00 -0.78439998316E+03  0.78439998316E+03  0.00000000000E+00 0. -1.
         25    1    1    2    0    0 -0.26640404153E+03 -0.62500879493E+02 -0.74089146277E+03  0.79963906414E+03  0.12500000000E+03 0.  0.
         21    1    1    2  503  502  0.78836695130E+01 -0.37496957489E+02  0.56450656614E+02  0.68226466258E+02  0.00000000000E+00 0. -1.
          1    1    1    2  501    0  0.25852037202E+03  0.99997836981E+02  0.23209054483E+04  0.23373990780E+04  0.00000000000E+00 0.  1.
<mgrwt>
<rscale>  4 0.30084674E+03</rscale>
<asrwt>0</asrwt>
<pdfrwt beam="1">  1       21 0.12067692E+00 0.30084674E+03</pdfrwt>
<pdfrwt beam="2">  1        1 0.37244071E+00 0.30084674E+03</pdfrwt>
<totfact> 0.96123073E+00</totfact>
</mgrwt>
</event>
<event>
 5    0  0.1014204E+000  0.2957869E+03  0.7546771E-02  0.1087366E+00
          2   -1    0    0  503    0 -0.00000000000E+00  0.00000000000E+00  0.98876644991E+03  0.98876644991E+03  0.00000000000E+00 0.  1.
         21   -1    0    0  501  502  0.00000000000E+00 -0.00000000000E+00 -0.32872983522E+03  0.32872983522E+03  0.00000000000E+00 0. -1.
         25    1    1    2    0    0 -0.26830026237E+03  0.29128376480E+02 -0.23408030470E+03  0.37848656800E+03  0.12500000000E+03 0.  0.
         21    1    1    2  503  502  0.25587371621E+02  0.19246316973E+02  0.50106688935E+02  0.59462715877E+02  0.00000000000E+00 0.  1.
          2    1    1    2  501    0  0.24271289075E+03 -0.48374693454E+02  0.84401023045E+03  0.87954700125E+03  0.00000000000E+00 0.  1.
<mgrwt>
<rscale>  4 0.29578685E+03</rscale>
<asrwt>0</asrwt>
<pdfrwt beam="1">  1       21 0.50573821E-01 0.29578685E+03</pdfrwt>
<pdfrwt beam="2">  1        2 0.15211791E+00 0.29578685E+03</pdfrwt>
<totfact> 0.12027359E+03</totfact>
</mgrwt>
</event>
<event>
 5    0  0.1014204E+000  0.4029217E+03  0.7546771E-02  0.1042773E+00
          2   -1    0    0  503    0 -0.00000000000E+00  0.00000000000E+00  0.16183074248E+04  0.16183074248E+04  0.00000000000E+00 0.  1.
         21   -1    0    0  501  502  0.00000000000E+00 -0.00000000000E+00 -0.43868768431E+03  0.43868768431E+03  0.00000000000E+00 0.  1.
         25    1    1    2    0    0 -0.13628356218E+03 -0.37625130272E+03 -0.27328664208E+03  0.50044863958E+03  0.12500000000E+03 0.  0.
         21    1    1    2  503  502 -0.90739705311E+02  0.22684045059E+03  0.39639276408E+03  0.46563666905E+03  0.00000000000E+00 0.  1.
          2    1    1    2  501    0  0.22702326749E+03  0.14941085213E+03  0.10565136185E+04  0.10909098005E+04  0.00000000000E+00 0.  1.
<mgrwt>
<rscale>  4 0.40292171E+03</rscale>
<asrwt>0</asrwt>
<pdfrwt beam="1">  1       21 0.67490414E-01 0.40292171E+03</pdfrwt>
<pdfrwt beam="2">  1        2 0.24897037E+00 0.40292171E+03</pdfrwt>
<totfact> 0.27149128E+02</totfact>
</mgrwt>
</event>
<event>
 5    0  0.1014204E+000  0.2724229E+03  0.7546771E-02  0.1099901E+00
         21   -1    0    0  501  502  0.00000000000E+00  0.00000000000E+00  0.36060098334E+03  0.36060098334E+03  0.00000000000E+00 0. -1.
          2   -1    0    0  503    0 -0.00000000000E+00 -0.00000000000E+00 -0.44577811107E+03  0.44577811107E+03  0.00000000000E+00 0. -1.
         25    1    1    2    0    0 -0.22132747348E+03  0.89501164395E+02  0.24163430920E+03  0.36195089215E+03  0.12500000000E+03 0.  0.
         21    1    1    2  503  502 -0.91494377110E+01  0.36418037564E+02 -0.29665951203E+02  0.47854512131E+02  0.00000000000E+00 0.  1.
          2    1    1    2  501    0  0.23047691120E+03 -0.12591920196E+03 -0.29714548572E+03  0.39657369013E+03  0.00000000000E+00 0. -1.
<mgrwt>
<rscale>  4 0.27242289E+03</rscale>
<asrwt>0</asrwt>
<pdfrwt beam="1">  1       21 0.55477075E-01 0.27242289E+03</pdfrwt>
<pdfrwt beam="2">  1        2 0.68581247E-01 0.27242289E+03</pdfrwt>
<totfact> 0.26344795E+03</totfact>
</mgrwt>
</event>
<event>
 5    0  0.1014204E+000  0.2488605E+03  0.7546771E-02  0.1114027E+00
          1   -1    0    0  503    0 -0.00000000000E+00  0.00000000000E+00  0.63286455474E+03  0.63286455474E+03  0.00000000000E+00 0. -1.
         21   -1    0    0  501  502  0.00000000000E+00 -0.00000000000E+00 -0.19138601199E+03  0.19138601199E+03  0.00000000000E+00 0. -1.
         25    1    1    2    0    0  0.45347383995E+02  0.21743358690E+03 -0.54822035654E+02  0.26069945444E+03  0.12500000000E+03 0.  0.
         21    1    1    2  503  502 -0.26278172020E+02 -0.38879912678E+01  0.43570120825E+01  0.26919181917E+02  0.00000000000E+00 0.  1.
          1    1    1    2  501    0 -0.19069211975E+02 -0.21354559564E+03  0.49194356631E+03  0.53663193038E+03  0.00000000000E+00 0. -1.
<mgrwt>
<rscale>  4 0.24886053E+03</rscale>
<asrwt>0</asrwt>
<pdfrwt beam="1">  1       21 0.29444002E-01 0.24886053E+03</pdfrwt>
<pdfrwt beam="2">  1        1 0.97363776E-01 0.24886053E+03</pdfrwt>
<totfact> 0.39315195E+03</totfact>
</mgrwt>
</event>
<event>
 5    0  0.1014204E+000  0.3694685E+03  0.7546771E-02  0.1054896E+00
         21   -1    0    0  501  502  0.00000000000E+00  0.00000000000E+00  0.40036200529E+03  0.40036200529E+03  0.00000000000E+00 0. -1.
          2   -1    0    0  503    0 -0.00000000000E+00 -0.00000000000E+00 -0.15840049974E+04  0.15840049974E+04  0.00000000000E+00 0.  1.
         25    1    1    2    0    0  0.14523209946E+03 -0.31733632140E+03  0.28761427247E+03  0.46919257595E+03  0.12500000000E+03 0.  0.
         21    1    1    2  503  502 -0.13365725855E+02  0.18458576345E+02 -0.31853831735E+02  0.39166672881E+02  0.00000000000E+00 0. -1.
          2    1    1    2  501    0 -0.13186637361E+03  0.29887774506E+03 -0.14394034328E+04  0.14760077538E+04  0.00000000000E+00 0.  1.
<mgrwt>
<rscale>  4 0.36946854E+03</rscale>
<asrwt>0</asrwt>
<pdfrwt beam="1">  1       21 0.61594155E-01 0.36946854E+03</pdfrwt>
<pdfrwt beam="2">  1        2 0.24369307E+00 0.36946854E+03</pdfrwt>
<totfact> 0.35138821E+02</totfact>
</mgrwt>
</event>
<event>
 5    0  0.1014204E+000  0.2846134E+03  0.7546771E-02  0.1093196E+00
         21   -1    0    0  501  502  0.00000000000E+00  0.00000000000E+00  0.24959826739E+03  0.24959826739E+03  0.00000000000E+00 0. -1.
          2   -1    0    0  503    0 -0.00000000000E+00 -0.00000000000E+00 -0.24864113458E+04  0.24864113458E+04  0.00000000000E+00 0. -1.
         25    1    1    2    0    0  0.67927551641E+02 -0.24679280851E+03  0.15739751761E+03  0.32545325495E+03  0.12500000000E+03 0.  0.
         21    1    1    2  503  502  0.18423387192E+02  0.12140636605E+02 -0.41937448805E+03  0.41995449453E+03  0.00000000000E+00 0.  1.
          2    1    1    2  501    0 -0.86350938834E+02  0.23465217191E+03 -0.19748361080E+04  0.19906018637E+04  0.00000000000E+00 0. -1.
<mgrwt>
<rscale>  4 0.28461337E+03</rscale>
<asrwt>0</asrwt>
<pdfrwt beam="1">  1       21 0.38399735E-01 0.28461337E+03</pdfrwt>
<pdfrwt beam="2">  1        2 0.38252480E+00 0.28461337E+03</pdfrwt>
<totfact> 0.32606840E+02</totfact>
</mgrwt>
</event>
<event>
 5    0  0.1014204E+000  0.2394065E+03  0.7546771E-02  0.1120189E+00
          2   -1    0    0  503    0 -0.00000000000E+00  0.00000000000E+00  0.20416900925E+04  0.20416900925E+04  0.00000000000E+00 0. -1.
         21   -1    0    0  501  502  0.00000000000E+00 -0.00000000000E+00 -0.91159177075E+02  0.91159177075E+02  0.00000000000E+00 0.  1.
         25    1    1    2    0    0  0.20385303209E+03  0.23249727236E+02  0.90116280580E+02  0.25659803689E+03  0.12500000000E+03 0.  0.
         21    1    1    2  503  502 -0.14071127167E+02  0.22565192506E+02  0.64660471774E+02  0.69915385593E+02  0.00000000000E+00 0.  1.
          2    1    1    2  501    0 -0.18978190492E+03 -0.45814919742E+02  0.17957541631E+04  0.18063358471E+04  0.00000000000E+00 0. -1.
<mgrwt>
<rscale>  4 0.23940651E+03</rscale>
<asrwt>0</asrwt>
<pdfrwt beam="1">  1       21 0.14024490E-01 0.23940651E+03</pdfrwt>
<pdfrwt beam="2">  1        2 0.31410613E+00 0.23940651E+03</pdfrwt>
<totfact> 0.39694916E+03</totfact>
</mgrwt>
</event>
<event>
 5    0  0.1014204E+000  0.3271310E+03  0.7546771E-02  0.1072413E+00
          4   -1    0    0  503    0 -0.00000000000E+00  0.00000000000E+00  0.33326682910E+03  0.33326682910E+03  0.00000000000E+00 0. -1.
         21   -1    0    0  501  502  0.00000000000E+00 -0.00000000000E+00 -0.53050834866E+03  0.53050834866E+03  0.00000000000E+00 0. -1.
         25    1    1    2    0    0  0.23230926671E+03 -0.14087986411E+03 -0.16430511400E+03  0.34122705344E+03  0.12500000000E+03 0.  0.
         21    1    1    2  503  502 -0.68387615043E+02 -0.14908156063E+03 -0.86099240835E+02  0.18524377691E+03  0.00000000000E+00 0. -1.
          4    1    1    2  501    0 -0.16392165166E+03  0.28996142474E+03  0.53162835277E+02  0.33730434740E+03  0.00000000000E+00 0. -1.
<mgrwt>
<rscale>  4 0.32713101E+03</rscale>
<asrwt>0</asrwt>
<pdfrwt beam="1">  1       21 0.81616669E-01 0.32713101E+03</pdfrwt>
<pdfrwt beam="2">  1        4 0.51271820E-01 0.32713101E+03</pdfrwt>
<totfact> 0.19897252E+02</totfact>
</mgrwt>
</event>
<event>
 5    0  0.1014204E+000  0.2779885E+03  0.7546771E-02  0.1096793E+00
          2   -1    0    0  503    0 -0.00000000000E+00  0.00000000000E+00  0.44231569459E+03  0.44231569459E+03  0.00000000000E+00 0.  1.
         21   -1    0    0  501  502  0.00000000000E+00 -0.00000000000E+00 -0.43441495636E+03  0.43441495636E+03  0.00000000000E+00 0.  1.
         25    1    1    2    0    0 -0.13535391784E+03  0.26273020548E+03  0.17936813185E+03  0.36762177665E+03  0.12500000000E+03 0.  0.
         21    1    1    2  503  502  0.17914798977E+02 -0.52479957394E+02  0.11930132293E+03  0.13155946033E+03  0.00000000000E+00 0. -1.
          2    1    1    2  501    0  0.11743911886E+03 -0.21025024809E+03 -0.29076871656E+03  0.37754941397E+03  0.00000000000E+00 0.  1.
<mgrwt>
<rscale>  4 0.27798854E+03</rscale>
<asrwt>0</asrwt>
<pdfrwt beam="1">  1       21 0.66833070E-01 0.27798854E+03</pdfrwt>
<pdfrwt beam="2">  1        2 0.68048568E-01 0.27798854E+03</pdfrwt>
<totfact> 0.17701411E+03</totfact>
</mgrwt>
</event>
