<event>
 5    0  0.1856407E+000  0.3726527E+03  0.7546771E-02  0.1053683E+00
         21   -1    0    0  502  501  0.00000000000E+00  0.00000000000E+00  0.89753964980E+03  0.89753964980E+03  0.00000000000E+00 0. -1.
         21   -1    0    0  503  502 -0.00000000000E+00 -0.00000000000E+00 -0.16322479508E+03  0.16322479508E+03  0.00000000000E+00 0. -1.
         25    1    1    2    0    0  0.26998561892E+03  0.22439422134E+03  0.23376405981E+03  0.43990412211E+03  0.12500000000E+03 0.  0.
         21    1    1    2  503  504 -0.47603909559E+02 -0.55851195858E+02  0.43340817965E+02  0.85228603098E+02  0.00000000000E+00 0. -1.
         21    1    1    2  504  501 -0.22238170936E+03 -0.16854302548E+03  0.45720997694E+03  0.53563171967E+03  0.00000000000E+00 0. -1.
<mgrwt>
<rscale>  4 0.37265265E+03</rscale>
<asrwt>0</asrwt>
<pdfrwt beam="1">  1       21 0.13808302E+00 0.37265265E+03</pdfrwt>
<pdfrwt beam="2">  1       21 0.25111508E-01 0.37265265E+03</pdfrwt>
<totfact> 0.50074960E+03</totfact>
</mgrwt>
</event>
<event>
 5    0  0.1856407E+000  0.3408391E+03  0.7546771E-02  0.1066439E+00
         21   -1    0    0  502  501  0.00000000000E+00  0.00000000000E+00  0.29053970069E+03  0.29053970069E+03  0.00000000000E+00 0.  1.
         21   -1    0    0  503  502 -0.00000000000E+00 -0.00000000000E+00 -0.66913256151E+03  0.66913256151E+03  0.00000000000E+00 0.  1.
         25    1    1    2    0    0 -0.24951739476E+03 -0.19567150043E+03  0.12230526508E+03  0.36211854998E+03  0.12500000000E+03 0.  0.
         21    1    1    2  503  504  0.19503019326E+03  0.16461966814E+03 -0.34203896161E+03  0.42676347393E+03  0.00000000000E+00 0.  1.
         21    1    1    2  504  501  0.54487201506E+02  0.31051832287E+02 -0.15885916429E+03  0.17079023829E+03  0.00000000000E+00 0.  1.
<mgrwt>
<rscale>  4 0.34083906E+03</rscale>
<asrwt>0</asrwt>
<pdfrwt beam="1">  1       21 0.44698416E-01 0.34083906E+03</pdfrwt>
<pdfrwt beam="2">  1       21 0.10294347E+00 0.34083906E+03</pdfrwt>
<totfact> 0.33499145E+03</totfact>
</mgrwt>
</event>
<event>
 5    0  0.1856407E+000  0.2525419E+03  0.7546771E-02  0.1111709E+00
         21   -1    0    0  502  501  0.00000000000E+00  0.00000000000E+00  0.87759460454E+02  0.87759460454E+02  0.00000000000E+00 0.  1.
         21   -1    0    0  503  502 -0.00000000000E+00 -0.00000000000E+00 -0.15235217546E+04  0.15235217546E+04  0.00000000000E+00 0.  1.
         25    1    1    2    0    0 -0.73717452332E+02 -0.22411179389E+03 -0.24802691734E+03  0.36442106233E+03  0.12500000000E+03 0.  0.
         21    1    1    2  503  504  0.88651265180E+02  0.17239255531E+02 -0.81760291837E+03  0.82257569310E+03  0.00000000000E+00 0.  1.
         21    1    1    2  504  501 -0.14933812848E+02  0.20687253836E+03 -0.37013245842E+03  0.42428445962E+03  0.00000000000E+00 0.  1.
<mgrwt>
<rscale>  4 0.25254185E+03</rscale>
<asrwt>0</asrwt>
<pdfrwt beam="1">  1       21 0.13501455E-01 0.25254185E+03</pdfrwt>
<pdfrwt beam="2">  1       21 0.23438797E+00 0.25254185E+03</pdfrwt>
<totfact> 0.36985521E+03</totfact>
</mgrwt>
</event>
<event>
 5    0  0.3149268E+000  0.2449677E+03  0.7546771E-02  0.1116527E+00
         21   -1    0    0  502  501  0.00000000000E+00  0.00000000000E+00  0.14312718192E+04  0.14312718192E+04  0.00000000000E+00 0.  1.
         21   -1    0    0  503  502 -0.00000000000E+00 -0.00000000000E+00 -0.40469723410E+02  0.40469723410E+02  0.00000000000E+00 0.  1.
         25    1    1    2    0    0  0.29475124927E+02  0.20860338283E+03  0.53366488507E+03  0.58720300056E+03  0.12500000000E+03 0.  0.
         21    1    1    2  503  504 -0.16319649007E+02 -0.14860681749E+02  0.55770558706E+02  0.59979379991E+02  0.00000000000E+00 0.  1.
         21    1    1    2  504  501 -0.13155475920E+02 -0.19374270108E+03  0.80136665204E+03  0.82455916208E+03  0.00000000000E+00 0.  1.
<mgrwt>
<rscale>  4 0.24496766E+03</rscale>
<asrwt>0</asrwt>
<pdfrwt beam="1">  1       21 0.22019563E+00 0.24496766E+03</pdfrwt>
<pdfrwt beam="2">  1       21 0.62261124E-02 0.24496766E+03</pdfrwt>
<totfact> 0.17858343E+04</totfact>
</mgrwt>
</event>
<event>
 5    0  0.1856407E+000  0.3978241E+03  0.7546771E-02  0.1044536E+00
         21   -1    0    0  502  501  0.00000000000E+00  0.00000000000E+00  0.40233930807E+03  0.40233930807E+03  0.00000000000E+00 0.  1.
         21   -1    0    0  503  502 -0.00000000000E+00 -0.00000000000E+00 -0.51225121465E+03  0.51225121465E+03  0.00000000000E+00 0.  1.
         25    1    1    2    0    0  0.35663623338E+03  0.19623977224E+03 -0.21290096550E+03  0.47607906096E+03  0.12500000000E+03 0.  0.
         21    1    1    2  503  504 -0.33912770389E+02 -0.22209119926E+02 -0.27879710927E+02  0.49199586225E+02  0.00000000000E+00 0.  1.
         21    1    1    2  504  501 -0.32272346299E+03 -0.17403065232E+03  0.13086876985E+03  0.38931187554E+03  0.00000000000E+00 0.  1.
<mgrwt>
<rscale>  4 0.39782411E+03</rscale>
<asrwt>0</asrwt>
<pdfrwt beam="1">  1       21 0.61898355E-01 0.39782411E+03</pdfrwt>
<pdfrwt beam="2">  1       21 0.78807879E-01 0.39782411E+03</pdfrwt>
<totfact> 0.30616857E+03</totfact>
</mgrwt>
</event>
<event>
 5    0  0.4018383E+000  0.2359809E+03  0.7546771E-02  0.1122500E+00
         21   -1    0    0  502  501  0.00000000000E+00  0.00000000000E+00  0.55070272734E+03  0.55070272734E+03  0.00000000000E+00 0.  1.
         21   -1    0    0  503  502 -0.00000000000E+00 -0.00000000000E+00 -0.10731984835E+03  0.10731984835E+03  0.00000000000E+00 0.  1.
         25    1    1    2    0    0 -0.20598037273E+03 -0.63597785203E+01  0.21781420301E+03  0.32486364489E+03  0.12500000000E+03 0.  0.
         21    1    1    2  503  504  0.19397457104E+03 -0.38440801288E+02  0.16998444357E+03  0.26076529767E+03  0.00000000000E+00 0.  1.
         21    1    1    2  504  501  0.12005801689E+02  0.44800579809E+02  0.55584232409E+02  0.72393633131E+02  0.00000000000E+00 0. -1.
<mgrwt>
<rscale>  4 0.23598086E+03</rscale>
<asrwt>0</asrwt>
<pdfrwt beam="1">  1       21 0.84723495E-01 0.23598086E+03</pdfrwt>
<pdfrwt beam="2">  1       21 0.16510746E-01 0.23598086E+03</pdfrwt>
<totfact> 0.38886955E+04</totfact>
</mgrwt>
</event>
<event>
 5    0  0.1856407E+000  0.2210628E+03  0.7546771E-02  0.1133093E+00
         21   -1    0    0  502  501  0.00000000000E+00  0.00000000000E+00  0.23502576581E+03  0.23502576581E+03  0.00000000000E+00 0.  1.
         21   -1    0    0  503  502 -0.00000000000E+00 -0.00000000000E+00 -0.45532473271E+03  0.45532473271E+03  0.00000000000E+00 0.  1.
         25    1    1    2    0    0 -0.49658843641E+02 -0.19436334373E+03  0.11583312425E+03  0.26322124309E+03  0.12500000000E+03 0.  0.
         21    1    1    2  503  504  0.98042746889E+01  0.18029469060E+03 -0.33970882213E+03  0.38471337784E+03  0.00000000000E+00 0.  1.
         21    1    1    2  504  501  0.39854568952E+02  0.14068653135E+02  0.35767309752E+01  0.42415877591E+02  0.00000000000E+00 0.  1.
<mgrwt>
<rscale>  4 0.22106276E+03</rscale>
<asrwt>0</asrwt>
<pdfrwt beam="1">  1       21 0.36157810E-01 0.22106276E+03</pdfrwt>
<pdfrwt beam="2">  1       21 0.70049959E-01 0.22106276E+03</pdfrwt>
<totfact> 0.13402989E+04</totfact>
</mgrwt>
</event>
<event>
 5    0  0.1856407E+000  0.2427473E+03  0.7546771E-02  0.1117976E+00
         21   -1    0    0  502  501  0.00000000000E+00  0.00000000000E+00  0.13994211865E+04  0.13994211865E+04  0.00000000000E+00 0.  1.
         21   -1    0    0  503  502 -0.00000000000E+00 -0.00000000000E+00 -0.55941459858E+02  0.55941459858E+02  0.00000000000E+00 0.  1.
         25    1    1    2    0    0 -0.20349330330E+03 -0.97157745064E+02  0.91934212447E+03  0.95481102515E+03  0.12500000000E+03 0.  0.
         21    1    1    2  503  504  0.16254202685E+02  0.75535673335E+02  0.11814978146E+03  0.14117084653E+03  0.00000000000E+00 0.  1.
         21    1    1    2  504  501  0.18723910062E+03  0.21622071730E+02  0.30598782071E+03  0.35938077468E+03  0.00000000000E+00 0.  1.
<mgrwt>
<rscale>  4 0.24274725E+03</rscale>
<asrwt>0</asrwt>
<pdfrwt beam="1">  1       21 0.21529554E+00 0.24274725E+03</pdfrwt>
<pdfrwt beam="2">  1       21 0.86063795E-02 0.24274725E+03</pdfrwt>
<totfact> 0.10921630E+04</totfact>
</mgrwt>
</event>
<event>
 5    0  0.2361777E+000  0.3147460E+03  0.7546771E-02  0.1078093E+00
         21   -1    0    0  502  501  0.00000000000E+00  0.00000000000E+00  0.14142209515E+03  0.14142209515E+03  0.00000000000E+00 0. -1.
         21   -1    0    0  503  502 -0.00000000000E+00 -0.00000000000E+00 -0.88206696050E+03  0.88206696050E+03  0.00000000000E+00 0. -1.
         25    1    1    2    0    0 -0.27546613021E+02 -0.28754348028E+03 -0.12243649251E+03  0.33772142905E+03  0.12500000000E+03 0.  0.
         21    1    1    2  503  504  0.43081248158E+02  0.25072072866E+03 -0.56096346471E+03  0.61595201636E+03  0.00000000000E+00 0. -1.
         21    1    1    2  504  501 -0.15534635137E+02  0.36822751623E+02 -0.57244908129E+02  0.69815610236E+02  0.00000000000E+00 0. -1.
<mgrwt>
<rscale>  4 0.31474604E+03</rscale>
<asrwt>0</asrwt>
<pdfrwt beam="1">  1       21 0.21757245E-01 0.31474604E+03</pdfrwt>
<pdfrwt beam="2">  1       21 0.13570261E+00 0.31474604E+03</pdfrwt>
<totfact> 0.70863048E+03</totfact>
</mgrwt>
</event>
<event>
 5    0  0.1856407E+000  0.2961562E+03  0.7546771E-02  0.1087178E+00
         21   -1    0    0  502  501  0.00000000000E+00  0.00000000000E+00  0.14561861861E+04  0.14561861861E+04  0.00000000000E+00 0. -1.
         21   -1    0    0  503  502 -0.00000000000E+00 -0.00000000000E+00 -0.18136897937E+03  0.18136897937E+03  0.00000000000E+00 0.  1.
         25    1    1    2    0    0 -0.21175080963E+03 -0.16387222525E+03  0.12706817203E+04  0.13045878835E+04  0.12500000000E+03 0.  0.
         21    1    1    2  503  504  0.26240681614E+02 -0.44459012429E+02  0.15126508083E+02  0.53795802853E+02  0.00000000000E+00 0.  1.
         21    1    1    2  504  501  0.18551012801E+03  0.20833123768E+03 -0.10991021624E+02  0.27917147910E+03  0.00000000000E+00 0.  1.
<mgrwt>
<rscale>  4 0.29615622E+03</rscale>
<asrwt>0</asrwt>
<pdfrwt beam="1">  1       21 0.22402864E+00 0.29615622E+03</pdfrwt>
<pdfrwt beam="2">  1       21 0.27902921E-01 0.29615622E+03</pdfrwt>
<totfact> 0.10578851E+03</totfact>
</mgrwt>
</event>
<event>
 5    0  0.1856407E+000  0.3706768E+03  0.7546771E-02  0.1054434E+00
         21   -1    0    0  502  501  0.00000000000E+00  0.00000000000E+00  0.38364184113E+03  0.38364184113E+03  0.00000000000E+00 0. -1.
         21   -1    0    0  503  502 -0.00000000000E+00 -0.00000000000E+00 -0.36067177165E+03  0.36067177165E+03  0.00000000000E+00 0. -1.
         25    1    1    2    0    0 -0.34759998232E+03  0.30831444521E+02  0.70213064947E+02  0.37726807468E+03  0.12500000000E+03 0.  0.
         21    1    1    2  503  504  0.14179456946E+03  0.97765520507E+01  0.26708110577E+02  0.14461882336E+03  0.00000000000E+00 0. -1.
         21    1    1    2  504  501  0.20580541286E+03 -0.40607996571E+02 -0.73951106040E+02  0.22242671474E+03  0.00000000000E+00 0. -1.
<mgrwt>
<rscale>  4 0.37067685E+03</rscale>
<asrwt>0</asrwt>
<pdfrwt beam="1">  1       21 0.59021822E-01 0.37067685E+03</pdfrwt>
<pdfrwt beam="2">  1       21 0.55487965E-01 0.37067685E+03</pdfrwt>
<totfact> 0.74879888E+03</totfact>
</mgrwt>
</event>
<event>
 5    0  0.1995233E+000  0.2387040E+03  0.7546771E-02  0.1120659E+00
         21   -1    0    0  502  501  0.00000000000E+00  0.00000000000E+00  0.15093921643E+03  0.15093921643E+03  0.00000000000E+00 0.  1.
         21   -1    0    0  503  502 -0.00000000000E+00 -0.00000000000E+00 -0.45522760810E+03  0.45522760810E+03  0.00000000000E+00 0.  1.
         25    1    1    2    0    0  0.94550333228E+02  0.19053549494E+03 -0.48741926091E+02  0.25148422556E+03  0.12500000000E+03 0.  0.
         21    1    1    2  503  504  0.69740043026E+01 -0.27709024483E+02 -0.11053002783E+03  0.11416353983E+03  0.00000000000E+00 0.  1.
         21    1    1    2  504  501 -0.10152433753E+03 -0.16282647046E+03 -0.14501643775E+03  0.24051905914E+03  0.00000000000E+00 0.  1.
<mgrwt>
<rscale>  4 0.23870404E+03</rscale>
<asrwt>0</asrwt>
<pdfrwt beam="1">  1       21 0.23221418E-01 0.23870404E+03</pdfrwt>
<pdfrwt beam="2">  1       21 0.70035016E-01 0.23870404E+03</pdfrwt>
<totfact> 0.31506644E+04</totfact>
</mgrwt>
</event>
