<LesHouchesEvents version="3.0">
  <!--
  <scalesfunctionalform>
    muR  H_T/2 := sum_i mT(i)/2, i=final state
    muF1 H_T/2 := sum_i mT(i)/2, i=final state
    muF2 H_T/2 := sum_i mT(i)/2, i=final state
    QES  H_T/2 := sum_i mT(i)/2, i=final state
  </scalesfunctionalform>
HERWIG6   
  -->
  <header>
       21
  </header>
  <init>
   2212   2212 0.65000000D+04 0.65000000D+04 -1 -1   247000   247000 -3   1
 0.40575306D-02 0.69021171D-04 0.44233958D-03     66
  </init>
  <event>
  5     66 0.44233958E-03 0.12268588E+03 0.75467711E-02 0.11101708E+00
       -1 -1    0    0    0  501 0.00000000E+00 0.00000000E+00 0.30500322E+03 0.30500339E+03 0.32000000E+00 0.0000E+00 0.9000E+01
       21 -1    0    0  501  502 0.00000000E+00 0.00000000E+00 -.20137693E+03 0.20137833E+03 0.75000000E+00 0.0000E+00 0.9000E+01
       25  1    1    2    0    0 0.21010228E+02 -.14818599E+03 0.30848347E+02 0.19742628E+03 0.12500000E+03 0.0000E+00 0.9000E+01
       23  1    1    2    0    0 0.94057868E+02 0.39959455E+02 0.49805964E+01 0.13705363E+03 0.91188000E+02 0.0000E+00 0.9000E+01
       -1  1    1    2    0  502 -.11506810E+03 0.10822653E+03 0.67797344E+02 0.17190181E+03 0.32000000E+00 0.0000E+00 0.9000E+01
#aMCatNLO 1  0  0  2  1 0.19774548D+02 0.00000000D+00  -5  6  0 0.00000000D+00 0.00000000D+00 0.00000000D+00 0.00000000D+00 0.00000000D+00
  <mgrwgt>
 0.8238997917D-02   32    4    0
 0.247832624277602D+03 0.000000000000000D+00 0.000000000000000D+00 0.247832624277602D+03
 0.247832624277602D+03 0.000000000000000D+00 0.000000000000000D+00 -.247832624277602D+03
 0.195245474992640D+03 0.210103166883934D+02 -.148186069043272D+03 -.975966389060146D+01
 0.138975544730451D+03 0.940579316744981D+02 0.399593951612151D+02 -.235648661483736D+02
 0.161444228832113D+03 -.115068248362891D+03 0.108226673882057D+03 0.333245300389751D+02
 0.000000000000000D+00 0.000000000000000D+00 0.000000000000000D+00 -.000000000000000D+00
 0.253970422810423D+03 0.000000000000000D+00 0.000000000000000D+00 0.253970422810423D+03
 0.264485576010987D+03 0.000000000000000D+00 0.000000000000000D+00 -.264485576010987D+03
 0.199450318555591D+03 0.160333210663911D+02 -.154282569165318D+03 -.975966389060146D+01
 0.135478147474873D+03 0.905971529003728D+02 0.357201633391988D+02 -.235648661483736D+02
 0.161131078136899D+03 -.119135826271736D+03 0.103244152075513D+03 0.333245300389751D+02
 0.223964546540473D+02 0.125053523049727D+02 0.153182537506067D+02 -.105151532005642D+02
 0.247832624277602D+03 0.000000000000000D+00 0.000000000000000D+00 0.247832624277602D+03
 0.247832624277602D+03 0.000000000000000D+00 0.000000000000000D+00 -.247832624277602D+03
 0.195245474992640D+03 0.210103166883934D+02 -.148186069043272D+03 -.975966389060146D+01
 0.138975544730451D+03 0.940579316744981D+02 0.399593951612151D+02 -.235648661483736D+02
 0.000000000000000D+00 0.000000000000000D+00 0.000000000000000D+00 -.000000000000000D+00
 0.161444228832113D+03 -.115068248362891D+03 0.108226673882057D+03 0.333245300389751D+02
 0.253970422810423D+03 0.000000000000000D+00 0.000000000000000D+00 0.253970422810423D+03
 0.264485576010987D+03 0.000000000000000D+00 0.000000000000000D+00 -.264485576010987D+03
 0.199450318555591D+03 0.160333210663911D+02 -.154282569165318D+03 -.975966389060146D+01
 0.135478147474873D+03 0.905971529003728D+02 0.357201633391988D+02 -.235648661483736D+02
 0.223964546540473D+02 0.125053523049727D+02 0.153182537506067D+02 -.105151532005642D+02
 0.161131078136899D+03 -.119135826271736D+03 0.103244152075513D+03 0.333245300389751D+02
0.180319837586D-05 0.000000000000D+00 0.000000000000D+00 0.707513396161D-07 0.000000000000D+00  6 -1 21 25 23 -1 21 2 0.46923693D-01 0.30981187D-01 0.60008335D+05 0.60008335D+05 0.60008335D+05 0.11845128D+01  1  2  2  2  6  2       21 0.106802268441D-02 0.100000000000D+01
-.185586566437D-06 0.951573925961D-07 -.364013799639D-08 0.707513396161D-07 0.000000000000D+00  6 -1 21 25 23 -1 21 4 0.46923693D-01 0.30981187D-01 0.60008335D+05 0.60008335D+05 0.60008335D+05 0.11845128D+01  1  2  3  2  6  2       21 -.154227934522D-03 0.100000000000D+01
0.156244312542D-06 0.000000000000D+00 0.000000000000D+00 0.707513396161D-07 0.000000000000D+00  6 -1 21 25 23 -1 21 4 0.46923693D-01 0.30981187D-01 0.60008335D+05 0.60008335D+05 0.60008335D+05 0.11845128D+01  1  2 15  2  6  2       21 0.129843652301D-03 0.100000000000D+01
0.680585984670D-05 0.000000000000D+00 0.000000000000D+00 0.703484928281D-07 0.000000000000D+00  6 -1 21 25 23 -1 21 4 0.46923693D-01 0.33428291D-01 0.65036812D+05 0.65036812D+05 0.65036812D+05 0.11811358D+01  1  2 12  2  6  2       21 0.480137539585D-02 0.100000000000D+01
0.542840465386D-05 0.000000000000D+00 0.000000000000D+00 0.703484928281D-07 0.000000000000D+00  6 -1 21 25 23 -1 21 4 0.46923693D-01 0.34016086D-01 0.65036812D+05 0.65036812D+05 0.65036812D+05 0.11811358D+01  1  2 12  2  6  2       21 0.369909930607D-02 0.100000000000D+01
-.753792673551D-05 0.000000000000D+00 0.000000000000D+00 0.707513396161D-07 0.000000000000D+00  6 -1 21 25 23 -1 21 4 0.46923693D-01 0.30981187D-01 0.60008335D+05 0.60008335D+05 0.60008335D+05 0.11845128D+01  1  2  4  2  6  2       21 -.626424042058D-02 0.100000000000D+01
-.403611332406D-04 0.000000000000D+00 -.671875855551D-05 0.707513396161D-07 0.000000000000D+00  6 -1 21 25 23 -1 21 4 0.46923693D-01 0.33791568D-01 0.60008335D+05 0.60008335D+05 0.60008335D+05 0.11845128D+01  1  2  5  2  6  2       21 -.282490037012D-01 0.100000000000D+01
0.402890284062D-04 0.000000000000D+00 0.661851657121D-05 0.707513396161D-07 0.000000000000D+00  6 -1 21 25 23 -1 21 4 0.46923693D-01 0.30981187D-01 0.60008335D+05 0.60008335D+05 0.60008335D+05 0.11845128D+01  1  2  6  2  6  2       21 0.334813761268D-01 0.100000000000D+01
0.131721271610D-06 0.000000000000D+00 0.000000000000D+00 0.703484928281D-07 0.000000000000D+00  6 -1 -1 25 23 -1 -1 4 0.46923693D-01 0.33428291D-01 0.65036812D+05 0.65036812D+05 0.65036812D+05 0.11811358D+01  1  2 12  5  6  2       21 0.849511504275D-05 0.100000000000D+01
0.132153513109D-06 0.000000000000D+00 0.000000000000D+00 0.703484928281D-07 0.000000000000D+00  6 -1 -1 25 23 -1 -1 4 0.46923693D-01 0.34016086D-01 0.65036812D+05 0.65036812D+05 0.65036812D+05 0.11811358D+01  1  2 12  5  6  2       21 0.826942901186D-05 0.100000000000D+01
-.777046639008D-06 0.000000000000D+00 -.146527498838D-06 0.707513396161D-07 0.000000000000D+00  6 -1 -1 25 23 -1 -1 4 0.46923693D-01 0.33791568D-01 0.60008335D+05 0.60008335D+05 0.60008335D+05 0.11845128D+01  1  2  5  5  6  2       21 -.497558439054D-04 0.100000000000D+01
0.131721271610D-06 0.000000000000D+00 0.000000000000D+00 0.703484928281D-07 0.000000000000D+00  6 -1 1 25 23 1 -1 4 0.46923693D-01 0.33428291D-01 0.65036812D+05 0.65036812D+05 0.65036812D+05 0.11811358D+01  3  4 12  6  5  2       21 0.156853576449D-04 0.100000000000D+01
0.132153513109D-06 0.000000000000D+00 0.000000000000D+00 0.703484928281D-07 0.000000000000D+00  6 -1 1 25 23 1 -1 4 0.46923693D-01 0.34016086D-01 0.65036812D+05 0.65036812D+05 0.65036812D+05 0.11811358D+01  3  4 12  6  5  2       21 0.153944186331D-04 0.100000000000D+01
-.777046639008D-06 0.000000000000D+00 -.146527498838D-06 0.707513396161D-07 0.000000000000D+00  6 -1 1 25 23 1 -1 4 0.46923693D-01 0.33791568D-01 0.60008335D+05 0.60008335D+05 0.60008335D+05 0.11845128D+01  3  4  5  6  5  2       21 -.923307692502D-04 0.100000000000D+01
0.131721271610D-06 0.000000000000D+00 0.000000000000D+00 0.703484928281D-07 0.000000000000D+00  6 -1 -2 25 23 -1 -2 4 0.46923693D-01 0.33428291D-01 0.65036812D+05 0.65036812D+05 0.65036812D+05 0.11811358D+01  1  2 12  7  6  2       21 0.737136631291D-05 0.100000000000D+01
0.131721271610D-06 0.000000000000D+00 0.000000000000D+00 0.703484928281D-07 0.000000000000D+00  6 -1 -4 25 23 -1 -4 4 0.46923693D-01 0.33428291D-01 0.65036812D+05 0.65036812D+05 0.65036812D+05 0.11811358D+01  1  2 12  7  6  2       21 0.404173055922D-05 0.100000000000D+01
0.132153513109D-06 0.000000000000D+00 0.000000000000D+00 0.703484928281D-07 0.000000000000D+00  6 -1 -2 25 23 -1 -2 4 0.46923693D-01 0.34016086D-01 0.65036812D+05 0.65036812D+05 0.65036812D+05 0.11811358D+01  1  2 12  7  6  2       21 0.715995189048D-05 0.100000000000D+01
0.132153513109D-06 0.000000000000D+00 0.000000000000D+00 0.703484928281D-07 0.000000000000D+00  6 -1 -4 25 23 -1 -4 4 0.46923693D-01 0.34016086D-01 0.65036812D+05 0.65036812D+05 0.65036812D+05 0.11811358D+01  1  2 12  7  6  2       21 0.391988167388D-05 0.100000000000D+01
-.777046639008D-06 0.000000000000D+00 -.146527498838D-06 0.707513396161D-07 0.000000000000D+00  6 -1 -2 25 23 -1 -2 4 0.46923693D-01 0.33791568D-01 0.60008335D+05 0.60008335D+05 0.60008335D+05 0.11845128D+01  1  2  5  7  6  2       21 -.431103367538D-04 0.100000000000D+01
-.777046639008D-06 0.000000000000D+00 -.146527498838D-06 0.707513396161D-07 0.000000000000D+00  6 -1 -4 25 23 -1 -4 4 0.46923693D-01 0.33791568D-01 0.60008335D+05 0.60008335D+05 0.60008335D+05 0.11845128D+01  1  2  5  7  6  2       21 -.235631339455D-04 0.100000000000D+01
0.131721271610D-06 0.000000000000D+00 0.000000000000D+00 0.703484928281D-07 0.000000000000D+00  6 -1 2 25 23 2 -1 4 0.46923693D-01 0.33428291D-01 0.65036812D+05 0.65036812D+05 0.65036812D+05 0.11811358D+01  3  4 12  8  5  2       21 0.210248351643D-04 0.100000000000D+01
0.131721271610D-06 0.000000000000D+00 0.000000000000D+00 0.703484928281D-07 0.000000000000D+00  6 -1 4 25 23 4 -1 4 0.46923693D-01 0.33428291D-01 0.65036812D+05 0.65036812D+05 0.65036812D+05 0.11811358D+01  3  4 12  8  5  2       21 0.404173055922D-05 0.100000000000D+01
0.132153513109D-06 0.000000000000D+00 0.000000000000D+00 0.703484928281D-07 0.000000000000D+00  6 -1 2 25 23 2 -1 4 0.46923693D-01 0.34016086D-01 0.65036812D+05 0.65036812D+05 0.65036812D+05 0.11811358D+01  3  4 12  8  5  2       21 0.206955339508D-04 0.100000000000D+01
0.132153513109D-06 0.000000000000D+00 0.000000000000D+00 0.703484928281D-07 0.000000000000D+00  6 -1 4 25 23 4 -1 4 0.46923693D-01 0.34016086D-01 0.65036812D+05 0.65036812D+05 0.65036812D+05 0.11811358D+01  3  4 12  8  5  2       21 0.391988167388D-05 0.100000000000D+01
-.777046639008D-06 0.000000000000D+00 -.146527498838D-06 0.707513396161D-07 0.000000000000D+00  6 -1 2 25 23 2 -1 4 0.46923693D-01 0.33791568D-01 0.60008335D+05 0.60008335D+05 0.60008335D+05 0.11845128D+01  3  4  5  8  5  2       21 -.123963513545D-03 0.100000000000D+01
-.777046639008D-06 0.000000000000D+00 -.146527498838D-06 0.707513396161D-07 0.000000000000D+00  6 -1 4 25 23 4 -1 4 0.46923693D-01 0.33791568D-01 0.60008335D+05 0.60008335D+05 0.60008335D+05 0.11845128D+01  3  4  5  8  5  2       21 -.235631339455D-04 0.100000000000D+01
0.131721271610D-06 0.000000000000D+00 0.000000000000D+00 0.703484928281D-07 0.000000000000D+00  6 -1 -3 25 23 -1 -3 4 0.46923693D-01 0.33428291D-01 0.65036812D+05 0.65036812D+05 0.65036812D+05 0.11811358D+01  1  2 12  9  6  2       21 0.478225355627D-05 0.100000000000D+01
0.132153513109D-06 0.000000000000D+00 0.000000000000D+00 0.703484928281D-07 0.000000000000D+00  6 -1 -3 25 23 -1 -3 4 0.46923693D-01 0.34016086D-01 0.65036812D+05 0.65036812D+05 0.65036812D+05 0.11811358D+01  1  2 12  9  6  2       21 0.464135127418D-05 0.100000000000D+01
-.777046639008D-06 0.000000000000D+00 -.146527498838D-06 0.707513396161D-07 0.000000000000D+00  6 -1 -3 25 23 -1 -3 4 0.46923693D-01 0.33791568D-01 0.60008335D+05 0.60008335D+05 0.60008335D+05 0.11845128D+01  1  2  5  9  6  2       21 -.279125281741D-04 0.100000000000D+01
0.131721271610D-06 0.000000000000D+00 0.000000000000D+00 0.703484928281D-07 0.000000000000D+00  6 -1 3 25 23 3 -1 4 0.46923693D-01 0.33428291D-01 0.65036812D+05 0.65036812D+05 0.65036812D+05 0.11811358D+01  3  4 12 10  5  2       21 0.478270905670D-05 0.100000000000D+01
0.132153513109D-06 0.000000000000D+00 0.000000000000D+00 0.703484928281D-07 0.000000000000D+00  6 -1 3 25 23 3 -1 4 0.46923693D-01 0.34016086D-01 0.65036812D+05 0.65036812D+05 0.65036812D+05 0.11811358D+01  3  4 12 10  5  2       21 0.464183912993D-05 0.100000000000D+01
-.777046639008D-06 0.000000000000D+00 -.146527498838D-06 0.707513396161D-07 0.000000000000D+00  6 -1 3 25 23 3 -1 4 0.46923693D-01 0.33791568D-01 0.60008335D+05 0.60008335D+05 0.60008335D+05 0.11845128D+01  3  4  5 10  5  2       21 -.279153177645D-04 0.100000000000D+01
  </mgrwgt>
  </event>
  <event>
  5     66 0.44233958E-03 0.29749081E+02 0.75467711E-02 0.12054661E+00
       -3 -1    0    0    0  501 0.00000000E+00 0.00000000E+00 0.51029728E+02 0.51032178E+02 0.50000000E+00 0.0000E+00 0.9000E+01
       21 -1    0    0  501  502 0.00000000E+00 0.00000000E+00 -.70547997E+03 0.70548036E+03 0.75000000E+00 0.0000E+00 0.9000E+01
       25  1    1    2    0    0 0.58386191E+01 -.54203213E+02 -.10067602E+03 0.16950734E+03 0.12500000E+03 0.0000E+00 0.9000E+01
       23  1    1    2    0    0 0.23902506E+02 0.53525614E+02 -.16707031E+03 0.19915838E+03 0.91188000E+02 0.0000E+00 0.9000E+01
       -3  1    1    2    0  502 -.29741126E+02 0.67759805E+00 -.38670391E+03 0.38784682E+03 0.50000000E+00 0.0000E+00 0.9000E+01
#aMCatNLO 1  0  0  1  2 0.18964521D+02 0.00000000D+00  -5  6  0 0.00000000D+00 0.00000000D+00 0.00000000D+00 0.00000000D+00 0.00000000D+00
  <mgrwgt>
 0.3047255408D-02    9    4    0
 0.189740686623612D+03 0.000000000000000D+00 0.000000000000000D+00 0.189740686623612D+03
 0.189740686623612D+03 0.000000000000000D+00 0.000000000000000D+00 -.189740686623612D+03
 0.164295519240528D+03 0.583876161133457D+01 -.542032157593279D+02 0.916293506836555D+02
 0.108902918052399D+03 0.239026009227353D+02 0.535256123106432D+02 0.104052252367103D+02
 0.106282935954299D+03 -.297413625340698D+02 0.677603448684772D+00 -.102034575920366D+03
 0.000000000000000D+00 -.000000000000000D+00 0.000000000000000D+00 0.000000000000000D+00
 0.205094565823938D+03 0.000000000000000D+00 0.000000000000000D+00 0.205094565823938D+03
 0.195925265069984D+03 0.000000000000000D+00 0.000000000000000D+00 -.195925265069984D+03
 0.166722104761431D+03 0.113182752922392D+02 -.603922093798733D+02 0.916293506836555D+02
 0.107827892272741D+03 0.274902631924733D+02 0.494734244353838D+02 0.104052252367103D+02
 0.105404955138858D+03 -.262371784326217D+02 -.328029761918854D+01 -.102034575920366D+03
 0.210648787208927D+02 -.125713600520907D+02 0.141990825636780D+02 0.916930075395446D+01
 0.189740686623612D+03 0.000000000000000D+00 0.000000000000000D+00 0.189740686623612D+03
 0.189740686623612D+03 0.000000000000000D+00 0.000000000000000D+00 -.189740686623612D+03
 0.164295519240528D+03 0.583876161133457D+01 -.542032157593279D+02 0.916293506836555D+02
 0.108902918052399D+03 0.239026009227353D+02 0.535256123106432D+02 0.104052252367103D+02
 0.000000000000000D+00 -.000000000000000D+00 0.000000000000000D+00 0.000000000000000D+00
 0.106282935954299D+03 -.297413625340698D+02 0.677603448684772D+00 -.102034575920366D+03
 0.205094565823938D+03 0.000000000000000D+00 0.000000000000000D+00 0.205094565823938D+03
 0.195925265069984D+03 0.000000000000000D+00 0.000000000000000D+00 -.195925265069984D+03
 0.166722104761431D+03 0.113182752922392D+02 -.603922093798733D+02 0.916293506836555D+02
 0.107827892272741D+03 0.274902631924733D+02 0.494734244353838D+02 0.104052252367103D+02
 0.210648787208927D+02 -.125713600520907D+02 0.141990825636780D+02 0.916930075395446D+01
 0.105404955138858D+03 -.262371784326217D+02 -.328029761918854D+01 -.102034575920366D+03
0.149178031212D-05 0.000000000000D+00 0.000000000000D+00 0.216397855414D-05 0.000000000000D+00  6 -3 21 25 23 -3 21 2 0.78509465D-02 0.10853560D+00 0.18840978D+05 0.18840978D+05 0.18840978D+05 0.12366906D+01  1  2  2  1  6  1       -3 0.832326713474D-03 0.100000000000D+01
0.215694795329D-06 0.787234098739D-07 -.301147464920D-08 0.216397855414D-05 0.000000000000D+00  6 -3 21 25 23 -3 21 4 0.78509465D-02 0.10853560D+00 0.18840978D+05 0.18840978D+05 0.18840978D+05 0.12366906D+01  1  2  3  1  6  1       -3 0.184056320856D-03 0.100000000000D+01
0.155554946065D-06 0.000000000000D+00 0.000000000000D+00 0.216397855414D-05 0.000000000000D+00  6 -3 21 25 23 -3 21 4 0.78509465D-02 0.10853560D+00 0.18840978D+05 0.18840978D+05 0.18840978D+05 0.12366906D+01  1  2 15  1  6  1       -3 0.132737885585D-03 0.100000000000D+01
0.114878326833D-04 0.000000000000D+00 0.000000000000D+00 0.214336292969D-05 0.000000000000D+00  6 -3 21 25 23 -3 21 4 0.86066550D-02 0.10853560D+00 0.21318289D+05 0.21318289D+05 0.21318289D+05 0.12307857D+01  1  2 12  1  6  1       -3 0.828342681725D-02 0.100000000000D+01
-.683873999680D-05 0.000000000000D+00 0.000000000000D+00 0.216397855414D-05 0.000000000000D+00  6 -3 21 25 23 -3 21 4 0.78509465D-02 0.10853560D+00 0.18840978D+05 0.18840978D+05 0.18840978D+05 0.12366906D+01  1  2  4  1  6  1       -3 -.583562213999D-02 0.100000000000D+01
-.280250350923D-04 0.000000000000D+00 -.585168326119D-05 0.216397855414D-05 0.000000000000D+00  6 -3 21 25 23 -3 21 4 0.87598383D-02 0.10853560D+00 0.18840978D+05 0.18840978D+05 0.18840978D+05 0.12366906D+01  1  2  5  1  6  1       -3 -.200022221947D-01 0.100000000000D+01
0.285296373045D-04 0.000000000000D+00 0.581674859805D-05 0.216397855414D-05 0.000000000000D+00  6 -3 21 25 23 -3 21 4 0.78509465D-02 0.10853560D+00 0.18840978D+05 0.18840978D+05 0.18840978D+05 0.12366906D+01  1  2  6  1  6  1       -3 0.243448622375D-01 0.100000000000D+01
0.173388736167D-06 0.000000000000D+00 0.000000000000D+00 0.214336292969D-05 0.000000000000D+00  6 21 21 25 23 3 -3 4 0.86066550D-02 0.10853560D+00 0.21318289D+05 0.21318289D+05 0.21318289D+05 0.12307857D+01  3  4 12  4  5  1       -3 0.289895971988D-02 0.100000000000D+01
-.469364257697D-06 0.000000000000D+00 -.102779260427D-06 0.216397855414D-05 0.000000000000D+00  6 21 21 25 23 3 -3 4 0.87598383D-02 0.10853560D+00 0.18840978D+05 0.18840978D+05 0.18840978D+05 0.12366906D+01  3  4  5  4  5  1       -3 -.779126995185D-02 0.100000000000D+01
  </mgrwgt>
  </event>
  <event>
  5     66 -.44233958E-03 0.10389733E+03 0.75467711E-02 0.11360168E+00
       -3 -1    0    0    0  501 0.00000000E+00 0.00000000E+00 0.21062898E+03 0.21062957E+03 0.50000000E+00 0.0000E+00 0.9000E+01
       21 -1    0    0  501  502 0.00000000E+00 0.00000000E+00 -.42732718E+03 0.42732783E+03 0.75000000E+00 0.0000E+00 0.9000E+01
       25  1    1    2    0    0 0.74608450E+02 -.96277670E+02 -.31657125E+03 0.36149435E+03 0.12500000E+03 0.0000E+00 0.9000E+01
       23  1    1    2    0    0 -.10615031E+03 -.13492860E+02 0.75871031E+02 0.15975485E+03 0.91188000E+02 0.0000E+00 0.9000E+01
       -3  1    1    2    0  502 0.31541864E+02 0.10977053E+03 0.24002020E+02 0.11670821E+03 0.50000000E+00 0.0000E+00 0.9000E+01
#aMCatNLO 1  0  0  2  1 0.48149607D+01 0.00000000D+00  -5  6  0 0.00000000D+00 0.00000000D+00 0.00000000D+00 0.00000000D+00 0.00000000D+00
  <mgrwgt>
 -.3774889457D-03   41    4    0
 0.300013141333193D+03 0.000000000000000D+00 0.000000000000000D+00 0.300013141333193D+03
 0.300013141333193D+03 0.000000000000000D+00 0.000000000000000D+00 -.300013141333193D+03
 0.270017731731384D+03 0.746083495422743D+02 -.962780200053349D+02 -.206030853252108D+03
 0.197254477148473D+03 -.106150387441114D+03 -.134931158000372D+02 0.138362236478114D+03
 0.132754073786528D+03 0.315420378988400D+02 0.109771135805372D+03 0.676686167739937D+02
 0.000000000000000D+00 0.000000000000000D+00 0.000000000000000D+00 -.000000000000000D+00
 0.300134928948705D+03 0.000000000000000D+00 0.000000000000000D+00 0.300134928948705D+03
 0.351713264524168D+03 0.000000000000000D+00 0.000000000000000D+00 -.351713264524168D+03
 0.269935368604156D+03 0.727797441133737D+02 -.974397227954887D+02 -.206030853252108D+03
 0.198037879019245D+03 -.107489084724345D+03 -.143435826883672D+02 0.138362236478114D+03
 0.132072353757949D+03 0.306451765921389D+02 0.109201364838979D+03 0.676686167739937D+02
 0.518025920915229D+02 0.406416401883245D+01 0.258194064487650D+01 -.515783355754630D+02
 0.300013141333193D+03 0.000000000000000D+00 0.000000000000000D+00 0.300013141333193D+03
 0.300013141333193D+03 0.000000000000000D+00 0.000000000000000D+00 -.300013141333193D+03
 0.270017731731384D+03 0.746083495422743D+02 -.962780200053349D+02 -.206030853252108D+03
 0.197254477148473D+03 -.106150387441114D+03 -.134931158000372D+02 0.138362236478114D+03
 0.000000000000000D+00 0.000000000000000D+00 0.000000000000000D+00 -.000000000000000D+00
 0.132754073786528D+03 0.315420378988400D+02 0.109771135805372D+03 0.676686167739937D+02
 0.300134928948705D+03 0.000000000000000D+00 0.000000000000000D+00 0.300134928948705D+03
 0.351713264524168D+03 0.000000000000000D+00 0.000000000000000D+00 -.351713264524168D+03
 0.269935368604156D+03 0.727797441133737D+02 -.974397227954887D+02 -.206030853252108D+03
 0.198037879019245D+03 -.107489084724345D+03 -.143435826883672D+02 0.138362236478114D+03
 0.518025920915229D+02 0.406416401883245D+01 0.258194064487650D+01 -.515783355754630D+02
 0.132072353757949D+03 0.306451765921389D+02 0.109201364838979D+03 0.676686167739937D+02
0.458808925707D-06 0.000000000000D+00 0.000000000000D+00 0.165994086443D-07 0.000000000000D+00  6 -3 21 25 23 -3 21 2 0.32404554D-01 0.65742739D-01 0.46081537D+05 0.46081537D+05 0.46081537D+05 0.11958079D+01  1  2  2  2  6  2       21 0.637326509160D-04 0.100000000000D+01
-.440405051915D-07 0.242120121970D-07 -.926203032291D-09 0.165994086443D-07 0.000000000000D+00  6 -3 21 25 23 -3 21 4 0.32404554D-01 0.65742739D-01 0.46081537D+05 0.46081537D+05 0.46081537D+05 0.11958079D+01  1  2  3  2  6  2       21 -.874792939860D-05 0.100000000000D+01
0.469774580339D-07 0.000000000000D+00 0.000000000000D+00 0.165994086443D-07 0.000000000000D+00  6 -3 21 25 23 -3 21 4 0.32404554D-01 0.65742739D-01 0.46081537D+05 0.46081537D+05 0.46081537D+05 0.11958079D+01  1  2 15  2  6  2       21 0.933130726859D-05 0.100000000000D+01
0.312234709941D-04 0.000000000000D+00 0.000000000000D+00 0.165715983982D-07 0.000000000000D+00  6 -3 21 25 23 -3 21 4 0.32404554D-01 0.77083853D-01 0.47159263D+05 0.47159263D+05 0.47159263D+05 0.11948058D+01  1  2 12  2  6  2       21 0.434087300739D-02 0.100000000000D+01
0.311420215207D-04 0.000000000000D+00 0.000000000000D+00 0.165715983982D-07 0.000000000000D+00  6 -3 21 25 23 -3 21 4 0.32404554D-01 0.77112548D-01 0.47159263D+05 0.47159263D+05 0.47159263D+05 0.11948058D+01  1  2 12  2  6  2       21 0.432592289938D-02 0.100000000000D+01
-.185256224392D-03 0.000000000000D+00 0.000000000000D+00 0.165994086443D-07 0.000000000000D+00  6 -3 21 25 23 -3 21 4 0.32404554D-01 0.65742739D-01 0.46081537D+05 0.46081537D+05 0.46081537D+05 0.11958079D+01  1  2  4  2  6  2       21 -.367981330956D-01 0.100000000000D+01
-.194671676192D-03 0.000000000000D+00 -.964880408189D-06 0.165994086443D-07 0.000000000000D+00  6 -3 21 25 23 -3 21 4 0.32404554D-01 0.77085375D-01 0.46081537D+05 0.46081537D+05 0.46081537D+05 0.11958079D+01  1  2  5  2  6  2       21 -.271661403645D-01 0.100000000000D+01
0.183231412390D-03 0.000000000000D+00 0.917694287465D-06 0.165994086443D-07 0.000000000000D+00  6 -3 21 25 23 -3 21 4 0.32404554D-01 0.65742739D-01 0.46081537D+05 0.46081537D+05 0.46081537D+05 0.11958079D+01  1  2  6  2  6  2       21 0.363959371543D-01 0.100000000000D+01
0.132972753153D-03 0.000000000000D+00 0.000000000000D+00 0.165994086443D-07 0.132908085369D-07  6 -3 21 25 23 -3 21 4 0.32417709D-01 0.77071935D-01 0.47159263D+05 0.47159263D+05 0.47159263D+05 0.11948058D+01  1  2 11  2  6  2       21 0.184789417456D-01 0.100000000000D+01
0.150493645458D-05 0.000000000000D+00 0.000000000000D+00 0.165715983982D-07 0.000000000000D+00  6 -3 -3 25 23 -3 -3 4 0.32404554D-01 0.77083853D-01 0.47159263D+05 0.47159263D+05 0.47159263D+05 0.11948058D+01  1  2 12  5  6  2       21 0.113149812348D-04 0.100000000000D+01
0.150539808096D-05 0.000000000000D+00 0.000000000000D+00 0.165715983982D-07 0.000000000000D+00  6 -3 -3 25 23 -3 -3 4 0.32404554D-01 0.77112548D-01 0.47159263D+05 0.47159263D+05 0.47159263D+05 0.11948058D+01  1  2 12  5  6  2       21 0.113092838738D-04 0.100000000000D+01
-.934431726867D-05 0.000000000000D+00 -.421481621799D-07 0.165994086443D-07 0.000000000000D+00  6 -3 -3 25 23 -3 -3 4 0.32404554D-01 0.77085375D-01 0.46081537D+05 0.46081537D+05 0.46081537D+05 0.11958079D+01  1  2  5  5  6  2       21 -.704348510373D-04 0.100000000000D+01
0.608558803355D-05 0.000000000000D+00 0.000000000000D+00 0.165994086443D-07 0.303995368600D-09  6 -3 -3 25 23 -3 -3 4 0.32417709D-01 0.77071935D-01 0.47159263D+05 0.47159263D+05 0.47159263D+05 0.11948058D+01  1  2 11  5  6  2       21 0.457353256364D-04 0.100000000000D+01
0.150493645458D-05 0.000000000000D+00 0.000000000000D+00 0.165715983982D-07 0.000000000000D+00  6 -3 3 25 23 3 -3 4 0.32404554D-01 0.77083853D-01 0.47159263D+05 0.47159263D+05 0.47159263D+05 0.11948058D+01  3  4 12  6  5  2       21 0.113284887788D-04 0.100000000000D+01
0.150539808096D-05 0.000000000000D+00 0.000000000000D+00 0.165715983982D-07 0.000000000000D+00  6 -3 3 25 23 3 -3 4 0.32404554D-01 0.77112548D-01 0.47159263D+05 0.47159263D+05 0.47159263D+05 0.11948058D+01  3  4 12  6  5  2       21 0.113227949008D-04 0.100000000000D+01
-.934431726867D-05 0.000000000000D+00 -.421481621799D-07 0.165994086443D-07 0.000000000000D+00  6 -3 3 25 23 3 -3 4 0.32404554D-01 0.77085375D-01 0.46081537D+05 0.46081537D+05 0.46081537D+05 0.11958079D+01  3  4  5  6  5  2       21 -.705189140726D-04 0.100000000000D+01
0.584288651103D-05 0.000000000000D+00 0.000000000000D+00 0.165994086443D-07 0.584059852325D-09  6 -3 3 25 23 3 -3 4 0.32417709D-01 0.77071935D-01 0.47159263D+05 0.47159263D+05 0.47159263D+05 0.11948058D+01  3  4 11  6  5  2       21 0.439637423682D-04 0.100000000000D+01
0.150493645458D-05 0.000000000000D+00 0.000000000000D+00 0.165715983982D-07 0.000000000000D+00  6 -3 -2 25 23 -3 -2 4 0.32404554D-01 0.77083853D-01 0.47159263D+05 0.47159263D+05 0.47159263D+05 0.11948058D+01  1  2 12  7  6  2       21 0.178315127337D-04 0.100000000000D+01
0.150493645458D-05 0.000000000000D+00 0.000000000000D+00 0.165715983982D-07 0.000000000000D+00  6 -3 -4 25 23 -3 -4 4 0.32404554D-01 0.77083853D-01 0.47159263D+05 0.47159263D+05 0.47159263D+05 0.11948058D+01  1  2 12  7  6  2       21 0.921354366482D-05 0.100000000000D+01
0.150539808096D-05 0.000000000000D+00 0.000000000000D+00 0.165715983982D-07 0.000000000000D+00  6 -3 -2 25 23 -3 -2 4 0.32404554D-01 0.77112548D-01 0.47159263D+05 0.47159263D+05 0.47159263D+05 0.11948058D+01  1  2 12  7  6  2       21 0.178224641741D-04 0.100000000000D+01
0.150539808096D-05 0.000000000000D+00 0.000000000000D+00 0.165715983982D-07 0.000000000000D+00  6 -3 -4 25 23 -3 -4 4 0.32404554D-01 0.77112548D-01 0.47159263D+05 0.47159263D+05 0.47159263D+05 0.11948058D+01  1  2 12  7  6  2       21 0.920876437977D-05 0.100000000000D+01
-.934431726867D-05 0.000000000000D+00 -.421481621799D-07 0.165994086443D-07 0.000000000000D+00  6 -3 -2 25 23 -3 -2 4 0.32404554D-01 0.77085375D-01 0.46081537D+05 0.46081537D+05 0.46081537D+05 0.11958079D+01  1  2  5  7  6  2       21 -.111045178234D-03 0.100000000000D+01
-.934431726867D-05 0.000000000000D+00 -.421481621799D-07 0.165994086443D-07 0.000000000000D+00  6 -3 -4 25 23 -3 -4 4 0.32404554D-01 0.77085375D-01 0.46081537D+05 0.46081537D+05 0.46081537D+05 0.11958079D+01  1  2  5  7  6  2       21 -.573409425673D-04 0.100000000000D+01
0.638908672995D-05 0.000000000000D+00 0.000000000000D+00 0.165994086443D-07 0.638206499804D-09  6 -3 -2 25 23 -3 -2 4 0.32417709D-01 0.77071935D-01 0.47159263D+05 0.47159263D+05 0.47159263D+05 0.11948058D+01  1  2 11  7  6  2       21 0.756698837929D-04 0.100000000000D+01
0.638908672995D-05 0.000000000000D+00 0.000000000000D+00 0.165994086443D-07 0.638206499804D-09  6 -3 -4 25 23 -3 -4 4 0.32417709D-01 0.77071935D-01 0.47159263D+05 0.47159263D+05 0.47159263D+05 0.11948058D+01  1  2 11  7  6  2       21 0.390988167340D-04 0.100000000000D+01
0.150493645458D-05 0.000000000000D+00 0.000000000000D+00 0.165715983982D-07 0.000000000000D+00  6 -3 2 25 23 2 -3 4 0.32404554D-01 0.77083853D-01 0.47159263D+05 0.47159263D+05 0.47159263D+05 0.11948058D+01  3  4 12  8  5  2       21 0.109770897833D-03 0.100000000000D+01
0.150493645458D-05 0.000000000000D+00 0.000000000000D+00 0.165715983982D-07 0.000000000000D+00  6 -3 4 25 23 4 -3 4 0.32404554D-01 0.77083853D-01 0.47159263D+05 0.47159263D+05 0.47159263D+05 0.11948058D+01  3  4 12  8  5  2       21 0.921354366482D-05 0.100000000000D+01
0.150539808096D-05 0.000000000000D+00 0.000000000000D+00 0.165715983982D-07 0.000000000000D+00  6 -3 2 25 23 2 -3 4 0.32404554D-01 0.77112548D-01 0.47159263D+05 0.47159263D+05 0.47159263D+05 0.11948058D+01  3  4 12  8  5  2       21 0.109758912770D-03 0.100000000000D+01
0.150539808096D-05 0.000000000000D+00 0.000000000000D+00 0.165715983982D-07 0.000000000000D+00  6 -3 4 25 23 4 -3 4 0.32404554D-01 0.77112548D-01 0.47159263D+05 0.47159263D+05 0.47159263D+05 0.11948058D+01  3  4 12  8  5  2       21 0.920876437977D-05 0.100000000000D+01
-.934431726867D-05 0.000000000000D+00 -.421481621799D-07 0.165994086443D-07 0.000000000000D+00  6 -3 2 25 23 2 -3 4 0.32404554D-01 0.77085375D-01 0.46081537D+05 0.46081537D+05 0.46081537D+05 0.11958079D+01  3  4  5  8  5  2       21 -.683577576597D-03 0.100000000000D+01
-.934431726867D-05 0.000000000000D+00 -.421481621799D-07 0.165994086443D-07 0.000000000000D+00  6 -3 4 25 23 4 -3 4 0.32404554D-01 0.77085375D-01 0.46081537D+05 0.46081537D+05 0.46081537D+05 0.11958079D+01  3  4  5  8  5  2       21 -.573409425673D-04 0.100000000000D+01
0.643392036599D-05 0.000000000000D+00 0.000000000000D+00 0.165994086443D-07 0.642684936103D-09  6 -3 2 25 23 2 -3 4 0.32417709D-01 0.77071935D-01 0.47159263D+05 0.47159263D+05 0.47159263D+05 0.11948058D+01  3  4 11  8  5  2       21 0.469015412966D-03 0.100000000000D+01
0.643392036599D-05 0.000000000000D+00 0.000000000000D+00 0.165994086443D-07 0.642684936103D-09  6 -3 4 25 23 4 -3 4 0.32417709D-01 0.77071935D-01 0.47159263D+05 0.47159263D+05 0.47159263D+05 0.11948058D+01  3  4 11  8  5  2       21 0.393731817869D-04 0.100000000000D+01
0.150493645458D-05 0.000000000000D+00 0.000000000000D+00 0.165715983982D-07 0.000000000000D+00  6 -3 -1 25 23 -3 -1 4 0.32404554D-01 0.77083853D-01 0.47159263D+05 0.47159263D+05 0.47159263D+05 0.11948058D+01  1  2 12  9  6  2       21 0.231753112649D-04 0.100000000000D+01
0.150539808096D-05 0.000000000000D+00 0.000000000000D+00 0.165715983982D-07 0.000000000000D+00  6 -3 -1 25 23 -3 -1 4 0.32404554D-01 0.77112548D-01 0.47159263D+05 0.47159263D+05 0.47159263D+05 0.11948058D+01  1  2 12  9  6  2       21 0.231647604690D-04 0.100000000000D+01
-.934431726867D-05 0.000000000000D+00 -.421481621799D-07 0.165994086443D-07 0.000000000000D+00  6 -3 -1 25 23 -3 -1 4 0.32404554D-01 0.77085375D-01 0.46081537D+05 0.46081537D+05 0.46081537D+05 0.11958079D+01  1  2  5  9  6  2       21 -.144339507847D-03 0.100000000000D+01
0.611657820607D-05 0.000000000000D+00 0.000000000000D+00 0.165994086443D-07 0.610985596639D-09  6 -3 -1 25 23 -3 -1 4 0.32417709D-01 0.77071935D-01 0.47159263D+05 0.47159263D+05 0.47159263D+05 0.11948058D+01  1  2 11  9  6  2       21 0.941500991267D-04 0.100000000000D+01
0.150493645458D-05 0.000000000000D+00 0.000000000000D+00 0.165715983982D-07 0.000000000000D+00  6 -3 1 25 23 1 -3 4 0.32404554D-01 0.77083853D-01 0.47159263D+05 0.47159263D+05 0.47159263D+05 0.11948058D+01  3  4 12 10  5  2       21 0.701731808971D-04 0.100000000000D+01
0.150539808096D-05 0.000000000000D+00 0.000000000000D+00 0.165715983982D-07 0.000000000000D+00  6 -3 1 25 23 1 -3 4 0.32404554D-01 0.77112548D-01 0.47159263D+05 0.47159263D+05 0.47159263D+05 0.11948058D+01  3  4 12 10  5  2       21 0.701600761517D-04 0.100000000000D+01
-.934431726867D-05 0.000000000000D+00 -.421481621799D-07 0.165994086443D-07 0.000000000000D+00  6 -3 1 25 23 1 -3 4 0.32404554D-01 0.77085375D-01 0.46081537D+05 0.46081537D+05 0.46081537D+05 0.11958079D+01  3  4  5 10  5  2       21 -.437030791366D-03 0.100000000000D+01
0.603912954934D-05 0.000000000000D+00 0.000000000000D+00 0.165994086443D-07 0.603249242725D-09  6 -3 1 25 23 1 -3 4 0.32417709D-01 0.77071935D-01 0.47159263D+05 0.47159263D+05 0.47159263D+05 0.11948058D+01  3  4 11 10  5  2       21 0.281438639649D-03 0.100000000000D+01
  </mgrwgt>
  </event>
  <event>
  5     66 -.44233958E-03 0.22591807E+02 0.75467711E-02 0.11102686E+00
       -1 -1    0    0    0  501 0.00000000E+00 0.00000000E+00 0.11774783E+03 0.11774827E+03 0.32000000E+00 0.0000E+00 0.9000E+01
       21 -1    0    0  501  502 -.00000000E+00 -.00000000E+00 -.64304065E+03 0.64304108E+03 0.75000000E+00 0.0000E+00 0.9000E+01
       25  1    1    2    0    0 0.63780547E+02 0.21888105E+03 -.12766420E+03 0.28965501E+03 0.12500000E+03 0.0000E+00 0.9000E+01
       23  1    1    2    0    0 -.67664011E+02 -.19662662E+03 -.33628627E+03 0.40576367E+03 0.91188000E+02 0.0000E+00 0.9000E+01
       -1  1    1    2    0  502 0.38834639E+01 -.22254433E+02 -.61342339E+02 0.65370682E+02 0.32000000E+00 0.0000E+00 0.9000E+01
#aMCatNLO 1  0  0  5  2 0.18433838D+01 0.00000000D+00  -5  6  0 0.00000000D+00 0.00000000D+00 0.00000000D+00 0.00000000D+00 0.00000000D+00
  <mgrwgt>
 -.1344732829D-01    8    2    0
 0.275167177257031D+03 0.000000000000000D+00 0.000000000000000D+00 0.275167177257031D+03
 0.275167177257031D+03 -.000000000000000D+00 -.000000000000000D+00 -.275167177257031D+03
 0.278568295779297D+03 0.637804475399808D+02 0.218881622465811D+03 0.999909259468849D+02
 0.239947987068607D+03 -.676640965169629D+02 -.196626128526335D+03 -.775855706788635D+02
 0.318180716661580D+02 0.388364897698216D+01 -.222554939394769D+02 -.224053552680214D+02
 0.000000000000000D+00 0.000000000000000D+00 0.000000000000000D+00 -.000000000000000D+00
 0.275167177257031D+03 0.000000000000000D+00 0.000000000000000D+00 0.275167177257031D+03
 0.275167177257031D+03 -.000000000000000D+00 -.000000000000000D+00 -.275167177257031D+03
 0.278472998381584D+03 0.637954695552412D+02 0.218795537865589D+03 0.999042616806894D+02
 0.240029275307270D+03 -.676511527265552D+02 -.196700303728749D+03 -.776602453532016D+02
 0.213530797691948D+02 0.421976163037983D+01 -.153426844687401D+02 -.142390189516360D+02
 0.104790010560127D+02 -.364078459065786D+00 -.675254966810061D+01 -.800499737585183D+01
0.578030031190D-05 0.000000000000D+00 0.000000000000D+00 0.303942431174D-06 0.000000000000D+00  6 -1 21 25 23 -1 21 2 0.18115119D-01 0.98929397D-01 0.64936867D+05 0.64936867D+05 0.64936867D+05 0.11812001D+01  1  2  2  3  6  5       -1 0.142583984722D-02 0.100000000000D+01
0.988698432912D-06 0.305034827818D-06 -.116687609514D-07 0.303942431174D-06 0.000000000000D+00  6 -1 21 25 23 -1 21 4 0.18115119D-01 0.98929397D-01 0.64936867D+05 0.64936867D+05 0.64936867D+05 0.11812001D+01  1  2  3  3  6  5       -1 0.340275839205D-03 0.100000000000D+01
0.516671950000D-06 0.000000000000D+00 0.000000000000D+00 0.303942431174D-06 0.000000000000D+00  6 -1 21 25 23 -1 21 4 0.18115119D-01 0.98929397D-01 0.64936867D+05 0.64936867D+05 0.64936867D+05 0.11812001D+01  1  2 15  3  6  5       -1 0.177820633196D-03 0.100000000000D+01
0.144272499577D-07 0.000000000000D+00 0.000000000000D+00 0.303936140261D-06 0.000000000000D+00  6 -1 21 25 23 -1 21 4 0.18115119D-01 0.98929397D-01 0.64955865D+05 0.64955865D+05 0.64955865D+05 0.11811878D+01  1  2 12  3  6  5       -1 0.496510083446D-05 0.100000000000D+01
-.235063362678D-03 0.000000000000D+00 0.000000000000D+00 0.303942431174D-06 0.000000000000D+00  6 -1 21 25 23 -1 21 4 0.18115119D-01 0.98929397D-01 0.64936867D+05 0.64936867D+05 0.64936867D+05 0.11812001D+01  1  2  4  3  6  5       -1 -.809006875496D-01 0.100000000000D+01
-.708476238254D-04 0.000000000000D+00 0.000000000000D+00 0.303942431174D-06 0.000000000000D+00  6 -1 21 25 23 -1 21 4 0.18115119D-01 0.98929397D-01 0.64936867D+05 0.64936867D+05 0.64936867D+05 0.11812001D+01  1  2  5  3  6  5       -1 -.243833042011D-01 0.100000000000D+01
0.144885216645D-03 0.000000000000D+00 -.000000000000D+00 0.303942431174D-06 0.000000000000D+00  6 -1 21 25 23 -1 21 4 0.18115119D-01 0.98929397D-01 0.64936867D+05 0.64936867D+05 0.64936867D+05 0.11812001D+01  1  2  6  3  6  5       -1 0.498644855107D-01 0.100000000000D+01
0.116296895857D-03 0.000000000000D+00 0.000000000000D+00 0.303942431174D-06 0.530553229638D-06  6 -1 21 25 23 -1 21 4 0.18115119D-01 0.98929397D-01 0.64955865D+05 0.64955865D+05 0.64955865D+05 0.11811878D+01  1  2 11  3  6  5       -1 0.400232765328D-01 0.100000000000D+01
  </mgrwgt>
  </event>
  <event>
  6     66 0.44233958E-03 0.91264865E+02 0.75467711E-02 0.11208717E+00
       -1 -1    0    0    0  501 0.00000000E+00 0.00000000E+00 0.26798733E+03 0.26798753E+03 0.32000000E+00 0.0000E+00 0.9000E+01
       21 -1    0    0  501  502 0.00000000E+00 0.00000000E+00 -.25127903E+03 0.25128015E+03 0.75000000E+00 0.0000E+00 0.9000E+01
       25  1    1    2    0    0 -.62238736E+02 0.80134600E+02 0.65516118E+02 0.17381765E+03 0.12500000E+03 0.0000E+00 0.9000E+01
       23  1    1    2    0    0 0.14195110E+03 -.13690990E+03 0.26770298E+02 0.21892085E+03 0.91188000E+02 0.0000E+00 0.9000E+01
       -1  1    1    2    0  503 -.74906046E+02 0.56223554E+02 -.62587807E+02 0.11264697E+03 0.32000000E+00 0.0000E+00 0.9000E+01
       21  1    1    2  503  502 -.48063225E+01 0.55174878E+00 -.12990306E+02 0.13882208E+02 0.75000000E+00 0.0000E+00 0.9000E+01
#aMCatNLO 2  0  0  5  2 0.81467897D+01 0.00000000D+00  -5  6  0 0.00000000D+00 0.00000000D+00 0.00000000D+00 0.00000000D+00 0.00000000D+00
  <mgrwgt>
 0.9751326519D-02    3    2    0
 0.259499399321718D+03 0.000000000000000D+00 0.000000000000000D+00 0.259499399321718D+03
 0.259499399321718D+03 -.000000000000000D+00 -.000000000000000D+00 -.259499399321718D+03
 0.171596650827479D+03 -.616476258411164D+02 0.797135805261381D+02 0.605452383186675D+02
 0.219068032427192D+03 0.142703756594206D+03 -.137445980433976D+03 0.204888214391668D+02
 0.128334115388765D+03 -.810561307530898D+02 0.577323999078376D+02 -.810340597578344D+02
 0.000000000000000D+00 0.000000000000000D+00 0.000000000000000D+00 -.000000000000000D+00
 0.259499399321718D+03 0.000000000000000D+00 0.000000000000000D+00 0.259499399321718D+03
 0.259499399321718D+03 -.000000000000000D+00 -.000000000000000D+00 -.259499399321718D+03
 0.171799302559533D+03 -.622410027992316D+02 0.801362145147547D+02 0.599520229327850D+02
 0.218169018691227D+03 0.141948225293360D+03 -.136907851673102D+03 0.197334958640019D+02
 0.114706540851991D+03 -.749118632410080D+02 0.562456980055334D+02 -.661983739668900D+02
 0.143239365406847D+02 -.479535925311991D+01 0.525939152813984D+00 -.134871448298970D+02
-.440722532281D-05 0.000000000000D+00 0.000000000000D+00 0.867170944080D-07 0.000000000000D+00  6 -1 21 25 23 -1 21 4 0.41228922D-01 0.38658413D-01 0.56828603D+05 0.56828603D+05 0.56828603D+05 0.11868146D+01  1  2 13  3  6  5       -1 -.300364174986D-02 0.100000000000D+01
-.102622534001D-04 0.000000000000D+00 0.000000000000D+00 0.866805694929D-07 0.000000000000D+00  6 -1 21 25 23 -1 21 4 0.41228922D-01 0.38658413D-01 0.57164693D+05 0.57164693D+05 0.57164693D+05 0.11865646D+01  1  2  8  3  6  5       -1 -.698699154366D-02 0.100000000000D+01
0.289672578995D-04 0.000000000000D+00 0.000000000000D+00 0.866805694929D-07 0.870994571180D-07  6 -1 21 25 23 -1 21 4 0.41228922D-01 0.38658413D-01 0.56828603D+05 0.56828603D+05 0.56828603D+05 0.11868146D+01  1  2  1  3  6  5       -1 0.197419598121D-01 0.100000000000D+01
  </mgrwgt>
  </event>
  <event>
  5     66 0.44233958E-03 0.83660079E+02 0.75467711E-02 0.11134091E+00
       -1 -1    0    0    0  501 0.00000000E+00 0.00000000E+00 0.88222063E+03 0.88222069E+03 0.32000000E+00 0.0000E+00 0.9000E+01
       21 -1    0    0  501  502 0.00000000E+00 0.00000000E+00 -.55969041E+02 0.55974066E+02 0.75000000E+00 0.0000E+00 0.9000E+01
       25  1    1    2    0    0 0.12036852E+03 0.22660627E+02 0.67024049E+03 0.69271163E+03 0.12500000E+03 0.0000E+00 0.9000E+01
       23  1    1    2    0    0 -.48896133E+02 0.20820942E+02 0.79830227E+02 0.13233465E+03 0.91188000E+02 0.0000E+00 0.9000E+01
       -1  1    1    2    0  502 -.71472391E+02 -.43481569E+02 0.76180872E+02 0.11314847E+03 0.32000000E+00 0.0000E+00 0.9000E+01
#aMCatNLO 1  0  0  2  2 0.11687740D+03 0.00000000D+00  -5  6  0 0.00000000D+00 0.00000000D+00 0.00000000D+00 0.00000000D+00 0.00000000D+00
  <mgrwgt>
 0.6186404524D-02   14    4    0
 0.222214821660649D+03 0.000000000000000D+00 0.000000000000000D+00 0.222214821660649D+03
 0.222214821660649D+03 0.000000000000000D+00 0.000000000000000D+00 -.222214821660649D+03
 0.216257473479423D+03 0.120368712712424D+03 0.226607414771948D+02 0.127043924023784D+03
 0.130944885909361D+03 -.488960190557752D+02 0.208210116453167D+02 -.775046875768075D+02
 0.972272839325140D+02 -.714726936566490D+02 -.434817531225116D+02 -.495392364469766D+02
 0.000000000000000D+00 -.000000000000000D+00 -.000000000000000D+00 -.000000000000000D+00
 0.261492719873744D+03 0.000000000000000D+00 0.000000000000000D+00 0.261492719873744D+03
 0.337426566726599D+03 0.000000000000000D+00 0.000000000000000D+00 -.337426566726599D+03
 0.236255794542134D+03 0.132984961902400D+03 0.797912384362546D+02 0.127043924023784D+03
 0.137971182192643D+03 -.413985325374314D+02 0.547720793744777D+02 -.775046875768075D+02
 0.853141358509041D+02 -.663833665534936D+02 -.204356177607033D+02 -.495392364469766D+02
 0.139378174014662D+03 -.252030628114748D+02 -.114127700050029D+03 -.759338468528547D+02
 0.222214821660649D+03 0.000000000000000D+00 0.000000000000000D+00 0.222214821660649D+03
 0.222214821660649D+03 0.000000000000000D+00 0.000000000000000D+00 -.222214821660649D+03
 0.216257473479423D+03 0.120368712712424D+03 0.226607414771948D+02 0.127043924023784D+03
 0.130944885909361D+03 -.488960190557752D+02 0.208210116453167D+02 -.775046875768075D+02
 0.000000000000000D+00 -.000000000000000D+00 -.000000000000000D+00 -.000000000000000D+00
 0.972272839325140D+02 -.714726936566490D+02 -.434817531225116D+02 -.495392364469766D+02
 0.261492719873744D+03 0.000000000000000D+00 0.000000000000000D+00 0.261492719873744D+03
 0.337426566726599D+03 0.000000000000000D+00 0.000000000000000D+00 -.337426566726599D+03
 0.236255794542134D+03 0.132984961902400D+03 0.797912384362546D+02 0.127043924023784D+03
 0.137971182192643D+03 -.413985325374314D+02 0.547720793744777D+02 -.775046875768075D+02
 0.139378174014662D+03 -.252030628114748D+02 -.114127700050029D+03 -.759338468528547D+02
 0.853141358509041D+02 -.663833665534936D+02 -.204356177607033D+02 -.495392364469766D+02
0.406609064542D-05 0.000000000000D+00 0.000000000000D+00 0.965248442015D-07 0.000000000000D+00  6 -1 21 25 23 -1 21 2 0.13572664D+00 0.86110127D-02 0.33162308D+05 0.33162308D+05 0.33162308D+05 0.12103568D+01  1  2  2  2  6  2       21 0.290994440031D-02 0.100000000000D+01
-.181222024248D-06 0.214573498433D-06 -.820826552045D-08 0.965248442015D-07 0.000000000000D+00  6 -1 21 25 23 -1 21 4 0.13572664D+00 0.86110127D-02 0.33162308D+05 0.33162308D+05 0.33162308D+05 0.12103568D+01  1  2  3  2  6  2       21 -.189996435145D-03 0.100000000000D+01
0.435004683424D-06 0.000000000000D+00 0.000000000000D+00 0.965248442015D-07 0.000000000000D+00  6 -1 21 25 23 -1 21 4 0.13572664D+00 0.86110127D-02 0.33162308D+05 0.33162308D+05 0.33162308D+05 0.12103568D+01  1  2 15  2  6  2       21 0.456066747210D-03 0.100000000000D+01
-.623276249489D-06 0.000000000000D+00 0.000000000000D+00 0.965248442015D-07 0.000000000000D+00  6 -1 21 25 23 -1 21 4 0.13572664D+00 0.86110127D-02 0.33162308D+05 0.33162308D+05 0.33162308D+05 0.12103568D+01  1  2  4  2  6  2       21 -.653454049001D-03 0.100000000000D+01
-.866130398953D-05 0.000000000000D+00 -.522502233126D-05 0.965248442015D-07 0.000000000000D+00  6 -1 21 25 23 -1 21 4 0.13572664D+00 0.15368550D-01 0.33162308D+05 0.33162308D+05 0.33162308D+05 0.12103568D+01  1  2  5  2  6  2       21 -.323360670632D-02 0.100000000000D+01
0.683623514636D-05 0.000000000000D+00 0.288806719215D-05 0.965248442015D-07 0.000000000000D+00  6 -1 21 25 23 -1 21 4 0.13572664D+00 0.86110127D-02 0.33162308D+05 0.33162308D+05 0.33162308D+05 0.12103568D+01  1  2  6  2  6  2       21 0.716723209007D-02 0.100000000000D+01
-.133334718369D-05 0.000000000000D+00 -.107268003593D-05 0.965248442015D-07 0.000000000000D+00  6 -1 -1 25 23 -1 -1 4 0.13572664D+00 0.15368550D-01 0.33162308D+05 0.33162308D+05 0.33162308D+05 0.12103568D+01  1  2  5  5  6  2       21 -.368644266801D-04 0.100000000000D+01
-.133334718369D-05 0.000000000000D+00 -.107268003593D-05 0.965248442015D-07 0.000000000000D+00  6 -1 1 25 23 1 -1 4 0.13572664D+00 0.15368550D-01 0.33162308D+05 0.33162308D+05 0.33162308D+05 0.12103568D+01  3  4  5  6  5  2       21 -.511344921835D-04 0.100000000000D+01
-.133334718369D-05 0.000000000000D+00 -.107268003593D-05 0.965248442015D-07 0.000000000000D+00  6 -1 -2 25 23 -1 -2 4 0.13572664D+00 0.15368550D-01 0.33162308D+05 0.33162308D+05 0.33162308D+05 0.12103568D+01  1  2  5  7  6  2       21 -.344181459963D-04 0.100000000000D+01
-.133334718369D-05 0.000000000000D+00 -.107268003593D-05 0.965248442015D-07 0.000000000000D+00  6 -1 -4 25 23 -1 -4 4 0.13572664D+00 0.15368550D-01 0.33162308D+05 0.33162308D+05 0.33162308D+05 0.12103568D+01  1  2  5  7  6  2       21 -.200283833493D-04 0.100000000000D+01
-.133334718369D-05 0.000000000000D+00 -.107268003593D-05 0.965248442015D-07 0.000000000000D+00  6 -1 2 25 23 2 -1 4 0.13572664D+00 0.15368550D-01 0.33162308D+05 0.33162308D+05 0.33162308D+05 0.12103568D+01  3  4  5  8  5  2       21 -.610149313928D-04 0.100000000000D+01
-.133334718369D-05 0.000000000000D+00 -.107268003593D-05 0.965248442015D-07 0.000000000000D+00  6 -1 4 25 23 4 -1 4 0.13572664D+00 0.15368550D-01 0.33162308D+05 0.33162308D+05 0.33162308D+05 0.12103568D+01  3  4  5  8  5  2       21 -.200283833493D-04 0.100000000000D+01
-.133334718369D-05 0.000000000000D+00 -.107268003593D-05 0.965248442015D-07 0.000000000000D+00  6 -1 -3 25 23 -1 -3 4 0.13572664D+00 0.15368550D-01 0.33162308D+05 0.33162308D+05 0.33162308D+05 0.12103568D+01  1  2  5  9  6  2       21 -.231476909735D-04 0.100000000000D+01
-.133334718369D-05 0.000000000000D+00 -.107268003593D-05 0.965248442015D-07 0.000000000000D+00  6 -1 3 25 23 3 -1 4 0.13572664D+00 0.15368550D-01 0.33162308D+05 0.33162308D+05 0.33162308D+05 0.12103568D+01  3  4  5 10  5  2       21 -.231450691534D-04 0.100000000000D+01
  </mgrwgt>
  </event>
  <event>
  5     66 0.44233958E-03 0.23552256E+02 0.75467711E-02 0.10224435E+00
       -1 -1    0    0    0  501 0.00000000E+00 0.00000000E+00 0.23436912E+03 0.23436933E+03 0.32000000E+00 0.0000E+00 0.9000E+01
       21 -1    0    0  501  502 0.00000000E+00 0.00000000E+00 -.39961849E+03 0.39961919E+03 0.75000000E+00 0.0000E+00 0.9000E+01
       25  1    1    2    0    0 0.13400732E+03 -.53888057E+02 0.13140663E+03 0.23185035E+03 0.12500000E+03 0.0000E+00 0.9000E+01
       23  1    1    2    0    0 -.13507201E+03 0.30359908E+02 -.79756341E+02 0.18396330E+03 0.91188000E+02 0.0000E+00 0.9000E+01
       -1  1    1    2    0  502 0.10646879E+01 0.23528148E+02 -.21689966E+03 0.21817487E+03 0.32000000E+00 0.0000E+00 0.9000E+01
#aMCatNLO 1  0  0  2  2 0.15275170D+03 0.00000000D+00  -5  6  0 0.00000000D+00 0.00000000D+00 0.00000000D+00 0.00000000D+00 0.00000000D+00
  <mgrwgt>
 0.1130841026D-01   12    4    0
 0.306036800951371D+03 0.000000000000000D+00 0.000000000000000D+00 0.306036800951371D+03
 0.306036800951371D+03 0.000000000000000D+00 0.000000000000000D+00 -.306036800951371D+03
 0.275629252867750D+03 0.134007318044485D+03 -.538880758976880D+02 0.198707320003576D+03
 0.169017133743599D+03 -.135072007340219D+03 0.303598966164421D+02 -.329449490123170D+02
 0.167427215291394D+03 0.106468929573470D+01 0.235281792812458D+02 -.165762370991259D+03
 0.000000000000000D+00 -.000000000000000D+00 0.000000000000000D+00 -.000000000000000D+00
 0.369367099386620D+03 0.000000000000000D+00 0.000000000000000D+00 0.369367099386620D+03
 0.437385363547714D+04 0.000000000000000D+00 0.000000000000000D+00 -.437385363547714D+04
 0.379049391940622D+03 0.183857208329153D+03 -.234020019342283D+03 0.198707320003576D+03
 0.158428276212445D+03 -.110138984260927D+03 -.597352646281393D+02 -.329449490123170D+02
 0.183220882285976D+03 0.277644592231255D+02 -.729510991901787D+02 -.165762370991259D+03
 0.402252218442471D+04 -.101482683291351D+03 0.366706383160601D+03 -.400448653609052D+04
 0.306036800951371D+03 0.000000000000000D+00 0.000000000000000D+00 0.306036800951371D+03
 0.306036800951371D+03 0.000000000000000D+00 0.000000000000000D+00 -.306036800951371D+03
 0.275629252867750D+03 0.134007318044485D+03 -.538880758976880D+02 0.198707320003576D+03
 0.169017133743599D+03 -.135072007340219D+03 0.303598966164421D+02 -.329449490123170D+02
 0.000000000000000D+00 -.000000000000000D+00 0.000000000000000D+00 -.000000000000000D+00
 0.167427215291394D+03 0.106468929573470D+01 0.235281792812458D+02 -.165762370991259D+03
 0.369367099386620D+03 0.000000000000000D+00 0.000000000000000D+00 0.369367099386620D+03
 0.437385363547714D+04 0.000000000000000D+00 0.000000000000000D+00 -.437385363547714D+04
 0.379049391940622D+03 0.183857208329153D+03 -.234020019342283D+03 0.198707320003576D+03
 0.158428276212445D+03 -.110138984260927D+03 -.597352646281393D+02 -.329449490123170D+02
 0.402252218442471D+04 -.101482683291351D+03 0.366706383160601D+03 -.400448653609052D+04
 0.183220882285976D+03 0.277644592231255D+02 -.729510991901787D+02 -.165762370991259D+03
0.291669710488D-04 0.000000000000D+00 0.000000000000D+00 0.176455827275D-05 0.000000000000D+00  6 -1 21 25 23 -1 21 2 0.36056858D-01 0.61479838D-01 0.36165176D+05 0.36165176D+05 0.36165176D+05 0.12064706D+01  1  2  2  2  6  2       21 0.712029909866D-02 0.100000000000D+01
0.895513892615D-05 0.153918334892D-05 -.588797111707D-07 0.176455827275D-05 0.000000000000D+00  6 -1 21 25 23 -1 21 4 0.36056858D-01 0.61479838D-01 0.36165176D+05 0.36165176D+05 0.36165176D+05 0.12064706D+01  1  2  3  2  6  2       21 0.318209174121D-02 0.100000000000D+01
0.284827912201D-05 0.000000000000D+00 0.000000000000D+00 0.176455827275D-05 0.000000000000D+00  6 -1 21 25 23 -1 21 4 0.36056858D-01 0.61479838D-01 0.36165176D+05 0.36165176D+05 0.36165176D+05 0.12064706D+01  1  2 15  2  6  2       21 0.101209881226D-02 0.100000000000D+01
-.167347381922D-02 0.000000000000D+00 -.166814602798D-02 0.176455827275D-05 0.000000000000D+00  6 -1 21 25 23 -1 21 4 0.36056858D-01 0.88194095D+00 0.36165176D+05 0.36165176D+05 0.36165176D+05 0.12064706D+01  1  2  5  2  6  2       21 -.560181365833D-07 0.100000000000D+01
-.654571978127D-03 0.000000000000D+00 -.735629306206D-03 0.176455827275D-05 0.000000000000D+00  6 -1 -1 25 23 -1 -1 4 0.36056858D-01 0.88194095D+00 0.36165176D+05 0.36165176D+05 0.36165176D+05 0.12064706D+01  1  2  5  5  6  2       21 -.221840264464D-06 0.100000000000D+01
-.654571978127D-03 0.000000000000D+00 -.735629306206D-03 0.176455827275D-05 0.000000000000D+00  6 -1 1 25 23 1 -1 4 0.36056858D-01 0.88194095D+00 0.36165176D+05 0.36165176D+05 0.36165176D+05 0.12064706D+01  3  4  5  6  5  2       21 -.995210013226D-06 0.100000000000D+01
-.654571978127D-03 0.000000000000D+00 -.735629306206D-03 0.176455827275D-05 0.000000000000D+00  6 -1 -2 25 23 -1 -2 4 0.36056858D-01 0.88194095D+00 0.36165176D+05 0.36165176D+05 0.36165176D+05 0.12064706D+01  1  2  5  7  6  2       21 -.217545872010D-06 0.100000000000D+01
-.654571978127D-03 0.000000000000D+00 -.735629306206D-03 0.176455827275D-05 0.000000000000D+00  6 -1 -4 25 23 -1 -4 4 0.36056858D-01 0.88194095D+00 0.36165176D+05 0.36165176D+05 0.36165176D+05 0.12064706D+01  1  2  5  7  6  2       21 -.242404905301D-09 0.100000000000D+01
-.654571978127D-03 0.000000000000D+00 -.735629306206D-03 0.176455827275D-05 0.000000000000D+00  6 -1 2 25 23 2 -1 4 0.36056858D-01 0.88194095D+00 0.36165176D+05 0.36165176D+05 0.36165176D+05 0.12064706D+01  3  4  5  8  5  2       21 -.447789816867D-05 0.100000000000D+01
-.654571978127D-03 0.000000000000D+00 -.735629306206D-03 0.176455827275D-05 0.000000000000D+00  6 -1 4 25 23 4 -1 4 0.36056858D-01 0.88194095D+00 0.36165176D+05 0.36165176D+05 0.36165176D+05 0.12064706D+01  3  4  5  8  5  2       21 -.242404905301D-09 0.100000000000D+01
-.654571978127D-03 0.000000000000D+00 -.735629306206D-03 0.176455827275D-05 0.000000000000D+00  6 -1 -3 25 23 -1 -3 4 0.36056858D-01 0.88194095D+00 0.36165176D+05 0.36165176D+05 0.36165176D+05 0.12064706D+01  1  2  5  9  6  2       21 -.405223319291D-07 0.100000000000D+01
-.654571978127D-03 0.000000000000D+00 -.735629306206D-03 0.176455827275D-05 0.000000000000D+00  6 -1 3 25 23 3 -1 4 0.36056858D-01 0.88194095D+00 0.36165176D+05 0.36165176D+05 0.36165176D+05 0.12064706D+01  3  4  5 10  5  2       21 -.698710327952D-07 0.100000000000D+01
  </mgrwgt>
  </event>
  <event>
  5     66 -.44233958E-03 0.28741900E+02 0.75467711E-02 0.11587504E+00
       -1 -1    0    0    0  501 0.00000000E+00 0.00000000E+00 0.32496247E+03 0.32496263E+03 0.32000000E+00 0.0000E+00 0.9000E+01
       21 -1    0    0  501  502 0.00000000E+00 0.00000000E+00 -.67829185E+02 0.67833331E+02 0.75000000E+00 0.0000E+00 0.9000E+01
       25  1    1    2    0    0 0.68927288E+02 -.59722226E+01 0.11150176E+03 0.18122991E+03 0.12500000E+03 0.0000E+00 0.9000E+01
       23  1    1    2    0    0 -.69000235E+02 0.34712746E+02 0.13647140E+03 0.18139929E+03 0.91188000E+02 0.0000E+00 0.9000E+01
       -1  1    1    2    0  502 0.72946887E-01 -.28740523E+02 0.91601220E+01 0.30166757E+02 0.32000000E+00 0.0000E+00 0.9000E+01
#aMCatNLO 1  0  0  2  2 0.15460428D+03 0.00000000D+00  -5  6  0 0.00000000D+00 0.00000000D+00 0.00000000D+00 0.00000000D+00 0.00000000D+00
  <mgrwgt>
 -.1522139785D-01   12    4    0
 0.148468126686081D+03 0.000000000000000D+00 0.000000000000000D+00 0.148468126686081D+03
 0.148468126686081D+03 0.000000000000000D+00 0.000000000000000D+00 -.148468126686081D+03
 0.143180723316987D+03 0.689272860665865D+02 -.597152850645272D+01 -.943872938309139D+01
 0.121782483048191D+03 -.690002362141140D+02 0.347133362596875D+02 0.234451172208922D+02
 0.319730470069843D+02 0.729501475274626D-01 -.287418077532348D+02 -.140063878378008D+02
 0.000000000000000D+00 -.000000000000000D+00 0.000000000000000D+00 -.000000000000000D+00
 0.155267295022033D+03 0.000000000000000D+00 0.000000000000000D+00 0.155267295022033D+03
 0.986439445013818D+03 0.000000000000000D+00 0.000000000000000D+00 -.986439445013818D+03
 0.150573203168015D+03 0.710672494611228D+02 -.436766064837889D+02 -.943872938309139D+01
 0.115792554777267D+03 -.672695295288094D+02 0.421915552186904D+01 0.234451172208922D+02
 0.405511811042387D+02 0.601280765034761D+00 -.380507273271809D+02 -.140063878378008D+02
 0.834789800986329D+03 -.439900069734809D+01 0.775081782891007D+02 -.831172149991784D+03
 0.148468126686081D+03 0.000000000000000D+00 0.000000000000000D+00 0.148468126686081D+03
 0.148468126686081D+03 0.000000000000000D+00 0.000000000000000D+00 -.148468126686081D+03
 0.143180723316987D+03 0.689272860665865D+02 -.597152850645272D+01 -.943872938309139D+01
 0.121782483048191D+03 -.690002362141140D+02 0.347133362596875D+02 0.234451172208922D+02
 0.000000000000000D+00 -.000000000000000D+00 0.000000000000000D+00 -.000000000000000D+00
 0.319730470069843D+02 0.729501475274626D-01 -.287418077532348D+02 -.140063878378008D+02
 0.155267295022033D+03 0.000000000000000D+00 0.000000000000000D+00 0.155267295022033D+03
 0.986439445013818D+03 0.000000000000000D+00 0.000000000000000D+00 -.986439445013818D+03
 0.150573203168015D+03 0.710672494611228D+02 -.436766064837889D+02 -.943872938309139D+01
 0.115792554777267D+03 -.672695295288094D+02 0.421915552186904D+01 0.234451172208922D+02
 0.834789800986329D+03 -.439900069734809D+01 0.775081782891007D+02 -.831172149991784D+03
 0.405511811042387D+02 0.601280765034761D+00 -.380507273271809D+02 -.140063878378008D+02
0.236401278313D-06 0.000000000000D+00 0.000000000000D+00 0.528120102913D-06 0.000000000000D+00  6 -1 21 25 23 -1 21 2 0.49994557D-01 0.10435590D-01 0.21187068D+05 0.21187068D+05 0.21187068D+05 0.12310788D+01  1  2  2  2  6  2       21 0.102179310691D-02 0.100000000000D+01
0.105771168384D-07 0.124752381944D-07 -.477226070686D-09 0.528120102913D-06 0.000000000000D+00  6 -1 21 25 23 -1 21 4 0.49994557D-01 0.10435590D-01 0.21187068D+05 0.21187068D+05 0.21187068D+05 0.12310788D+01  1  2  3  2  6  2       21 0.692870581158D-04 0.100000000000D+01
0.234790839048D-07 0.000000000000D+00 0.000000000000D+00 0.528120102913D-06 0.000000000000D+00  6 -1 21 25 23 -1 21 4 0.49994557D-01 0.10435590D-01 0.21187068D+05 0.21187068D+05 0.21187068D+05 0.12310788D+01  1  2 15  2  6  2       21 0.153803411258D-03 0.100000000000D+01
-.682985129902D-04 0.000000000000D+00 -.301278690493D-05 0.528120102913D-06 0.000000000000D+00  6 -1 21 25 23 -1 21 4 0.49994557D-01 0.70476813D-01 0.21187068D+05 0.21187068D+05 0.21187068D+05 0.12310788D+01  1  2  5  2  6  2       21 -.111445796242D-01 0.100000000000D+01
-.286184498996D-04 0.000000000000D+00 -.128904374558D-05 0.528120102913D-06 0.000000000000D+00  6 -1 -1 25 23 -1 -1 4 0.49994557D-01 0.70476813D-01 0.21187068D+05 0.21187068D+05 0.21187068D+05 0.12310788D+01  1  2  5  5  6  2       21 -.496779164783D-03 0.100000000000D+01
-.286184498996D-04 0.000000000000D+00 -.128904374558D-05 0.528120102913D-06 0.000000000000D+00  6 -1 1 25 23 1 -1 4 0.49994557D-01 0.70476813D-01 0.21187068D+05 0.21187068D+05 0.21187068D+05 0.12310788D+01  3  4  5  6  5  2       21 -.140920093093D-02 0.100000000000D+01
-.286184498996D-04 0.000000000000D+00 -.128904374558D-05 0.528120102913D-06 0.000000000000D+00  6 -1 -2 25 23 -1 -2 4 0.49994557D-01 0.70476813D-01 0.21187068D+05 0.21187068D+05 0.21187068D+05 0.12310788D+01  1  2  5  7  6  2       21 -.385802259247D-03 0.100000000000D+01
-.286184498996D-04 0.000000000000D+00 -.128904374558D-05 0.528120102913D-06 0.000000000000D+00  6 -1 -4 25 23 -1 -4 4 0.49994557D-01 0.70476813D-01 0.21187068D+05 0.21187068D+05 0.21187068D+05 0.12310788D+01  1  2  5  7  6  2       21 -.195293608588D-03 0.100000000000D+01
-.286184498996D-04 0.000000000000D+00 -.128904374558D-05 0.528120102913D-06 0.000000000000D+00  6 -1 2 25 23 2 -1 4 0.49994557D-01 0.70476813D-01 0.21187068D+05 0.21187068D+05 0.21187068D+05 0.12310788D+01  3  4  5  8  5  2       21 -.215721533976D-02 0.100000000000D+01
-.286184498996D-04 0.000000000000D+00 -.128904374558D-05 0.528120102913D-06 0.000000000000D+00  6 -1 4 25 23 4 -1 4 0.49994557D-01 0.70476813D-01 0.21187068D+05 0.21187068D+05 0.21187068D+05 0.12310788D+01  3  4  5  8  5  2       21 -.195293608588D-03 0.100000000000D+01
-.286184498996D-04 0.000000000000D+00 -.128904374558D-05 0.528120102913D-06 0.000000000000D+00  6 -1 -3 25 23 -1 -3 4 0.49994557D-01 0.70476813D-01 0.21187068D+05 0.21187068D+05 0.21187068D+05 0.12310788D+01  1  2  5  9  6  2       21 -.240940785060D-03 0.100000000000D+01
-.286184498996D-04 0.000000000000D+00 -.128904374558D-05 0.528120102913D-06 0.000000000000D+00  6 -1 3 25 23 3 -1 4 0.49994557D-01 0.70476813D-01 0.21187068D+05 0.21187068D+05 0.21187068D+05 0.12310788D+01  3  4  5 10  5  2       21 -.241176108912D-03 0.100000000000D+01
  </mgrwgt>
  </event>
  <event>
  5     66 0.44233958E-03 0.52573875E+02 0.75467711E-02 0.10672134E+00
       -1 -1    0    0    0  501 0.00000000E+00 0.00000000E+00 0.70010069E+03 0.70010077E+03 0.32000000E+00 0.0000E+00 0.9000E+01
       21 -1    0    0  501  502 0.00000000E+00 0.00000000E+00 -.45136473E+02 0.45142704E+02 0.75000000E+00 0.0000E+00 0.9000E+01
       25  1    1    2    0    0 0.13792903E+02 0.58310128E+02 0.31057959E+03 0.34011027E+03 0.12500000E+03 0.0000E+00 0.9000E+01
       23  1    1    2    0    0 0.10557849E+02 -.11715772E+02 0.34000784E+03 0.35237666E+03 0.91188000E+02 0.0000E+00 0.9000E+01
       -1  1    1    2    0  502 -.24350752E+02 -.46594356E+02 0.43767833E+01 0.52756533E+02 0.32000000E+00 0.0000E+00 0.9000E+01
#aMCatNLO 1  0  0  1  2 0.20180202D+01 0.00000000D+00  -5  6  0 0.00000000D+00 0.00000000D+00 0.00000000D+00 0.00000000D+00 0.00000000D+00
  <mgrwgt>
 0.3468769689D-02    5    4    0
 0.177770709285702D+03 0.000000000000000D+00 0.000000000000000D+00 0.177770709285702D+03
 0.177770709285702D+03 0.000000000000000D+00 0.000000000000000D+00 -.177770709285702D+03
 0.140761281100142D+03 0.137929495414025D+02 0.583102175396489D+02 0.244624473505916D+02
 0.112261072298129D+03 0.105578867780182D+02 -.117157001283175D+02 0.635497474960492D+02
 0.102519065173133D+03 -.243508363194206D+02 -.465945174113314D+02 -.880121948466408D+02
 0.000000000000000D+00 0.000000000000000D+00 0.000000000000000D+00 0.000000000000000D+00
 0.419176290783504D+03 0.000000000000000D+00 0.000000000000000D+00 0.419176290783504D+03
 0.319266292077181D+03 0.000000000000000D+00 0.000000000000000D+00 -.319266292077181D+03
 0.142183127767894D+03 -.631803137723151D+02 0.937252960770621D+00 0.244624473505916D+02
 0.140349384185272D+03 -.581632138102034D+02 -.629378141473151D+02 0.635497474960492D+02
 0.165522053167350D+03 -.972697523123782D+02 -.100945524557063D+03 -.880121948466408D+02
 0.290388017740170D+03 0.218613279894897D+03 0.162946085743608D+03 0.999099987063228D+02
 0.177770709285702D+03 0.000000000000000D+00 0.000000000000000D+00 0.177770709285702D+03
 0.177770709285702D+03 0.000000000000000D+00 0.000000000000000D+00 -.177770709285702D+03
 0.140761281100142D+03 0.137929495414025D+02 0.583102175396489D+02 0.244624473505916D+02
 0.112261072298129D+03 0.105578867780182D+02 -.117157001283175D+02 0.635497474960492D+02
 0.000000000000000D+00 0.000000000000000D+00 0.000000000000000D+00 0.000000000000000D+00
 0.102519065173133D+03 -.243508363194206D+02 -.465945174113314D+02 -.880121948466408D+02
 0.419176290783504D+03 0.000000000000000D+00 0.000000000000000D+00 0.419176290783504D+03
 0.319266292077181D+03 0.000000000000000D+00 0.000000000000000D+00 -.319266292077181D+03
 0.142183127767894D+03 -.631803137723151D+02 0.937252960770621D+00 0.244624473505916D+02
 0.140349384185272D+03 -.581632138102034D+02 -.629378141473151D+02 0.635497474960492D+02
 0.290388017740170D+03 0.218613279894897D+03 0.162946085743608D+03 0.999099987063228D+02
 0.165522053167350D+03 -.972697523123782D+02 -.100945524557063D+03 -.880121948466408D+02
0.146782272132D-05 0.000000000000D+00 0.000000000000D+00 0.837996614779D-06 0.000000000000D+00  6 -1 21 25 23 -1 21 2 0.10770828D+00 0.69445577D-02 0.20126387D+05 0.20126387D+05 0.20126387D+05 0.12335250D+01  1  2  2  1  6  1       -1 0.275048278035D-02 0.100000000000D+01
0.387336976093D-07 0.774591330735D-07 -.296311117587D-08 0.837996614779D-06 0.000000000000D+00  6 -1 21 25 23 -1 21 4 0.10770828D+00 0.69445577D-02 0.20126387D+05 0.20126387D+05 0.20126387D+05 0.12335250D+01  1  2  3  1  6  1       -1 0.110438416616D-03 0.100000000000D+01
0.144044428286D-06 0.000000000000D+00 0.000000000000D+00 0.837996614779D-06 0.000000000000D+00  6 -1 21 25 23 -1 21 4 0.10770828D+00 0.69445577D-02 0.20126387D+05 0.20126387D+05 0.20126387D+05 0.12335250D+01  1  2 15  1  6  1       -1 0.410702813419D-03 0.100000000000D+01
0.104180919125D-05 0.000000000000D+00 -.137508340100D-05 0.837996614779D-06 0.000000000000D+00  6 -1 21 25 23 -1 21 4 0.35192949D+00 0.69445577D-02 0.20126387D+05 0.20126387D+05 0.20126387D+05 0.12335250D+01  1  2  5  1  6  1       -1 0.672020554154D-04 0.100000000000D+01
0.198702270963D-06 0.000000000000D+00 -.188211602038D-06 0.837996614779D-06 0.000000000000D+00  6 21 21 25 23 1 -1 4 0.35192949D+00 0.69445577D-02 0.20126387D+05 0.20126387D+05 0.20126387D+05 0.12335250D+01  3  4  5  4  5  1       -1 0.129943622975D-03 0.100000000000D+01
  </mgrwgt>
  </event>
  <event>
  5     66 0.44233958E-03 0.11265858E+03 0.75467711E-02 0.10793918E+00
       -3 -1    0    0    0  501 0.00000000E+00 0.00000000E+00 0.24875807E+03 0.24875857E+03 0.50000000E+00 0.0000E+00 0.9000E+01
       21 -1    0    0  501  502 0.00000000E+00 0.00000000E+00 -.39415199E+03 0.39415270E+03 0.75000000E+00 0.0000E+00 0.9000E+01
       25  1    1    2    0    0 -.24604884E+02 0.39221493E+02 0.26749012E+02 0.13595674E+03 0.12500000E+03 0.0000E+00 0.9000E+01
       23  1    1    2    0    0 -.47445115E+02 0.18326574E+03 -.17441388E+03 0.27308025E+03 0.91188000E+02 0.0000E+00 0.9000E+01
       -3  1    1    2    0  502 0.72049998E+02 -.22248724E+03 0.22709516E+01 0.23387428E+03 0.50000000E+00 0.0000E+00 0.9000E+01
#aMCatNLO 1  0  0  2  1 0.46504217D+02 0.00000000D+00  -5  6  0 0.00000000D+00 0.00000000D+00 0.00000000D+00 0.00000000D+00 0.00000000D+00
  <mgrwgt>
 0.2335694417D-02   23    4    0
 0.313127577257418D+03 0.000000000000000D+00 0.000000000000000D+00 0.313127577257418D+03
 0.313127577257418D+03 0.000000000000000D+00 0.000000000000000D+00 -.313127577257418D+03
 0.145782881802136D+03 -.246049197121170D+02 0.392216044366724D+02 0.590246753308226D+02
 0.239850747238849D+03 -.474451742600539D+02 0.183265927272113D+03 -.115653296310826D+03
 0.240621525473852D+03 0.720500939721709D+02 -.222487531708786D+03 0.566286209800037D+02
 0.000000000000000D+00 0.000000000000000D+00 0.000000000000000D+00 -.000000000000000D+00
 0.335963746469252D+03 0.000000000000000D+00 0.000000000000000D+00 0.335963746469252D+03
 0.338594234025332D+03 0.000000000000000D+00 0.000000000000000D+00 -.338594234025332D+03
 0.143826457735142D+03 -.273120319066670D+02 0.288303756454658D+02 0.590246753308226D+02
 0.228230009424432D+03 -.518205411816521D+02 0.166471115878874D+03 -.115653296310826D+03
 0.255922959841922D+03 0.674086634386026D+02 -.240303626176499D+03 0.566286209800037D+02
 0.465785534930883D+02 0.117239096497165D+02 0.450021346521593D+02 -.263048755607977D+01
 0.313127577257418D+03 0.000000000000000D+00 0.000000000000000D+00 0.313127577257418D+03
 0.313127577257418D+03 0.000000000000000D+00 0.000000000000000D+00 -.313127577257418D+03
 0.145782881802136D+03 -.246049197121170D+02 0.392216044366724D+02 0.590246753308226D+02
 0.239850747238849D+03 -.474451742600539D+02 0.183265927272113D+03 -.115653296310826D+03
 0.000000000000000D+00 0.000000000000000D+00 0.000000000000000D+00 -.000000000000000D+00
 0.240621525473852D+03 0.720500939721709D+02 -.222487531708786D+03 0.566286209800037D+02
 0.335963746469252D+03 0.000000000000000D+00 0.000000000000000D+00 0.335963746469252D+03
 0.338594234025332D+03 0.000000000000000D+00 0.000000000000000D+00 -.338594234025332D+03
 0.143826457735142D+03 -.273120319066670D+02 0.288303756454658D+02 0.590246753308226D+02
 0.228230009424432D+03 -.518205411816521D+02 0.166471115878874D+03 -.115653296310826D+03
 0.465785534930883D+02 0.117239096497165D+02 0.450021346521593D+02 -.263048755607977D+01
 0.255922959841922D+03 0.674086634386026D+02 -.240303626176499D+03 0.566286209800037D+02
0.506885275453D-05 0.000000000000D+00 0.000000000000D+00 0.417431408809D-07 0.000000000000D+00  6 -3 21 25 23 -3 21 2 0.38270566D-01 0.60638861D-01 0.83315326D+05 0.83315326D+05 0.83315326D+05 0.11709251D+01  1  2  2  2  6  2       21 0.579969947847D-03 0.100000000000D+01
-.583313923006D-06 0.267490708749D-06 -.102325533102D-07 0.417431408809D-07 0.000000000000D+00  6 -3 21 25 23 -3 21 4 0.38270566D-01 0.60638861D-01 0.83315326D+05 0.83315326D+05 0.83315326D+05 0.11709251D+01  1  2  3  2  6  2       21 -.915074311734D-04 0.100000000000D+01
0.503045733544D-06 0.000000000000D+00 0.000000000000D+00 0.417431408809D-07 0.000000000000D+00  6 -3 21 25 23 -3 21 4 0.38270566D-01 0.60638861D-01 0.83315326D+05 0.83315326D+05 0.83315326D+05 0.11709251D+01  1  2 15  2  6  2       21 0.789153507636D-04 0.100000000000D+01
0.775636779558D-05 0.000000000000D+00 0.000000000000D+00 0.412967534768D-07 0.000000000000D+00  6 -3 21 25 23 -3 21 4 0.38270566D-01 0.67615608D-01 0.97343107D+05 0.97343107D+05 0.97343107D+05 0.11646475D+01  1  2 12  2  6  2       21 0.934803178404D-03 0.100000000000D+01
-.639797864252D-05 0.000000000000D+00 0.000000000000D+00 0.417431408809D-07 0.000000000000D+00  6 -3 21 25 23 -3 21 4 0.38270566D-01 0.60638861D-01 0.83315326D+05 0.83315326D+05 0.83315326D+05 0.11709251D+01  1  2  4  2  6  2       21 -.100368355218D-02 0.100000000000D+01
-.495006008541D-04 0.000000000000D+00 -.119713103310D-04 0.417431408809D-07 0.000000000000D+00  6 -3 21 25 23 -3 21 4 0.38270566D-01 0.69718404D-01 0.83315326D+05 0.83315326D+05 0.83315326D+05 0.11709251D+01  1  2  5  2  6  2       21 -.571339930021D-02 0.100000000000D+01
0.492545396780D-04 0.000000000000D+00 0.115177440493D-04 0.417431408809D-07 0.000000000000D+00  6 -3 21 25 23 -3 21 4 0.38270566D-01 0.60638861D-01 0.83315326D+05 0.83315326D+05 0.83315326D+05 0.11709251D+01  1  2  6  2  6  2       21 0.772681093627D-02 0.100000000000D+01
0.218269112684D-06 0.000000000000D+00 0.000000000000D+00 0.412967534768D-07 0.000000000000D+00  6 -3 -3 25 23 -3 -3 4 0.38270566D-01 0.67615608D-01 0.97343107D+05 0.97343107D+05 0.97343107D+05 0.11646475D+01  1  2 12  5  6  2       21 0.146011037545D-05 0.100000000000D+01
-.151005178284D-05 0.000000000000D+00 -.448093115411D-06 0.417431408809D-07 0.000000000000D+00  6 -3 -3 25 23 -3 -3 4 0.38270566D-01 0.69718404D-01 0.83315326D+05 0.83315326D+05 0.83315326D+05 0.11709251D+01  1  2  5  5  6  2       21 -.962571063975D-05 0.100000000000D+01
0.218269112684D-06 0.000000000000D+00 0.000000000000D+00 0.412967534768D-07 0.000000000000D+00  6 -3 3 25 23 3 -3 4 0.38270566D-01 0.67615608D-01 0.97343107D+05 0.97343107D+05 0.97343107D+05 0.11646475D+01  3  4 12  6  5  2       21 0.146144688659D-05 0.100000000000D+01
-.151005178284D-05 0.000000000000D+00 -.448093115411D-06 0.417431408809D-07 0.000000000000D+00  6 -3 3 25 23 3 -3 4 0.38270566D-01 0.69718404D-01 0.83315326D+05 0.83315326D+05 0.83315326D+05 0.11709251D+01  3  4  5  6  5  2       21 -.963509854415D-05 0.100000000000D+01
0.218269112684D-06 0.000000000000D+00 0.000000000000D+00 0.412967534768D-07 0.000000000000D+00  6 -3 -2 25 23 -3 -2 4 0.38270566D-01 0.67615608D-01 0.97343107D+05 0.97343107D+05 0.97343107D+05 0.11646475D+01  1  2 12  7  6  2       21 0.227440483757D-05 0.100000000000D+01
0.218269112684D-06 0.000000000000D+00 0.000000000000D+00 0.412967534768D-07 0.000000000000D+00  6 -3 -4 25 23 -3 -4 4 0.38270566D-01 0.67615608D-01 0.97343107D+05 0.97343107D+05 0.97343107D+05 0.11646475D+01  1  2 12  7  6  2       21 0.120302953669D-05 0.100000000000D+01
-.151005178284D-05 0.000000000000D+00 -.448093115411D-06 0.417431408809D-07 0.000000000000D+00  6 -3 -2 25 23 -3 -2 4 0.38270566D-01 0.69718404D-01 0.83315326D+05 0.83315326D+05 0.83315326D+05 0.11709251D+01  1  2  5  7  6  2       21 -.150317444804D-04 0.100000000000D+01
-.151005178284D-05 0.000000000000D+00 -.448093115411D-06 0.417431408809D-07 0.000000000000D+00  6 -3 -4 25 23 -3 -4 4 0.38270566D-01 0.69718404D-01 0.83315326D+05 0.83315326D+05 0.83315326D+05 0.11709251D+01  1  2  5  7  6  2       21 -.791066759186D-05 0.100000000000D+01
0.218269112684D-06 0.000000000000D+00 0.000000000000D+00 0.412967534768D-07 0.000000000000D+00  6 -3 2 25 23 2 -3 4 0.38270566D-01 0.67615608D-01 0.97343107D+05 0.97343107D+05 0.97343107D+05 0.11646475D+01  3  4 12  8  5  2       21 0.122222883807D-04 0.100000000000D+01
0.218269112684D-06 0.000000000000D+00 0.000000000000D+00 0.412967534768D-07 0.000000000000D+00  6 -3 4 25 23 4 -3 4 0.38270566D-01 0.67615608D-01 0.97343107D+05 0.97343107D+05 0.97343107D+05 0.11646475D+01  3  4 12  8  5  2       21 0.120302953669D-05 0.100000000000D+01
-.151005178284D-05 0.000000000000D+00 -.448093115411D-06 0.417431408809D-07 0.000000000000D+00  6 -3 2 25 23 2 -3 4 0.38270566D-01 0.69718404D-01 0.83315326D+05 0.83315326D+05 0.83315326D+05 0.11709251D+01  3  4  5  8  5  2       21 -.833426749931D-04 0.100000000000D+01
-.151005178284D-05 0.000000000000D+00 -.448093115411D-06 0.417431408809D-07 0.000000000000D+00  6 -3 4 25 23 4 -3 4 0.38270566D-01 0.69718404D-01 0.83315326D+05 0.83315326D+05 0.83315326D+05 0.11709251D+01  3  4  5  8  5  2       21 -.791066759186D-05 0.100000000000D+01
0.218269112684D-06 0.000000000000D+00 0.000000000000D+00 0.412967534768D-07 0.000000000000D+00  6 -3 -1 25 23 -3 -1 4 0.38270566D-01 0.67615608D-01 0.97343107D+05 0.97343107D+05 0.97343107D+05 0.11646475D+01  1  2 12  9  6  2       21 0.289244752489D-05 0.100000000000D+01
-.151005178284D-05 0.000000000000D+00 -.448093115411D-06 0.417431408809D-07 0.000000000000D+00  6 -3 -1 25 23 -3 -1 4 0.38270566D-01 0.69718404D-01 0.83315326D+05 0.83315326D+05 0.83315326D+05 0.11709251D+01  1  2  5  9  6  2       21 -.192123081671D-04 0.100000000000D+01
0.218269112684D-06 0.000000000000D+00 0.000000000000D+00 0.412967534768D-07 0.000000000000D+00  6 -3 1 25 23 1 -3 4 0.38270566D-01 0.67615608D-01 0.97343107D+05 0.97343107D+05 0.97343107D+05 0.11646475D+01  3  4 12 10  5  2       21 0.800273553734D-05 0.100000000000D+01
-.151005178284D-05 0.000000000000D+00 -.448093115411D-06 0.417431408809D-07 0.000000000000D+00  6 -3 1 25 23 1 -3 4 0.38270566D-01 0.69718404D-01 0.83315326D+05 0.83315326D+05 0.83315326D+05 0.11709251D+01  3  4  5 10  5  2       21 -.542653337687D-04 0.100000000000D+01
  </mgrwgt>
  </event>
  <event>
  5     66 -.44233958E-03 0.10565676E+03 0.75467711E-02 0.10725277E+00
       -1 -1    0    0    0  501 0.00000000E+00 0.00000000E+00 0.39701506E+03 0.39701519E+03 0.32000000E+00 0.0000E+00 0.9000E+01
       21 -1    0    0  501  502 -.00000000E+00 -.00000000E+00 -.48206190E+03 0.48206249E+03 0.75000000E+00 0.0000E+00 0.9000E+01
       25  1    1    2    0    0 -.12479558E+03 -.19274337E+03 0.13012118E+03 0.29202819E+03 0.12500000E+03 0.0000E+00 0.9000E+01
       23  1    1    2    0    0 0.22349800E+03 0.15504496E+03 0.59294050E+02 0.29295278E+03 0.91188000E+02 0.0000E+00 0.9000E+01
       -1  1    1    2    0  502 -.98702425E+02 0.37698415E+02 -.27446207E+03 0.29409670E+03 0.32000000E+00 0.0000E+00 0.9000E+01
#aMCatNLO 1  0  0  5  2 0.91454722D+01 0.00000000D+00  -5  6  0 0.00000000D+00 0.00000000D+00 0.00000000D+00 0.00000000D+00 0.00000000D+00
  <mgrwgt>
 -.3228723903D-01    8    2    0
 0.437477025989878D+03 0.000000000000000D+00 0.000000000000000D+00 0.437477025989878D+03
 0.437477025989878D+03 -.000000000000000D+00 -.000000000000000D+00 -.437477025989878D+03
 0.306052510221059D+03 -.124795552877835D+03 -.192743381725971D+03 0.159120073514826D+03
 0.300096955839773D+03 0.223498026287330D+03 0.155044947870465D+03 0.880490087724522D+02
 0.268804585918925D+03 -.987024734094947D+02 0.376984338555052D+02 -.247169082287278D+03
 0.000000000000000D+00 0.000000000000000D+00 0.000000000000000D+00 -.000000000000000D+00
 0.437477025989878D+03 0.000000000000000D+00 0.000000000000000D+00 0.437477025989878D+03
 0.437477025989878D+03 -.000000000000000D+00 -.000000000000000D+00 -.437477025989878D+03
 0.305932745122644D+03 -.124901196500064D+03 -.192703032188950D+03 0.158855522523812D+03
 0.299964246694132D+03 0.223394441048239D+03 0.155084511228398D+03 0.877896123500500D+02
 0.684494950531614D+02 -.331270383098148D+02 0.113579648240407D+02 -.588126630999540D+02
 0.200607565109820D+03 -.653662062383593D+02 0.262605561365117D+02 -.187832471773908D+03
0.121615408887D-04 0.000000000000D+00 0.000000000000D+00 0.131326211142D-06 0.000000000000D+00  6 -1 21 25 23 -1 21 2 0.61079295D-01 0.74163424D-01 0.10692328D+06 0.10692328D+06 0.10692328D+06 0.11609104D+01  1  2  2  3  6  5       -1 0.659204050710D-03 0.100000000000D+01
0.811011757580D-06 0.641782144664D-06 -.245506471590D-07 0.131326211142D-06 0.000000000000D+00  6 -1 21 25 23 -1 21 4 0.61079295D-01 0.74163424D-01 0.10692328D+06 0.10692328D+06 0.10692328D+06 0.11609104D+01  1  2  3  3  6  5       -1 0.592455635753D-04 0.100000000000D+01
0.796372165128D-06 0.000000000000D+00 0.000000000000D+00 0.131326211142D-06 0.000000000000D+00  6 -1 21 25 23 -1 21 4 0.61079295D-01 0.74163424D-01 0.10692328D+06 0.10692328D+06 0.10692328D+06 0.11609104D+01  1  2 15  3  6  5       -1 0.581761205034D-04 0.100000000000D+01
0.102688212742D-03 0.000000000000D+00 0.000000000000D+00 0.131332552296D-06 0.000000000000D+00  6 -1 21 25 23 -1 21 4 0.61079295D-01 0.74163424D-01 0.10684766D+06 0.10684766D+06 0.10684766D+06 0.11609385D+01  1  2 12  3  6  5       -1 0.750252261817D-02 0.100000000000D+01
-.646291043908D-03 0.000000000000D+00 0.000000000000D+00 0.131326211142D-06 0.000000000000D+00  6 -1 21 25 23 -1 21 4 0.61079295D-01 0.74163424D-01 0.10692328D+06 0.10692328D+06 0.10692328D+06 0.11609104D+01  1  2  4  3  6  5       -1 -.472124809192D-01 0.100000000000D+01
-.103476545742D-03 0.000000000000D+00 0.000000000000D+00 0.131326211142D-06 0.000000000000D+00  6 -1 21 25 23 -1 21 4 0.61079295D-01 0.74163424D-01 0.10692328D+06 0.10692328D+06 0.10692328D+06 0.11609104D+01  1  2  5  3  6  5       -1 -.755910899198D-02 0.100000000000D+01
0.194437876133D-03 0.000000000000D+00 -.000000000000D+00 0.131326211142D-06 0.000000000000D+00  6 -1 21 25 23 -1 21 4 0.61079295D-01 0.74163424D-01 0.10692328D+06 0.10692328D+06 0.10692328D+06 0.11609104D+01  1  2  6  3  6  5       -1 0.142039636839D-01 0.100000000000D+01
0.169562930700D-07 0.000000000000D+00 0.000000000000D+00 0.131326211142D-06 0.265852314863D-08  6 -1 21 25 23 -1 21 4 0.61079295D-01 0.74163424D-01 0.10684766D+06 0.10684766D+06 0.10684766D+06 0.11609385D+01  1  2 11  3  6  5       -1 0.123884688302D-05 0.100000000000D+01
  </mgrwgt>
  </event>
  <event>
  5     66 0.44233958E-03 0.17068969E+03 0.75467711E-02 0.10659254E+00
       -3 -1    0    0    0  501 0.00000000E+00 0.00000000E+00 0.21583880E+04 0.21583881E+04 0.50000000E+00 0.0000E+00 0.9000E+01
       21 -1    0    0  501  502 0.00000000E+00 0.00000000E+00 -.45243949E+02 0.45250165E+02 0.75000000E+00 0.0000E+00 0.9000E+01
       25  1    1    2    0    0 -.86236838E+02 -.18939077E+02 0.12470784E+04 0.12564334E+04 0.12500000E+03 0.0000E+00 0.9000E+01
       23  1    1    2    0    0 -.58982473E+02 0.10864000E+03 0.66938705E+03 0.68678662E+03 0.91188000E+02 0.0000E+00 0.9000E+01
       -3  1    1    2    0  502 0.14521931E+03 -.89700918E+02 0.19667867E+03 0.26041822E+03 0.50000000E+00 0.0000E+00 0.9000E+01
#aMCatNLO 1  0  0  1  2 0.17753722D+03 0.00000000D+00  -5  6  0 0.00000000D+00 0.00000000D+00 0.00000000D+00 0.00000000D+00 0.00000000D+00
  <mgrwgt>
 0.3379173209D-02    7    4    0
 0.312507458520365D+03 0.000000000000000D+00 0.000000000000000D+00 0.312507458520365D+03
 0.312507458520365D+03 0.000000000000000D+00 0.000000000000000D+00 -.312507458520365D+03
 0.213544582207077D+03 -.862369350581540D+02 -.189390176544906D+02 0.148932176617592D+03
 0.158265061315940D+03 -.589825447607854D+02 0.108640039400493D+03 0.380917253736237D+02
 0.253205273517713D+03 0.145219479818939D+03 -.897010217460026D+02 -.187023901991216D+03
 0.000000000000000D+00 0.000000000000000D+00 0.000000000000000D+00 0.000000000000000D+00
 0.425653968487818D+03 0.000000000000000D+00 0.000000000000000D+00 0.425653968487818D+03
 0.403056423410020D+03 0.000000000000000D+00 0.000000000000000D+00 -.403056423410020D+03
 0.245526406122794D+03 -.140095225645995D+03 -.533924210232053D+02 0.148932176617592D+03
 0.162010055435491D+03 -.965572788314527D+02 0.846033041963286D+02 0.380917253736237D+02
 0.242204341530446D+03 0.870979350348862D+02 -.126881648999514D+03 -.187023901991216D+03
 0.178969588809108D+03 0.149554569442562D+03 0.956707658263903D+02 0.225975450777976D+02
 0.312507458520365D+03 0.000000000000000D+00 0.000000000000000D+00 0.312507458520365D+03
 0.312507458520365D+03 0.000000000000000D+00 0.000000000000000D+00 -.312507458520365D+03
 0.213544582207077D+03 -.862369350581540D+02 -.189390176544906D+02 0.148932176617592D+03
 0.158265061315940D+03 -.589825447607854D+02 0.108640039400493D+03 0.380917253736237D+02
 0.000000000000000D+00 0.000000000000000D+00 0.000000000000000D+00 0.000000000000000D+00
 0.253205273517713D+03 0.145219479818939D+03 -.897010217460026D+02 -.187023901991216D+03
 0.425653968487818D+03 0.000000000000000D+00 0.000000000000000D+00 0.425653968487818D+03
 0.403056423410020D+03 0.000000000000000D+00 0.000000000000000D+00 -.403056423410020D+03
 0.245526406122794D+03 -.140095225645995D+03 -.533924210232053D+02 0.148932176617592D+03
 0.162010055435491D+03 -.965572788314527D+02 0.846033041963286D+02 0.380917253736237D+02
 0.178969588809108D+03 0.149554569442562D+03 0.956707658263903D+02 0.225975450777976D+02
 0.242204341530446D+03 0.870979350348862D+02 -.126881648999514D+03 -.187023901991216D+03
0.448389982559D-04 0.000000000000D+00 0.000000000000D+00 0.245617654750D-06 0.000000000000D+00  6 -3 21 25 23 -3 21 2 0.33206018D+00 0.69610902D-02 0.56963349D+05 0.56963349D+05 0.56963349D+05 0.11867142D+01  1  2  2  1  6  1       -3 0.141595335688D-02 0.100000000000D+01
-.183570085901D-05 0.236621894616D-05 -.905170187906D-07 0.245617654750D-06 0.000000000000D+00  6 -3 21 25 23 -3 21 4 0.33206018D+00 0.69610902D-02 0.56963349D+05 0.56963349D+05 0.56963349D+05 0.11867142D+01  1  2  3  1  6  1       -3 -.816370353140D-04 0.100000000000D+01
0.440218925730D-05 0.000000000000D+00 0.000000000000D+00 0.245617654750D-06 0.000000000000D+00  6 -3 21 25 23 -3 21 4 0.33206018D+00 0.69610902D-02 0.56963349D+05 0.56963349D+05 0.56963349D+05 0.11867142D+01  1  2 15  1  6  1       -3 0.195773553242D-03 0.100000000000D+01
-.248340716504D-04 0.000000000000D+00 0.000000000000D+00 0.245617654750D-06 0.000000000000D+00  6 -3 21 25 23 -3 21 4 0.33206018D+00 0.69610902D-02 0.56963349D+05 0.56963349D+05 0.56963349D+05 0.11867142D+01  1  2  4  1  6  1       -3 -.110441740786D-02 0.100000000000D+01
-.647304538145D-04 0.000000000000D+00 -.399982474057D-04 0.245617654750D-06 0.000000000000D+00  6 -3 21 25 23 -3 21 4 0.49574132D+00 0.69610902D-02 0.56963349D+05 0.56963349D+05 0.56963349D+05 0.11867142D+01  1  2  5  1  6  1       -3 -.393380862291D-03 0.100000000000D+01
0.774654143821D-04 0.000000000000D+00 0.369882946577D-04 0.245617654750D-06 0.000000000000D+00  6 -3 21 25 23 -3 21 4 0.33206018D+00 0.69610902D-02 0.56963349D+05 0.56963349D+05 0.56963349D+05 0.11867142D+01  1  2  6  1  6  1       -3 0.344503121981D-02 0.100000000000D+01
-.171668729512D-05 0.000000000000D+00 -.190648585034D-05 0.245617654750D-06 0.000000000000D+00  6 21 21 25 23 3 -3 4 0.49574132D+00 0.69610902D-02 0.56963349D+05 0.56963349D+05 0.56963349D+05 0.11867142D+01  3  4  5  4  5  1       -3 -.981496150183D-04 0.100000000000D+01
  </mgrwgt>
  </event>
  <event>
  6     66 -.44233958E-03 0.42001525E+02 0.75467711E-02 0.11913876E+00
       -3 -1    0    0    0  503 0.00000000E+00 0.00000000E+00 0.35071995E+03 0.35072031E+03 0.50000000E+00 0.0000E+00 0.9000E+01
       21 -1    0    0  501  502 0.00000000E+00 0.00000000E+00 -.11057337E+03 0.11057592E+03 0.75000000E+00 0.0000E+00 0.9000E+01
       25  1    1    2    0    0 0.10361454E+01 -.25335729E+02 0.16565955E+03 0.20907190E+03 0.12500000E+03 0.0000E+00 0.9000E+01
       23  1    1    2    0    0 0.56423815E+02 0.12854347E+02 0.97530450E+02 0.14552086E+03 0.91188000E+02 0.0000E+00 0.9000E+01
       -3  1    1    2    0  502 -.53173056E+02 -.12304754E+02 -.46948223E+02 0.71994211E+02 0.50000000E+00 0.0000E+00 0.9000E+01
       21  1    1    2  501  503 -.42869046E+01 0.24786137E+02 0.23904804E+02 0.34709254E+02 0.75000000E+00 0.0000E+00 0.9000E+01
#aMCatNLO 2  0  0  1  2 0.25154128D+02 0.00000000D+00  -5  6  0 0.00000000D+00 0.00000000D+00 0.00000000D+00 0.00000000D+00 0.00000000D+00
  <mgrwgt>
 -.4382242019D-02    2    2    0
 0.183427921204195D+03 0.000000000000000D+00 0.000000000000000D+00 0.183427921204195D+03
 0.183427921204195D+03 0.000000000000000D+00 0.000000000000000D+00 -.183427921204195D+03
 0.143741702391837D+03 -.649436779369999D+00 -.155887195947894D+02 0.692332800015138D+02
 0.111934786492725D+03 0.551202491725076D+02 0.203923230186356D+02 0.275691199757309D+02
 0.111179353523829D+03 -.544708123931376D+02 -.480360342384624D+01 -.968023999772447D+02
 0.000000000000000D+00 -.000000000000000D+00 0.000000000000000D+00 0.000000000000000D+00
 0.200617598794561D+03 0.000000000000000D+00 0.000000000000000D+00 0.200617598794561D+03
 0.193297262515416D+03 0.000000000000000D+00 0.000000000000000D+00 -.193297262515416D+03
 0.145124842643971D+03 0.103636335281234D+01 -.253357226790619D+02 0.692332800015138D+02
 0.111463931871001D+03 0.564239847397407D+02 0.128543507808195D+02 0.275691199757309D+02
 0.111128425571598D+03 -.531734434529656D+02 -.123047649316016D+02 -.968023999772447D+02
 0.261976612234074D+02 -.428690463958739D+01 0.247861368298440D+02 0.732033627914462D+01
-.515685690470D-05 0.000000000000D+00 0.000000000000D+00 0.894418685468D-06 0.000000000000D+00  6 -3 21 25 23 -3 21 4 0.55183408D-01 0.16142498D-01 0.24850272D+05 0.24850272D+05 0.24850272D+05 0.12235774D+01  1  2 13  1  6  1       -3 -.636468253668D-02 0.100000000000D+01
0.168863009948D-05 0.000000000000D+00 0.000000000000D+00 0.906371839993D-06 0.113009500185D-07  6 -3 21 25 23 -3 21 4 0.53955661D-01 0.17011045D-01 0.24850272D+05 0.24850272D+05 0.24850272D+05 0.12235774D+01  1  2  1  1  6  1       -3 0.198244051750D-02 0.100000000000D+01
  </mgrwgt>
  </event>
  <event>
  5     66 -.44233958E-03 0.41704387E+02 0.75467711E-02 0.11958788E+00
       -3 -1    0    0    0  501 0.00000000E+00 0.00000000E+00 0.26197727E+03 0.26197775E+03 0.50000000E+00 0.0000E+00 0.9000E+01
       21 -1    0    0  501  502 0.00000000E+00 0.00000000E+00 -.25945583E+03 0.25945692E+03 0.75000000E+00 0.0000E+00 0.9000E+01
       25  1    1    2    0    0 0.15069734E+02 -.54134431E+02 0.17600532E+03 0.22307063E+03 0.12500000E+03 0.0000E+00 0.9000E+01
       23  1    1    2    0    0 0.21687055E+02 0.73836856E+02 0.63209862E+00 0.11932251E+03 0.91188000E+02 0.0000E+00 0.9000E+01
       -3  1    1    2    0  502 -.36756789E+02 -.19702425E+02 -.17411598E+03 0.17904153E+03 0.50000000E+00 0.0000E+00 0.9000E+01
#aMCatNLO 1  0  0  5  5 0.67011013D+01 0.00000000D+00  -5  6  0 0.00000000D+00 0.00000000D+00 0.00000000D+00 0.00000000D+00 0.00000000D+00
  <mgrwgt>
 -.6323937417D-03    7    2    0
 0.260714286361086D+03 0.000000000000000D+00 0.000000000000000D+00 0.260714286361086D+03
 0.260714286361086D+03 -.000000000000000D+00 -.000000000000000D+00 -.260714286361086D+03
 0.222222362408557D+03 0.150697942283810D+02 -.541343989705424D+02 0.174928975599963D+03
 0.119320861973469D+03 0.216870878905544D+02 0.738368737371041D+02 0.552598397560065D-01
 0.179885348340146D+03 -.367568821189354D+02 -.197024747665617D+02 -.174984235439720D+03
 0.000000000000000D+00 0.000000000000000D+00 0.000000000000000D+00 -.000000000000000D+00
 0.260714286361086D+03 0.000000000000000D+00 0.000000000000000D+00 0.260714286361086D+03
 0.260714286361086D+03 -.000000000000000D+00 -.000000000000000D+00 -.260714286361086D+03
 0.221171329898494D+03 0.147840300323546D+02 -.542875746899405D+02 0.173568571058688D+03
 0.119243926162843D+03 0.215333345195327D+02 0.737544586426185D+02 -.676696042341411D+00
 0.172308073411765D+03 -.417374698684247D+02 -.189430922264583D+02 -.166100015137737D+03
 0.870524324907039D+01 0.542010531653741D+01 -.523791726219731D+00 -.679185987861000D+01
0.292192777994D-05 0.000000000000D+00 0.000000000000D+00 0.166016480222D-05 0.000000000000D+00  6 -3 21 25 23 -3 21 2 0.40304316D-01 0.39916402D-01 0.22212173D+05 0.22212173D+05 0.22212173D+05 0.12288415D+01  1  2  2  3  6  5       -3 0.805505622614D-03 0.100000000000D+01
0.392496775343D-06 0.154194365198D-06 -.589853034298D-08 0.166016480222D-05 0.000000000000D+00  6 -3 21 25 23 -3 21 4 0.40304316D-01 0.39916402D-01 0.22212173D+05 0.22212173D+05 0.22212173D+05 0.12288415D+01  1  2  3  3  6  5       -3 0.163390544367D-03 0.100000000000D+01
0.262984708928D-06 0.000000000000D+00 0.000000000000D+00 0.166016480222D-05 0.000000000000D+00  6 -3 21 25 23 -3 21 4 0.40304316D-01 0.39916402D-01 0.22212173D+05 0.22212173D+05 0.22212173D+05 0.12288415D+01  1  2 15  3  6  5       -3 0.109476605800D-03 0.100000000000D+01
-.705165173051D-05 0.000000000000D+00 0.000000000000D+00 0.166016480222D-05 0.000000000000D+00  6 -3 21 25 23 -3 21 4 0.40304316D-01 0.39916402D-01 0.22212173D+05 0.22212173D+05 0.22212173D+05 0.12288415D+01  1  2  4  3  6  5       -3 -.293549727620D-02 0.100000000000D+01
-.281616700598D-04 0.000000000000D+00 0.000000000000D+00 0.166016480222D-05 0.000000000000D+00  6 -3 21 25 23 -3 21 4 0.40304316D-01 0.39916402D-01 0.22212173D+05 0.22212173D+05 0.22212173D+05 0.12288415D+01  1  2  5  3  6  5       -3 -.117232825603D-01 0.100000000000D+01
0.295574413591D-04 0.000000000000D+00 -.000000000000D+00 0.166016480222D-05 0.000000000000D+00  6 -3 21 25 23 -3 21 4 0.40304316D-01 0.39916402D-01 0.22212173D+05 0.22212173D+05 0.22212173D+05 0.12288415D+01  1  2  6  3  6  5       -3 0.123043213019D-01 0.100000000000D+01
0.156076147181D-05 0.000000000000D+00 0.000000000000D+00 0.166016480222D-05 0.420421653169D-06  6 -3 21 25 23 -3 21 4 0.40304316D-01 0.39916402D-01 0.23654698D+05 0.23654698D+05 0.23654698D+05 0.12258816D+01  1  2 11  3  6  5       -3 0.643692020169D-03 0.100000000000D+01
  </mgrwgt>
  </event>
  <event>
  5     66 0.44233958E-03 0.13654628E+03 0.75467711E-02 0.10252911E+00
       -3 -1    0    0    0  501 0.00000000E+00 0.00000000E+00 0.76715662E+02 0.76717292E+02 0.50000000E+00 0.0000E+00 0.9000E+01
       21 -1    0    0  501  502 0.00000000E+00 0.00000000E+00 -.86378160E+03 0.86378192E+03 0.75000000E+00 0.0000E+00 0.9000E+01
       25  1    1    2    0    0 0.61160174E+01 -.24911800E+01 -.72201405E+02 0.14450486E+03 0.12500000E+03 0.0000E+00 0.9000E+01
       23  1    1    2    0    0 0.10131949E+03 0.86767035E+02 -.17106661E+03 0.23531509E+03 0.91188000E+02 0.0000E+00 0.9000E+01
       -3  1    1    2    0  502 -.10743550E+03 -.84275855E+02 -.54379792E+03 0.56067926E+03 0.50000000E+00 0.0000E+00 0.9000E+01
#aMCatNLO 1  0  0  2  1 0.70564272D+02 0.00000000D+00  -5  6  0 0.00000000D+00 0.00000000D+00 0.00000000D+00 0.00000000D+00 0.00000000D+00
  <mgrwgt>
 0.2916839802D-02   12    4    0
 0.257422797635964D+03 0.000000000000000D+00 0.000000000000000D+00 0.257422797635964D+03
 0.257422797635964D+03 0.000000000000000D+00 0.000000000000000D+00 -.257422797635964D+03
 0.153598445942272D+03 0.611612510763941D+01 -.249109557961775D+01 0.890161224293780D+02
 0.168347641025196D+03 0.101319603765807D+03 0.867671280327341D+02 0.472385465529925D+02
 0.192899508304461D+03 -.107435728873446D+03 -.842760324531164D+02 -.136254668982371D+03
 0.000000000000000D+00 0.000000000000000D+00 0.000000000000000D+00 -.000000000000000D+00
 0.391747785903941D+03 0.000000000000000D+00 0.000000000000000D+00 0.391747785903941D+03
 0.709318582590075D+03 0.000000000000000D+00 0.000000000000000D+00 -.709318582590075D+03
 0.182696249611847D+03 -.964668041772021D+02 -.228736805457615D+02 0.890161224293780D+02
 0.124324955875242D+03 0.120431069659428D+02 0.690284477845792D+02 0.472385465529925D+02
 0.318082767933894D+03 -.263305147577170D+03 -.115246308818792D+03 -.136254668982371D+03
 0.475962395073034D+03 0.347728844788430D+03 0.690915415799743D+02 -.317570796686134D+03
 0.257422797635964D+03 0.000000000000000D+00 0.000000000000000D+00 0.257422797635964D+03
 0.257422797635964D+03 0.000000000000000D+00 0.000000000000000D+00 -.257422797635964D+03
 0.153598445942272D+03 0.611612510763941D+01 -.249109557961775D+01 0.890161224293780D+02
 0.168347641025196D+03 0.101319603765807D+03 0.867671280327341D+02 0.472385465529925D+02
 0.000000000000000D+00 0.000000000000000D+00 0.000000000000000D+00 -.000000000000000D+00
 0.192899508304461D+03 -.107435728873446D+03 -.842760324531164D+02 -.136254668982371D+03
 0.391747785903941D+03 0.000000000000000D+00 0.000000000000000D+00 0.391747785903941D+03
 0.709318582590075D+03 0.000000000000000D+00 0.000000000000000D+00 -.709318582590075D+03
 0.182696249611847D+03 -.964668041772021D+02 -.228736805457615D+02 0.890161224293780D+02
 0.124324955875242D+03 0.120431069659428D+02 0.690284477845792D+02 0.472385465529925D+02
 0.475962395073034D+03 0.347728844788430D+03 0.690915415799743D+02 -.317570796686134D+03
 0.318082767933894D+03 -.263305147577170D+03 -.115246308818792D+03 -.136254668982371D+03
0.158789749916D-04 0.000000000000D+00 0.000000000000D+00 0.250263248585D-06 0.000000000000D+00  6 -3 21 25 23 -3 21 2 0.11802560D-01 0.13288963D+00 0.44796736D+05 0.44796736D+05 0.44796736D+05 0.11970372D+01  1  2  2  2  6  2       21 0.255036804651D-02 0.100000000000D+01
-.623656192223D-06 0.837956531862D-06 -.320550755725D-07 0.250263248585D-06 0.000000000000D+00  6 -3 21 25 23 -3 21 4 0.11802560D-01 0.13288963D+00 0.44796736D+05 0.44796736D+05 0.44796736D+05 0.11970372D+01  1  2  3  2  6  2       21 -.143529425227D-03 0.100000000000D+01
0.180967223950D-05 0.000000000000D+00 0.000000000000D+00 0.250263248585D-06 0.000000000000D+00  6 -3 21 25 23 -3 21 4 0.11802560D-01 0.13288963D+00 0.44796736D+05 0.44796736D+05 0.44796736D+05 0.11970372D+01  1  2 15  2  6  2       21 0.416481419769D-03 0.100000000000D+01
0.216890181796D-05 0.000000000000D+00 -.406364405754D-04 0.250263248585D-06 0.000000000000D+00  6 -3 21 25 23 -3 21 4 0.11802560D-01 0.42990088D+00 0.44796736D+05 0.44796736D+05 0.44796736D+05 0.11970372D+01  1  2  5  2  6  2       21 0.674504153841D-05 0.100000000000D+01
0.307841266640D-05 0.000000000000D+00 -.149023570977D-04 0.250263248585D-06 0.000000000000D+00  6 -3 -3 25 23 -3 -3 4 0.11802560D-01 0.42990088D+00 0.44796736D+05 0.44796736D+05 0.44796736D+05 0.11970372D+01  1  2  5  5  6  2       21 0.786379605293D-06 0.100000000000D+01
0.307841266640D-05 0.000000000000D+00 -.149023570977D-04 0.250263248585D-06 0.000000000000D+00  6 -3 3 25 23 3 -3 4 0.11802560D-01 0.42990088D+00 0.44796736D+05 0.44796736D+05 0.44796736D+05 0.11970372D+01  3  4  5  6  5  2       21 0.834960740353D-06 0.100000000000D+01
0.307841266640D-05 0.000000000000D+00 -.149023570977D-04 0.250263248585D-06 0.000000000000D+00  6 -3 -2 25 23 -3 -2 4 0.11802560D-01 0.42990088D+00 0.44796736D+05 0.44796736D+05 0.44796736D+05 0.11970372D+01  1  2  5  7  6  2       21 0.854628053477D-06 0.100000000000D+01
0.307841266640D-05 0.000000000000D+00 -.149023570977D-04 0.250263248585D-06 0.000000000000D+00  6 -3 -4 25 23 -3 -4 4 0.11802560D-01 0.42990088D+00 0.44796736D+05 0.44796736D+05 0.44796736D+05 0.11970372D+01  1  2  5  7  6  2       21 0.405635734225D-06 0.100000000000D+01
0.307841266640D-05 0.000000000000D+00 -.149023570977D-04 0.250263248585D-06 0.000000000000D+00  6 -3 2 25 23 2 -3 4 0.11802560D-01 0.42990088D+00 0.44796736D+05 0.44796736D+05 0.44796736D+05 0.11970372D+01  3  4  5  8  5  2       21 0.624364784551D-04 0.100000000000D+01
0.307841266640D-05 0.000000000000D+00 -.149023570977D-04 0.250263248585D-06 0.000000000000D+00  6 -3 4 25 23 4 -3 4 0.11802560D-01 0.42990088D+00 0.44796736D+05 0.44796736D+05 0.44796736D+05 0.11970372D+01  3  4  5  8  5  2       21 0.405635734225D-06 0.100000000000D+01
0.307841266640D-05 0.000000000000D+00 -.149023570977D-04 0.250263248585D-06 0.000000000000D+00  6 -3 -1 25 23 -3 -1 4 0.11802560D-01 0.42990088D+00 0.44796736D+05 0.44796736D+05 0.44796736D+05 0.11970372D+01  1  2  5  9  6  2       21 0.931811666953D-06 0.100000000000D+01
0.307841266640D-05 0.000000000000D+00 -.149023570977D-04 0.250263248585D-06 0.000000000000D+00  6 -3 1 25 23 1 -3 4 0.11802560D-01 0.42990088D+00 0.44796736D+05 0.44796736D+05 0.44796736D+05 0.11970372D+01  3  4  5 10  5  2       21 0.201191889924D-04 0.100000000000D+01
  </mgrwgt>
  </event>
  <event>
  6     66 0.44233958E-03 0.48221531E+02 0.75467711E-02 0.11935037E+00
       -1 -1    0    0    0  501 0.00000000E+00 0.00000000E+00 0.33867803E+03 0.33867818E+03 0.32000000E+00 0.0000E+00 0.9000E+01
       21 -1    0    0  501  502 0.00000000E+00 0.00000000E+00 -.94321474E+02 0.94324456E+02 0.75000000E+00 0.0000E+00 0.9000E+01
       25  1    1    2    0    0 -.54665262E+02 0.21514296E+02 0.19633515E+02 0.13950495E+03 0.12500000E+03 0.0000E+00 0.9000E+01
       23  1    1    2    0    0 0.40774398E+02 0.40506914E+02 0.83562240E+02 0.13638644E+03 0.91188000E+02 0.0000E+00 0.9000E+01
       -1  1    1    2    0  503 0.56946361E+01 -.53816978E+02 0.13075542E+03 0.14151246E+03 0.32000000E+00 0.0000E+00 0.9000E+01
       21  1    1    2  503  502 0.81962274E+01 -.82042321E+01 0.10405381E+02 0.15598783E+02 0.75000000E+00 0.0000E+00 0.9000E+01
#aMCatNLO 2  0  0  5  2 0.83989474D+01 0.00000000D+00  -5  6  0 0.00000000D+00 0.00000000D+00 0.00000000D+00 0.00000000D+00 0.00000000D+00
  <mgrwgt>
 0.6884403569D-02    3    2    0
 0.178732451589829D+03 0.000000000000000D+00 0.000000000000000D+00 0.178732451589829D+03
 0.178732451589829D+03 -.000000000000000D+00 -.000000000000000D+00 -.178732451589829D+03
 0.156385275422384D+03 -.549301595407881D+02 0.226970367220882D+02 -.727933820192092D+02
 0.108267649950228D+03 0.405906773065024D+02 0.413272080979754D+02 0.714782962661532D+01
 0.928119778070461D+02 0.143394822342856D+02 -.640242448200636D+02 0.656455523925939D+02
 0.000000000000000D+00 0.000000000000000D+00 0.000000000000000D+00 0.000000000000000D+00
 0.178732451589829D+03 0.000000000000000D+00 0.000000000000000D+00 0.178732451589829D+03
 0.178732451589829D+03 -.000000000000000D+00 -.000000000000000D+00 -.178732451589829D+03
 0.155558632087669D+03 -.546637325418412D+02 0.215074688472829D+02 -.715736903153937D+02
 0.108084298416476D+03 0.407754605285238D+02 0.405021708998365D+02 0.799375952033727D+01
 0.819924345992483D+02 0.562977137845508D+01 -.537630187403181D+02 0.616490293651614D+02
 0.118295380762651D+02 0.825850063486230D+01 -.824662100680123D+01 0.193090142989501D+01
-.230583827043D-05 0.000000000000D+00 0.000000000000D+00 0.121752417466D-06 0.000000000000D+00  6 -1 21 25 23 -1 21 4 0.52104553D-01 0.14511237D-01 0.24278461D+05 0.24278461D+05 0.24278461D+05 0.12246636D+01  1  2 13  3  6  5       -1 -.762213181764D-02 0.100000000000D+01
-.129937994281D-05 0.000000000000D+00 0.000000000000D+00 0.121727312286D-06 0.000000000000D+00  6 -1 21 25 23 -1 21 4 0.52104553D-01 0.14511237D-01 0.24344173D+05 0.24344173D+05 0.24344173D+05 0.12245373D+01  1  2  8  3  6  5       -1 -.429343126888D-02 0.100000000000D+01
0.568734359809D-05 0.000000000000D+00 0.000000000000D+00 0.121727312286D-06 0.240358292566D-07  6 -1 21 25 23 -1 21 4 0.52104553D-01 0.14511237D-01 0.24278461D+05 0.24278461D+05 0.24278461D+05 0.12246636D+01  1  2  1  3  6  5       -1 0.187999666554D-01 0.100000000000D+01
  </mgrwgt>
  </event>
  <event>
  6     66 -.44233958E-03 0.15441651E+02 0.75467711E-02 0.12178702E+00
       -3 -1    0    0    0  501 0.00000000E+00 0.00000000E+00 0.16870298E+03 0.16870372E+03 0.50000000E+00 0.0000E+00 0.9000E+01
       21 -1    0    0  501  503 0.00000000E+00 0.00000000E+00 -.29776795E+03 0.29776890E+03 0.75000000E+00 0.0000E+00 0.9000E+01
       25  1    1    2    0    0 -.17656767E+02 0.28703305E+02 0.49874524E+02 0.13873756E+03 0.12500000E+03 0.0000E+00 0.9000E+01
       23  1    1    2    0    0 0.34104761E+02 -.42812743E+02 0.33804071E+02 0.11159764E+03 0.91188000E+02 0.0000E+00 0.9000E+01
       -3  1    1    2    0  502 -.22792551E+02 0.81461376E+00 -.14699307E+03 0.14875274E+03 0.50000000E+00 0.0000E+00 0.9000E+01
       21  1    1    2  502  503 0.63445570E+01 0.13294824E+02 -.65750499E+02 0.67384689E+02 0.75000000E+00 0.0000E+00 0.9000E+01
#aMCatNLO 2  0  0  2  1 0.14731115D+02 0.00000000D+00  -5  6  0 0.00000000D+00 0.00000000D+00 0.00000000D+00 0.00000000D+00 0.00000000D+00
  <mgrwgt>
 -.3828462213D-02    2    2    0
 0.196879052346999D+03 0.000000000000000D+00 0.000000000000000D+00 0.196879052346999D+03
 0.196879052346999D+03 0.000000000000000D+00 0.000000000000000D+00 -.196879052346999D+03
 0.149319874293106D+03 -.152579348917637D+02 0.337298407944399D+02 0.728074043056718D+02
 0.117647878534312D+03 0.360063323309011D+02 -.388281704958516D+02 0.521698110754304D+02
 0.126790351866580D+03 -.207483974391375D+02 0.509832970141170D+01 -.124977215381102D+03
 0.000000000000000D+00 0.000000000000000D+00 0.000000000000000D+00 -.000000000000000D+00
 0.197973225680333D+03 0.000000000000000D+00 0.000000000000000D+00 0.197973225680333D+03
 0.253738867590364D+03 0.000000000000000D+00 0.000000000000000D+00 -.253738867590364D+03
 0.148531330067898D+03 -.176567085921482D+02 0.287032843364869D+02 0.728074043056718D+02
 0.118461009336009D+03 0.341048063932590D+02 -.428127595716312D+02 0.521698110754304D+02
 0.127041226117926D+03 -.227926547887178D+02 0.814651345006663D+00 -.124977215381102D+03
 0.576785277488642D+02 0.634455698760699D+01 0.132948238901376D+02 -.557656419100304D+02
-.775993598170D-05 0.000000000000D+00 0.000000000000D+00 0.721552382684D-05 0.000000000000D+00  6 -3 21 25 23 -3 21 4 0.25810671D-01 0.45889001D-01 0.18680862D+05 0.18680862D+05 0.18680862D+05 0.12371018D+01  1  2 13  2  6  2       21 -.575222340991D-02 0.100000000000D+01
0.261224712982D-05 0.000000000000D+00 0.000000000000D+00 0.728479732772D-05 0.343455781805D-06  6 -3 21 25 23 -3 21 4 0.25954116D-01 0.45810022D-01 0.18680862D+05 0.18680862D+05 0.18680862D+05 0.12371018D+01  1  2  1  2  6  2       21 0.192376119683D-02 0.100000000000D+01
  </mgrwgt>
  </event>
  <event>
  6     66 -.44233958E-03 0.48281212E+02 0.75467711E-02 0.10879646E+00
       -3 -1    0    0    0  503 0.00000000E+00 0.00000000E+00 0.19171764E+04 0.19171765E+04 0.50000000E+00 0.0000E+00 0.9000E+01
       21 -1    0    0  501  502 0.00000000E+00 0.00000000E+00 -.52287762E+02 0.52293141E+02 0.75000000E+00 0.0000E+00 0.9000E+01
       25  1    1    2    0    0 -.13321130E+03 0.23159098E+03 0.11550034E+04 0.11920727E+04 0.12500000E+03 0.0000E+00 0.9000E+01
       23  1    1    2    0    0 0.12584181E+03 -.17919333E+03 0.60276959E+03 0.64775987E+03 0.91188000E+02 0.0000E+00 0.9000E+01
       -3  1    1    2    0  502 0.12541305E+02 -.49649167E+02 0.47879300E+02 0.70107072E+02 0.50000000E+00 0.0000E+00 0.9000E+01
       21  1    1    2  501  503 -.51718149E+01 -.27484837E+01 0.59236393E+02 0.59529947E+02 0.75000000E+00 0.0000E+00 0.9000E+01
#aMCatNLO 2  0  0  1  2 0.58567766D+01 0.00000000D+00  -5  6  0 0.00000000D+00 0.00000000D+00 0.00000000D+00 0.00000000D+00 0.00000000D+00
  <mgrwgt>
 -.8222679258D-02    3    2    0
 0.311229487278577D+03 0.000000000000000D+00 0.000000000000000D+00 0.311229487278577D+03
 0.311229487278577D+03 0.000000000000000D+00 0.000000000000000D+00 -.311229487278577D+03
 0.307338136930061D+03 -.135764538361711D+03 0.230234696137801D+03 0.859750267775855D+02
 0.238781053070465D+03 0.123856788418230D+03 -.180247776577131D+03 -.295190610142501D+02
 0.763397845566274D+02 0.119077499434818D+02 -.499869195606701D+02 -.564559657633354D+02
 0.000000000000000D+00 -.000000000000000D+00 -.000000000000000D+00 0.000000000000000D+00
 0.321178586773523D+03 0.000000000000000D+00 0.000000000000000D+00 0.321178586773523D+03
 0.312106391957493D+03 0.000000000000000D+00 0.000000000000000D+00 -.312106391957493D+03
 0.307240323723676D+03 -.133211425777505D+03 0.231591509634414D+03 0.859750267775855D+02
 0.239024820809866D+03 0.125841713480709D+03 -.179192917840702D+03 -.295190610142501D+02
 0.762213829016722D+02 0.125415271768797D+02 -.496501081292278D+02 -.564559657633354D+02
 0.107984512958023D+02 -.517181488008441D+01 -.274848366448397D+01 0.907219481603081D+01
-.237174220037D-03 0.000000000000D+00 0.000000000000D+00 0.124040449936D-06 0.000000000000D+00  6 -3 21 25 23 -3 21 4 0.29533373D+00 0.80217537D-02 0.86797224D+05 0.86797224D+05 0.86797224D+05 0.11692633D+01  1  2 13  1  6  1       -3 -.120044889785D-01 0.100000000000D+01
-.735895452282D-03 0.000000000000D+00 0.000000000000D+00 0.124211414553D-06 0.000000000000D+00  6 -3 21 25 23 -3 21 4 0.28580211D+00 0.80217537D-02 0.85089734D+05 0.85089734D+05 0.85089734D+05 0.11700688D+01  1  2  8  1  6  1       -3 -.420768668720D-01 0.100000000000D+01
0.906072688740D-03 0.000000000000D+00 0.000000000000D+00 0.124211414553D-06 0.265879863323D-07  6 -3 21 25 23 -3 21 4 0.29493837D+00 0.80443554D-02 0.86797224D+05 0.86797224D+05 0.86797224D+05 0.11692633D+01  1  2  1  1  6  1       -3 0.458586765926D-01 0.100000000000D+01
  </mgrwgt>
  </event>
  <event>
  5     66 0.44233958E-03 0.32819191E+02 0.75467711E-02 0.11061852E+00
       -1 -1    0    0    0  501 0.00000000E+00 0.00000000E+00 0.16184919E+03 0.16184950E+03 0.32000000E+00 0.0000E+00 0.9000E+01
       21 -1    0    0  501  502 0.00000000E+00 0.00000000E+00 -.53044758E+03 0.53044811E+03 0.75000000E+00 0.0000E+00 0.9000E+01
       25  1    1    2    0    0 0.89666002E+02 0.15850510E+03 -.11503112E+03 0.24904020E+03 0.12500000E+03 0.0000E+00 0.9000E+01
       23  1    1    2    0    0 -.62506474E+02 -.14008078E+03 0.89697985E+01 0.17867679E+03 0.91188000E+02 0.0000E+00 0.9000E+01
       -1  1    1    2    0  502 -.27159529E+02 -.18424318E+02 -.26253706E+03 0.26458063E+03 0.32000000E+00 0.0000E+00 0.9000E+01
#aMCatNLO 1  0  0  2  2 0.10111884D+03 0.00000000D+00  -5  6  0 0.00000000D+00 0.00000000D+00 0.00000000D+00 0.00000000D+00 0.00000000D+00
  <mgrwgt>
 0.1101950437D-01   14    4    0
 0.293006487090686D+03 0.000000000000000D+00 0.000000000000000D+00 0.293006487090686D+03
 0.293006487090686D+03 0.000000000000000D+00 0.000000000000000D+00 -.293006487090686D+03
 0.221854583529269D+03 0.896660266010057D+02 0.158505118886320D+03 0.207505950123556D+02
 0.216725230430938D+03 -.625064500670155D+02 -.140080768210205D+03 0.122983316913318D+03
 0.147433160221165D+03 -.271595765339901D+02 -.184243506761153D+02 -.143733911925674D+03
 0.000000000000000D+00 -.000000000000000D+00 -.000000000000000D+00 -.000000000000000D+00
 0.331049858573825D+03 0.000000000000000D+00 0.000000000000000D+00 0.331049858573825D+03
 0.373160040207703D+03 0.000000000000000D+00 0.000000000000000D+00 -.373160040207703D+03
 0.256460148789851D+03 0.106978045352047D+03 0.195632099964707D+03 0.207505950123556D+02
 0.193462986489517D+03 -.476601875060595D+02 -.108241794540412D+03 0.122983316913318D+03
 0.144750073307116D+03 -.165843605186768D+02 0.425502892406961D+01 -.143733911925674D+03
 0.109536690195043D+03 -.427334973273106D+02 -.916453343483644D+02 -.421101816338776D+02
 0.293006487090686D+03 0.000000000000000D+00 0.000000000000000D+00 0.293006487090686D+03
 0.293006487090686D+03 0.000000000000000D+00 0.000000000000000D+00 -.293006487090686D+03
 0.221854583529269D+03 0.896660266010057D+02 0.158505118886320D+03 0.207505950123556D+02
 0.216725230430938D+03 -.625064500670155D+02 -.140080768210205D+03 0.122983316913318D+03
 0.000000000000000D+00 -.000000000000000D+00 -.000000000000000D+00 -.000000000000000D+00
 0.147433160221165D+03 -.271595765339901D+02 -.184243506761153D+02 -.143733911925674D+03
 0.331049858573825D+03 0.000000000000000D+00 0.000000000000000D+00 0.331049858573825D+03
 0.373160040207703D+03 0.000000000000000D+00 0.000000000000000D+00 -.373160040207703D+03
 0.256460148789851D+03 0.106978045352047D+03 0.195632099964707D+03 0.207505950123556D+02
 0.193462986489517D+03 -.476601875060595D+02 -.108241794540412D+03 0.122983316913318D+03
 0.109536690195043D+03 -.427334973273106D+02 -.916453343483644D+02 -.421101816338776D+02
 0.144750073307116D+03 -.165843605186768D+02 0.425502892406961D+01 -.143733911925674D+03
0.152356223221D-04 0.000000000000D+00 0.000000000000D+00 0.917896087029D-06 0.000000000000D+00  6 -1 21 25 23 -1 21 2 0.24899940D-01 0.81607385D-01 0.46688987D+05 0.46688987D+05 0.46688987D+05 0.11952399D+01  1  2  2  2  6  2       21 0.362228159076D-02 0.100000000000D+01
0.332841861804D-05 0.804005878753D-06 -.307563318910D-07 0.917896087029D-06 0.000000000000D+00  6 -1 21 25 23 -1 21 4 0.24899940D-01 0.81607385D-01 0.46688987D+05 0.46688987D+05 0.46688987D+05 0.11952399D+01  1  2  3  2  6  2       21 0.113049885813D-02 0.100000000000D+01
0.144869847247D-05 0.000000000000D+00 0.000000000000D+00 0.917896087029D-06 0.000000000000D+00  6 -1 21 25 23 -1 21 4 0.24899940D-01 0.81607385D-01 0.46688987D+05 0.46688987D+05 0.46688987D+05 0.11952399D+01  1  2 15  2  6  2       21 0.492051077959D-03 0.100000000000D+01
-.269747477569D-05 0.000000000000D+00 0.000000000000D+00 0.917896087029D-06 0.000000000000D+00  6 -1 21 25 23 -1 21 4 0.24899940D-01 0.81607385D-01 0.46688987D+05 0.46688987D+05 0.46688987D+05 0.11952399D+01  1  2  4  2  6  2       21 -.916198502566D-03 0.100000000000D+01
-.439565115815D-04 0.000000000000D+00 -.192200974832D-04 0.917896087029D-06 0.000000000000D+00  6 -1 21 25 23 -1 21 4 0.24899940D-01 0.11395094D+00 0.46688987D+05 0.46688987D+05 0.46688987D+05 0.11952399D+01  1  2  5  2  6  2       21 -.678947254049D-02 0.100000000000D+01
0.421483988734D-04 0.000000000000D+00 0.155296080930D-04 0.917896087029D-06 0.000000000000D+00  6 -1 21 25 23 -1 21 4 0.24899940D-01 0.81607385D-01 0.46688987D+05 0.46688987D+05 0.46688987D+05 0.11952399D+01  1  2  6  2  6  2       21 0.143157223494D-01 0.100000000000D+01
-.313627589258D-05 0.000000000000D+00 -.206369281682D-05 0.917896087029D-06 0.000000000000D+00  6 -1 -1 25 23 -1 -1 4 0.24899940D-01 0.11395094D+00 0.46688987D+05 0.46688987D+05 0.46688987D+05 0.11952399D+01  1  2  5  5  6  2       21 -.572761407512D-04 0.100000000000D+01
-.313627589258D-05 0.000000000000D+00 -.206369281682D-05 0.917896087029D-06 0.000000000000D+00  6 -1 1 25 23 1 -1 4 0.24899940D-01 0.11395094D+00 0.46688987D+05 0.46688987D+05 0.46688987D+05 0.11952399D+01  3  4  5  6  5  2       21 -.235553869491D-03 0.100000000000D+01
-.313627589258D-05 0.000000000000D+00 -.206369281682D-05 0.917896087029D-06 0.000000000000D+00  6 -1 -2 25 23 -1 -2 4 0.24899940D-01 0.11395094D+00 0.46688987D+05 0.46688987D+05 0.46688987D+05 0.11952399D+01  1  2  5  7  6  2       21 -.422349513163D-04 0.100000000000D+01
-.313627589258D-05 0.000000000000D+00 -.206369281682D-05 0.917896087029D-06 0.000000000000D+00  6 -1 -4 25 23 -1 -4 4 0.24899940D-01 0.11395094D+00 0.46688987D+05 0.46688987D+05 0.46688987D+05 0.11952399D+01  1  2  5  7  6  2       21 -.216531496666D-04 0.100000000000D+01
-.313627589258D-05 0.000000000000D+00 -.206369281682D-05 0.917896087029D-06 0.000000000000D+00  6 -1 2 25 23 2 -1 4 0.24899940D-01 0.11395094D+00 0.46688987D+05 0.46688987D+05 0.46688987D+05 0.11952399D+01  3  4  5  8  5  2       21 -.402863775171D-03 0.100000000000D+01
-.313627589258D-05 0.000000000000D+00 -.206369281682D-05 0.917896087029D-06 0.000000000000D+00  6 -1 4 25 23 4 -1 4 0.24899940D-01 0.11395094D+00 0.46688987D+05 0.46688987D+05 0.46688987D+05 0.11952399D+01  3  4  5  8  5  2       21 -.216531496666D-04 0.100000000000D+01
-.313627589258D-05 0.000000000000D+00 -.206369281682D-05 0.917896087029D-06 0.000000000000D+00  6 -1 -3 25 23 -1 -3 4 0.24899940D-01 0.11395094D+00 0.46688987D+05 0.46688987D+05 0.46688987D+05 0.11952399D+01  1  2  5  9  6  2       21 -.270382068267D-04 0.100000000000D+01
-.313627589258D-05 0.000000000000D+00 -.206369281682D-05 0.917896087029D-06 0.000000000000D+00  6 -1 3 25 23 3 -1 4 0.24899940D-01 0.11395094D+00 0.46688987D+05 0.46688987D+05 0.46688987D+05 0.11952399D+01  3  4  5 10  5  2       21 -.271052197935D-04 0.100000000000D+01
  </mgrwgt>
  </event>
  <event>
  5     66 0.44233958E-03 0.62935787E+02 0.75467711E-02 0.10430278E+00
       -3 -1    0    0    0  501 0.00000000E+00 0.00000000E+00 0.99335260E+02 0.99336519E+02 0.50000000E+00 0.0000E+00 0.9000E+01
       21 -1    0    0  501  502 0.00000000E+00 0.00000000E+00 -.18385015E+04 0.18385016E+04 0.75000000E+00 0.0000E+00 0.9000E+01
       25  1    1    2    0    0 -.24761483E+02 0.24298301E+03 -.27030632E+03 0.38515501E+03 0.12500000E+03 0.0000E+00 0.9000E+01
       23  1    1    2    0    0 -.37599679E+02 -.25146757E+03 -.40411720E+03 0.48608192E+03 0.91188000E+02 0.0000E+00 0.9000E+01
       -3  1    1    2    0  502 0.62361162E+02 0.84845588E+01 -.10647427E+04 0.10666012E+04 0.50000000E+00 0.0000E+00 0.9000E+01
#aMCatNLO 1  0  0  1  2 0.18103917D+01 0.00000000D+00  -5  6  0 0.00000000D+00 0.00000000D+00 0.00000000D+00 0.00000000D+00 0.00000000D+00
  <mgrwgt>
 0.2237063836D-01    4    2    0
 0.427351598027839D+03 0.000000000000000D+00 0.000000000000000D+00 0.427351598027839D+03
 0.427351598027839D+03 0.000000000000000D+00 0.000000000000000D+00 -.427351598027839D+03
 0.323223927602108D+03 -.247615292306315D+02 0.242983001072487D+03 0.170864961986069D+03
 0.279770982721176D+03 -.375997192024544D+02 -.251467571640231D+03 0.728482872690527D+02
 0.251708285732396D+03 0.623612484330859D+02 0.848457056774384D+01 -.243713249255122D+03
 0.000000000000000D+00 -.000000000000000D+00 -.000000000000000D+00 -.000000000000000D+00
 0.461025586542775D+03 0.000000000000000D+00 0.000000000000000D+00 0.461025586542775D+03
 0.679378565799458D+03 0.000000000000000D+00 0.000000000000000D+00 -.679378565799458D+03
 0.374064881148660D+03 -.211396492581031D+02 0.307665102511651D+03 0.170864961986069D+03
 0.237189276021387D+03 -.349145075882206D+02 -.203513158093985D+03 0.728482872690527D+02
 0.258332803033218D+03 0.650105202719331D+02 0.557971461141428D+02 -.243713249255122D+03
 0.270817192138967D+03 -.895636342560944D+01 -.159949090531809D+03 -.218352979256684D+03
0.190367799021D-02 0.000000000000D+00 0.000000000000D+00 0.328381343950D-06 0.000000000000D+00  6 -3 21 25 23 -3 21 2 0.15282456D-01 0.28284649D+00 0.92241573D+05 0.92241573D+05 0.92241573D+05 0.11668074D+01  1  2  2  1  6  1       -3 0.183013540578D-01 0.100000000000D+01
0.319838024387D-03 0.100459847522D-03 -.384297738828D-05 0.328381343950D-06 0.000000000000D+00  6 -3 21 25 23 -3 21 4 0.15282456D-01 0.28284649D+00 0.92241573D+05 0.92241573D+05 0.92241573D+05 0.11668074D+01  1  2  3  1  6  1       -3 0.418618256668D-02 0.100000000000D+01
0.149153616185D-03 0.000000000000D+00 0.000000000000D+00 0.328381343950D-06 0.000000000000D+00  6 -3 21 25 23 -3 21 4 0.15282456D-01 0.28284649D+00 0.92241573D+05 0.92241573D+05 0.92241573D+05 0.11668074D+01  1  2 15  1  6  1       -3 0.195218898387D-02 0.100000000000D+01
-.158085025794D-03 0.000000000000D+00 0.000000000000D+00 0.328381343950D-06 0.000000000000D+00  6 -3 21 25 23 -3 21 4 0.15282456D-01 0.28284649D+00 0.92241573D+05 0.92241573D+05 0.92241573D+05 0.11668074D+01  1  2  4  1  6  1       -3 -.206908725222D-02 0.100000000000D+01
  </mgrwgt>
  </event>
  <event>
  5     66 -.44233958E-03 0.70768647E+02 0.75467711E-02 0.11560328E+00
       -1 -1    0    0    0  501 0.00000000E+00 0.00000000E+00 0.50965428E+03 0.50965438E+03 0.32000000E+00 0.0000E+00 0.9000E+01
       21 -1    0    0  501  502 0.00000000E+00 0.00000000E+00 -.18747541E+03 0.18747691E+03 0.75000000E+00 0.0000E+00 0.9000E+01
       25  1    1    2    0    0 0.17514263E+02 -.13109643E+03 0.14945345E+03 0.23548748E+03 0.12500000E+03 0.0000E+00 0.9000E+01
       23  1    1    2    0    0 -.55402970E+02 0.61806128E+02 0.29292586E+03 0.31782118E+03 0.91188000E+02 0.0000E+00 0.9000E+01
       -1  1    1    2    0  502 0.37888707E+02 0.69290297E+02 -.12020045E+03 0.14382263E+03 0.32000000E+00 0.0000E+00 0.9000E+01
#aMCatNLO 1  0  0  5  2 0.82669885D+01 0.00000000D+00  -5  6  0 0.00000000D+00 0.00000000D+00 0.00000000D+00 0.00000000D+00 0.00000000D+00
  <mgrwgt>
 -.1752684538D-01    8    2    0
 0.309108725666793D+03 0.000000000000000D+00 0.000000000000000D+00 0.309108725666793D+03
 0.309108725666793D+03 -.000000000000000D+00 -.000000000000000D+00 -.309108725666793D+03
 0.187660458129391D+03 0.175142513608264D+02 -.131096446493526D+03 0.458085173452766D+02
 0.205734401699076D+03 -.554029823122966D+02 0.618061047174913D+02 0.164687302695230D+03
 0.224822591505120D+03 0.378887309514702D+02 0.692903417760350D+02 -.210495820040507D+03
 0.000000000000000D+00 0.000000000000000D+00 0.000000000000000D+00 -.000000000000000D+00
 0.309108725666793D+03 0.000000000000000D+00 0.000000000000000D+00 0.309108725666793D+03
 0.309108725666793D+03 -.000000000000000D+00 -.000000000000000D+00 -.309108725666793D+03
 0.187574500362773D+03 0.175481226043712D+02 -.131034503272345D+03 0.456203412040678D+02
 0.205579745636589D+03 -.553658543173097D+02 0.618740038367676D+02 0.164481033243735D+03
 0.144486437662042D+03 0.323684096639598D+02 0.451930671914773D+02 -.133364925681080D+03
 0.805767676721824D+02 0.544932204897878D+01 0.239674322441004D+02 -.767364487667226D+02
0.150150820484D-05 0.000000000000D+00 0.000000000000D+00 0.572859980479D-06 0.000000000000D+00  6 -1 21 25 23 -1 21 2 0.78408473D-01 0.28842494D-01 0.36914687D+05 0.36914687D+05 0.36914687D+05 0.12055565D+01  1  2  2  3  6  5       -1 0.398787457669D-03 0.100000000000D+01
0.806052002917D-07 0.792367648764D-07 -.303111246187D-08 0.572859980479D-06 0.000000000000D+00  6 -1 21 25 23 -1 21 4 0.78408473D-01 0.28842494D-01 0.36914687D+05 0.36914687D+05 0.36914687D+05 0.12055565D+01  1  2  3  3  6  5       -1 0.311137250553D-04 0.100000000000D+01
0.149794179488D-06 0.000000000000D+00 0.000000000000D+00 0.572859980479D-06 0.000000000000D+00  6 -1 21 25 23 -1 21 4 0.78408473D-01 0.28842494D-01 0.36914687D+05 0.36914687D+05 0.36914687D+05 0.12055565D+01  1  2 15  3  6  5       -1 0.578207720918D-04 0.100000000000D+01
0.423136095572D-04 0.000000000000D+00 0.000000000000D+00 0.572602647700D-06 0.000000000000D+00  6 -1 21 25 23 -1 21 4 0.78408473D-01 0.28842494D-01 0.37140059D+05 0.37140059D+05 0.37140059D+05 0.12052857D+01  1  2 12  3  6  5       -1 0.163154381571D-01 0.100000000000D+01
-.107637026866D-03 0.000000000000D+00 0.000000000000D+00 0.572859980479D-06 0.000000000000D+00  6 -1 21 25 23 -1 21 4 0.78408473D-01 0.28842494D-01 0.36914687D+05 0.36914687D+05 0.36914687D+05 0.12055565D+01  1  2  4  3  6  5       -1 -.415480495992D-01 0.100000000000D+01
-.444239488211D-04 0.000000000000D+00 0.000000000000D+00 0.572859980479D-06 0.000000000000D+00  6 -1 21 25 23 -1 21 4 0.78408473D-01 0.28842494D-01 0.36914687D+05 0.36914687D+05 0.36914687D+05 0.12055565D+01  1  2  5  3  6  5       -1 -.171477091365D-01 0.100000000000D+01
0.629391056156D-04 0.000000000000D+00 -.000000000000D+00 0.572859980479D-06 0.000000000000D+00  6 -1 21 25 23 -1 21 4 0.78408473D-01 0.28842494D-01 0.36914687D+05 0.36914687D+05 0.36914687D+05 0.12055565D+01  1  2  6  3  6  5       -1 0.242945867049D-01 0.100000000000D+01
0.184568339930D-06 0.000000000000D+00 0.000000000000D+00 0.572859980479D-06 0.519050165784D-07  6 -1 21 25 23 -1 21 4 0.78408473D-01 0.28842494D-01 0.37140059D+05 0.37140059D+05 0.37140059D+05 0.12052857D+01  1  2 11  3  6  5       -1 0.711665435163D-04 0.100000000000D+01
  </mgrwgt>
  </event>
</LesHouchesEvents>
